ITEM: TIMESTEP
0
ITEM: NUMBER OF ATOMS
50688
ITEM: BOX BOUNDS xy xz yz pp pp pp
-20.3679009 77.0769959 17.164093
-22.2159996 65.355896 0.0
-22.2159996 65.355896 0.0
ITEM: ATOMS id type x y z VoronoiIndex1 VoronoiIndex2 VoronoiIndex3 VoronoiIndex4 VoronoiIndex5 VoronoiIndex6 VoronoiIndex7 VoronoiIndex8 VoronoiIndex9 AtomicVolume
9 1 -13.2200003 -11.2399998 4.0489998 0 0 0 1 10 2 0 0 0 11.5763664
25 2 7.751 20.1000004 18.2199993 0 0 0 2 10 0 0 0 0 11.4546433
35 2 20.8799992 15.2399998 -13.1099997 0 0 0 2 10 2 0 0 0 12.1359329
42 2 21.5300007 15.5200005 -8.9160004 0 0 0 2 8 2 0 0 0 11.4802132
57 5 4.4840002 -3.563 -19.7199993 0 0 0 1 10 2 0 0 0 12.3139839
71 2 3.1600001 18.8700008 -14.1199999 0 0 0 0 12 0 0 0 0 11.1407766
75 4 -5.3800001 -22.1299992 -9.7399998 0 0 0 2 10 2 0 0 0 11.7342444
81 4 12.8000002 -2.747 -9.2659998 0 0 0 0 12 0 0 0 0 10.7815628
82 5 -15.1899996 -12.9899998 -21.2800007 0 0 0 0 12 2 0 0 0 13.1647863
91 2 2.5799999 19.9400006 -10.0500002 0 0 0 2 8 4 0 0 0 12.3813791
101 1 -10.9300004 -17.1100006 -3.3020001 0 0 1 2 6 4 1 0 0 12.656148
105 4 2.448 14.1700001 -16.2199993 0 0 1 4 3 6 0 0 0 12.7893954
110 5 -9.566 -15.9099998 2.6170001 0 0 0 0 12 3 0 0 0 11.780242
112 2 9.8570004 -3.313 15.1499996 0 0 0 2 8 3 0 0 0 12.2857552
128 5 -15.79 -13.4899998 8.0629997 0 0 0 4 6 4 0 0 0 13.0304012
141 5 3.3699999 8.4280005 -9.4069996 0 0 0 4 6 4 0 0 0 12.4439249
147 5 10.7100001 -1.899 11.1899996 0 0 1 1 9 3 0 0 0 12.4573441
159 4 14.0200005 -2.5610001 15.5 0 0 0 3 8 3 0 0 0 12.6471968
165 1 19.9899998 -11.0699997 -14.9799996 0 0 0 0 12 0 0 0 0 10.9702034
168 5 2.8150001 -6.8920002 -15.0299997 0 0 1 0 9 3 0 0 0 11.6402836
171 2 -1.5850001 8.3459997 -10.5500002 0 0 0 3 6 4 0 0 0 11.1937218
174 4 -7.487 17.2700005 11.6800003 0 0 0 3 6 5 0 0 0 12.3304443
184 2 12.4200001 -1.155 12.7200003 0 0 0 2 8 3 0 0 0 12.1770458
186 5 13.1099997 13.04 -15.8999996 0 0 1 1 8 3 1 0 0 12.4448653
196 5 9.2530003 -7.0380001 -1.974 0 0 0 1 10 2 0 0 0 12.0125256
214 2 0.3765 17.9500008 -18.0300007 0 0 0 3 6 4 0 0 0 11.6509123
217 2 -16.6299992 -6.599 19.2299996 0 0 0 3 6 5 0 0 0 11.8076525
243 4 2.1140001 2.573 14.2600002 0 0 0 3 6 3 2 0 0 12.3094797
244 5 9.5310002 -11.7799998 19.0200005 0 0 1 0 11 3 0 0 0 13.4821472
245 1 -10.6400004 4.8730002 -19.6900006 0 0 0 1 10 2 0 0 0 11.1401482
247 2 10.8400002 14.5900002 -5.0 0 0 0 1 10 2 0 0 0 11.9821006
254 2 -7.8200002 19.1000004 -7.5279999 0 0 1 2 6 3 1 0 0 11.3638764
273 4 18.2900009 -11.75 0.3672 0 0 0 2 10 2 0 0 0 12.773881
275 4 14.54 -0.06946 11.8500004 0 0 0 4 4 6 0 0 0 11.6220141
295 4 -4.0479999 4.79 -9.4239998 0 0 0 0 12 3 0 0 0 12.7839947
299 5 0.06189 20.3500004 -18.8899994 0 0 0 2 10 3 0 0 0 12.549242
300 2 17.0499992 -8.4029999 1.549 0 0 0 3 6 3 0 0 0 12.1107225
313 5 -2.4470001 -12.3900004 3.6540001 0 0 2 1 7 4 1 0 0 13.6199103
314 5 -18.0300007 -20.0200005 3.48 0 0 0 2 8 2 0 0 0 11.3768034
327 4 -3.0840001 -0.9558 14.6400004 0 0 0 5 6 2 0 0 0 12.2819958
335 1 -9.3610001 17.9099998 -14.1599999 0 0 0 2 8 2 0 0 0 11.6483326
341 5 27.2600002 18.3700009 10.5600004 0 0 0 2 8 2 0 0 0 12.0419264
348 4 -8.9829998 4.8200002 11.87 0 0 0 3 6 4 0 0 0 11.97124
360 4 8.4560004 -20.3299999 -7.889 0 0 0 1 12 4 0 0 0 14.2659769
364 4 -8.033 5.4460001 -16.25 0 0 1 3 4 5 1 0 0 12.9814368
387 4 13.8599998 -11.2100001 0.9114 0 0 1 2 8 2 1 0 0 12.200141
397 1 -8.2349997 3.6870001 19.2700005 0 0 1 1 9 1 0 0 0 11.315752
410 4 7.006 -3.303 7.7100001 0 0 0 1 10 3 0 0 0 12.6439562
412 1 -5.9050002 14.0600004 -5.8670002 0 0 1 3 6 2 1 0 0 11.7850905
415 2 -8.1479998 3.5880001 -12.6099997 0 0 0 3 6 4 0 0 0 12.1254768
419 2 4.2560001 -9.4510002 -11.3299999 0 0 0 3 8 2 0 0 0 11.4800225
420 5 8.356 -9.7810002 -10.8000002 0 0 0 1 10 2 0 0 0 11.9637232
432 5 3.957 10.6899996 8.3260002 0 0 0 1 10 3 0 0 0 12.2567368
438 4 -14.0799999 -19.1100006 16.8099995 0 0 0 4 7 3 1 0 0 13.4649754
439 4 -7.7449999 19.1599999 -15.3800001 0 0 1 2 7 6 0 0 0 13.5886307
442 4 5.888 18.5200005 -18.2700005 0 0 0 4 6 4 0 0 0 12.5024109
453 4 0.1427 2.7609999 7.6409998 0 0 0 4 5 5 1 0 0 13.1209993
459 4 -12.1800003 2.7750001 -20.5100003 0 0 0 2 10 1 0 0 0 12.1960468
465 3 18.0100002 -9.9849998 -15.5799999 0 0 1 0 11 1 0 0 0 11.3521414
477 5 -14.5299998 -4.1599999 -3.665 0 0 0 4 6 5 0 0 0 12.6191483
485 4 6.8920002 5.862 -15.5799999 0 0 0 0 12 2 0 0 0 11.9050962
515 5 -2.3710001 -12.1000004 16.9799996 0 0 0 0 12 2 0 0 0 12.6787825
520 5 3.352 -15.3599997 11.3299999 0 0 1 2 7 4 0 0 0 12.4799471
533 4 10.4099999 5.8850002 -4.7020002 0 0 0 0 12 4 0 0 0 13.632721
537 2 16.6299992 9.2460003 -9.3769999 0 0 1 2 7 2 0 0 0 10.8715764
539 2 -7.809 7.81 -22.2099991 0 0 0 2 8 3 0 0 0 11.7512865
540 5 -11.0500002 -15.1700001 0.524 0 0 0 0 12 0 0 0 0 11.4940481
550 4 6.6230002 -9.1020002 12.3100004 0 0 0 1 10 2 0 0 0 12.2176542
562 2 1.727 -11.25 -21.7199993 0 0 0 1 10 2 0 0 0 11.8856926
564 4 12.4899998 0.2191 17.9899998 0 0 0 5 4 5 0 0 0 12.0202188
567 4 4.8600002 -12.6300001 20.9099998 0 0 0 0 12 0 0 0 0 11.5176058
574 5 14.5799999 -15.9700004 -13.1099997 0 0 0 1 10 3 0 0 0 12.7489062
580 2 14.5900002 -15.1199999 -10.8400002 0 0 1 3 4 4 1 0 0 12.0477428
585 4 10.3900004 -8.5100003 -11.7799998 0 0 0 3 8 4 0 0 0 12.7510634
603 5 -12.1099997 -16.6399994 -0.9261 0 0 0 2 8 5 0 0 0 12.861477
604 4 21.1700001 -8.4049997 16.6700001 0 0 0 1 10 3 0 0 0 12.3023472
616 4 22.8400002 -4.1370001 16.1700001 0 0 0 1 12 2 0 0 0 13.4822798
620 4 3.388 18.4099999 7.6560002 0 0 1 2 8 3 1 0 0 12.7975884
622 5 0.7104 -3.0090001 5.4120002 0 0 0 0 12 2 0 0 0 12.0650368
634 4 -7.9499998 -21.6000004 -0.1144 0 0 0 1 10 2 0 0 0 12.0511284
642 4 -5.6529999 4.52 -20.0200005 0 0 0 1 10 4 0 0 0 12.6514254
643 5 14.2100001 0.7204 -17.7099991 0 0 0 4 6 2 0 0 0 11.444191
650 2 15.6000004 -12.3299999 17.2099991 0 0 0 0 12 0 0 0 0 11.6539612
653 4 -1.976 -14.8500004 3.286 0 0 0 1 10 5 0 0 0 14.3671332
654 4 0.1571 -6.863 -0.466 0 0 0 0 12 2 0 0 0 12.6868878
656 4 4.4549999 -12.9399996 14.9399996 0 0 0 1 10 2 0 0 0 11.963439
665 4 -9.3009997 -6.0469999 -22.0100002 0 0 1 2 7 3 0 0 0 11.8369761
666 4 -12.0699997 -9.4090004 -0.1862 0 0 0 1 10 2 0 0 0 11.8746482
667 5 23.9500008 1.01 7.4400001 0 0 0 0 12 0 0 0 0 10.6956921
671 2 17.4799996 -0.3498 17.4200001 0 0 0 1 10 2 0 0 0 12.1857748
673 2 9.6610003 6.6810003 12.54 0 0 0 0 12 0 0 0 0 11.2447987
679 4 9.7449999 14.4899998 17.6399994 0 0 0 0 12 0 0 0 0 11.310482
683 5 -6.4429999 13.1700001 18.1299992 0 0 0 1 10 2 0 0 0 11.7928734
687 5 12.6899996 -9.7010002 19.9400006 0 0 1 1 9 2 0 0 0 11.5585947
712 4 24.6900006 10.9200002 -15.79 0 0 0 2 8 5 0 0 0 12.6416407
716 4 0.9366 6.3369999 4.4130001 0 0 0 1 10 2 0 0 0 11.6909933
717 4 3.866 -18.7999993 1.8170001 0 0 0 3 6 6 0 0 0 12.4072714
719 4 23.9300004 2.109 -11.0 0 0 1 2 9 2 0 0 0 12.0653553
728 5 4.6430002 1.642 3.895 0 0 0 1 12 2 0 0 0 12.2811613
740 2 20.8400002 4.5310002 17.8600006 0 0 0 4 6 2 0 0 0 11.9976188
743 5 20.5799999 -14.6599999 -18.8600006 0 0 1 2 7 2 2 0 0 11.7731486
745 4 -1.2690001 -14.0799999 -17.7399998 0 0 0 1 10 3 0 0 0 12.2104521
761 5 -5.2100001 13.6400004 -12.1899996 0 0 0 3 6 3 0 0 0 11.7637787
775 2 -4.7579999 -11.3999996 21.4300003 0 0 0 3 6 4 0 0 0 11.0047407
776 4 19.0200005 6.941 4.8449998 0 0 0 2 8 4 0 0 0 12.2958746
781 4 -9.4329996 -17.6000004 -11.5900002 0 0 0 4 4 4 2 0 0 12.568121
798 5 -6.3189998 21.0300007 -3.2260001 0 0 1 5 3 3 2 0 0 11.8154183
799 4 23.8600006 4.863 -1.4270001 0 0 1 0 9 3 0 0 0 12.1492205
806 4 -7.7059999 6.1110001 16.5900002 0 0 0 1 10 2 0 0 0 12.2042637
832 5 20.9799996 -11.9799996 8.5290003 0 0 0 2 8 2 0 0 0 11.9183226
843 2 2.3859999 -1.864 -8.2279997 0 0 0 2 8 2 0 0 0 11.3795729
846 3 16.3700009 -14.6800003 -14.5100003 0 0 0 2 8 4 0 0 0 11.9412146
860 4 22.8199997 2.3350001 14.1899996 0 0 0 2 8 4 0 0 0 12.1718998
864 2 4.73 -2.0179999 1.041 0 0 0 3 8 1 0 0 0 11.4290333
897 5 4.7600003 -3.112 11.1000004 0 0 0 2 8 2 0 0 0 11.0087748
902 2 -19.4699993 -21.0100002 20.5200005 0 0 0 1 10 2 0 0 0 11.0165129
905 4 18.6599999 -3.7560001 -2.9860002 0 0 0 0 12 2 0 0 0 12.1737022
917 5 7.1770001 -12.2399998 20.2999992 0 0 0 0 12 0 0 0 0 11.7406035
949 2 13.9099998 4.7709999 21.1499996 0 0 0 1 10 3 0 0 0 12.3034802
952 2 10.5 1.4680001 0.9725 0 0 0 0 12 2 0 0 0 12.7965336
961 2 -3.7690001 -18.5100003 -6.2560001 0 0 1 2 7 3 0 0 0 11.4003725
990 4 2.929 -12.8299999 -20.2999992 0 0 0 4 9 0 1 0 0 12.0223541
996 5 11.9099998 -8.3640003 15.8299999 0 0 0 1 10 3 0 0 0 11.58562
999 4 1.987 10.7200003 -10.2799997 0 0 0 3 6 6 0 0 0 12.1814194
1009 5 8.0419998 12.6199999 17.9099998 0 0 1 1 9 4 0 0 0 12.2584992
1018 3 23.6900006 18.3099995 13.6000004 0 0 0 2 10 2 0 0 0 12.557396
1023 2 16.4500008 -2.4979999 -16.0499992 0 0 0 1 10 2 0 0 0 12.3182125
1027 4 -6.8839998 -8.3929997 19.2000008 0 0 1 1 8 3 1 0 0 12.0843782
1034 4 13.1899996 8.0319996 -14.3699999 0 0 0 0 12 0 0 0 0 11.3906994
1039 5 10.1199999 11.9899998 -21.2199993 0 0 0 2 8 3 0 0 0 11.6728001
1040 1 5.5110002 -13.6000004 -21.0200005 0 0 2 2 4 5 0 0 0 11.1457119
1063 5 15.0200005 -19.7999993 -15.1000004 0 0 0 1 10 2 0 0 0 11.9953718
1067 3 16.7700005 -6.553 -19.2099991 0 0 0 2 7 4 1 0 0 12.8361159
1068 5 -4.501 7.0830002 -1.858 0 0 1 2 9 2 0 0 0 11.4248877
1089 4 -4.5580001 -5.8130002 4.1479998 0 0 0 0 14 2 0 0 0 13.5540495
1091 5 -3.1329999 -14.6000004 8.1269999 0 0 0 1 9 2 1 0 0 11.9484912
1094 5 9.8920002 3.392 19.5100003 0 0 0 2 8 5 0 0 0 12.5830221
1097 1 22.7000008 0.8605 -17.6499996 0 0 0 0 12 0 0 0 0 11.4287405
1101 4 -10.1000004 -14.3500004 11.2200003 0 0 0 0 12 3 0 0 0 12.589201
1111 4 -16.0200005 -18.6299992 19.9899998 0 0 0 3 8 2 0 0 0 12.0288725
1113 4 13.3999996 5.6090002 18.5900002 0 0 1 0 9 3 0 0 0 11.7921887
1119 4 16.7800007 -6.415 20.0300007 0 0 0 3 7 2 1 0 0 12.5498801
1127 2 -5.3020001 16.2399998 -2.3 0 0 0 3 8 3 0 0 0 12.3805981
1129 2 18.1800003 20.4200001 19.9699994 0 0 0 2 8 2 0 0 0 11.6048031
1143 5 -4.829 13.0100002 0.3109 0 0 1 2 7 5 0 0 0 12.2771635
1147 4 -13.1300001 1.114 -10.0900002 0 0 0 3 8 2 1 0 0 12.55966
1152 2 -12.54 -11.1000004 -6.6770001 0 0 0 2 8 2 0 0 0 11.5019446
1158 2 3.503 15.0699997 13.3400002 0 0 0 0 12 0 0 0 0 11.5261336
1161 4 9.4300003 -0.3315 -3.0150001 0 0 0 1 12 2 0 0 0 12.8216706
1167 4 19.3600006 -4.4460001 -0.7036 0 0 0 0 12 0 0 0 0 11.4309263
1171 5 -1.518 1.395 14.3199997 0 0 0 2 8 5 0 0 0 12.1045408
1175 4 7.3590002 18.3299999 15.7799998 0 0 0 0 12 3 0 0 0 12.0341167
1185 2 8.0819998 -3.3069999 -21.5699997 0 0 0 0 12 0 0 0 0 11.4127789
1190 2 -11.3900004 -13.6999998 -16.1200008 0 0 0 1 10 2 0 0 0 11.4287634
1207 5 11.8999996 19.3600006 18.3299999 0 0 0 2 10 0 0 0 0 11.539259
1208 4 15.79 18.4599991 -4.5609999 0 0 0 2 8 4 0 0 0 12.9729386
1212 4 8.2279997 -2.3900001 11.4499998 0 0 0 3 6 5 0 0 0 12.1845398
1214 5 17.1900005 5.0050001 15.8500004 0 0 1 1 9 2 0 0 0 10.9957552
1217 5 -7.6989999 11.1300001 4.2230001 0 0 0 1 10 4 0 0 0 12.8471956
1226 4 11.5600004 20.1200008 -16.0 0 0 1 2 7 4 0 0 0 11.9453898
1243 2 -1.243 -20.9099998 18.6200009 0 0 0 2 8 2 0 0 0 11.3718357
1245 5 17.4300003 -14.4499998 1.433 0 0 0 1 10 2 0 0 0 12.5311651
1246 4 10.0 12.1599999 -10.79 0 0 1 1 9 5 0 0 0 13.2835608
1249 2 -10.0699997 -6.7059999 20.9699994 0 0 0 0 10 2 0 0 0 10.932971
1250 2 -5.4109998 13.8000002 7.046 0 0 0 1 10 2 0 0 0 11.3182945
1252 4 -17.3700009 -16.2900009 -18.9200002 0 0 0 2 8 7 0 0 0 13.9401674
1261 4 5.3119998 -0.1035 -0.5903 0 0 0 2 10 2 0 0 0 12.0219345
1269 5 -18.3700009 -18.5200005 -7.5619998 0 0 0 5 4 7 0 0 0 12.0337629
1270 2 0.05637 7.6180001 0.2761 0 0 0 2 8 3 0 0 0 11.8321076
1295 4 -4.8839998 -19.8299999 -4.0159998 0 0 0 4 6 6 0 0 0 12.9534198
1305 5 -0.9706 18.7700005 14.2200003 0 0 0 3 6 6 0 0 0 13.0964937
1306 5 -3.655 17.25 -8.6429997 0 0 0 0 12 0 0 0 0 11.679802
1318 5 -1.477 -1.821 -13.2200003 0 0 0 1 10 5 0 0 0 12.9804078
1328 2 6.1929998 15.3999996 -5.2529998 0 0 0 0 12 0 0 0 0 11.0053101
1333 5 22.3199997 -5.9299998 11.7100001 0 0 0 2 8 4 0 0 0 12.6724568
1335 5 -4.7800002 2.132 20.9400006 0 0 1 0 11 3 0 0 0 12.9979458
1337 4 14.5299998 -13.04 -7.5770002 0 0 0 3 6 4 0 0 0 11.7051745
1340 4 15.1400003 15.5299998 -0.3226 0 0 0 3 8 3 0 0 0 13.0051479
1352 4 -19.6700001 -21.1700001 18.0 0 0 0 1 10 4 0 0 0 13.0204916
1357 5 15.5500002 -9.1020002 -5.0149999 0 0 1 1 9 3 2 0 0 13.2032557
1371 4 17.0799999 9.4540005 -1.5240001 0 0 0 2 10 0 0 0 0 11.8067713
1374 4 15.4700003 -6.7480002 1.6310001 0 0 1 1 9 3 0 0 0 12.6013794
1384 2 19.9899998 -12.9300004 -13.5600004 0 0 0 1 10 2 0 0 0 11.227273
1386 2 6.7909999 2.494 4.7340002 0 0 0 2 8 2 0 0 0 10.9516564
1388 5 11.6099997 -2.3410001 -7.2470002 0 0 0 2 8 2 0 0 0 10.8217545
1393 4 2.79 -5.0190001 5.0240002 0 0 0 1 10 2 0 0 0 12.1010866
1410 1 24.8299999 12.3599997 0.4222 0 0 0 0 12 0 0 0 0 10.745368
1415 4 0.3647 -11.9700004 -2.118 0 0 0 3 7 5 1 0 0 13.1781101
1419 4 10.7200003 -17.4799996 -13.9499998 0 0 1 3 9 1 0 0 0 12.0297136
1426 5 26.6299992 13.3299999 19.75 0 0 0 0 12 0 0 0 0 10.9373466
1427 5 17.4300003 -16.2900009 -3.171 0 0 0 0 12 0 0 0 0 11.5744944
1433 5 0.0194 -3.2409999 14.8100004 0 0 0 4 5 4 1 0 0 12.8786994
1444 4 -5.1830001 3.872 11.5900002 0 0 0 1 10 2 0 0 0 11.6939354
1447 4 1.1390001 -18.3700009 14.9300004 0 0 0 2 8 5 0 0 0 13.3856392
1450 1 17.7199993 5.7030001 -6.2919998 0 0 2 4 2 4 2 0 0 12.0169506
1452 4 -9.6370001 -7.171 -19.7999993 0 0 0 1 10 3 0 0 0 12.3033323
1469 2 1.813 -15.8199997 -1.806 0 0 0 2 10 1 0 0 0 11.8217459
1471 5 -19.7099991 -19.8899994 -11.3500004 0 0 0 0 12 2 0 0 0 11.9591104
1476 5 2.901 -21.8600006 -1.142 0 0 0 4 4 6 0 0 0 12.8712854
1487 4 0.1022 -14.0299997 -8.9460002 0 0 0 3 7 2 1 0 0 13.5647955
1504 5 9.3170004 6.1589999 -16.75 0 0 0 3 6 5 0 0 0 12.1634903
1516 2 17.3199997 18.8999996 -2.7330001 0 0 0 0 12 0 0 0 0 11.5525856
1528 2 17.8600006 -19.7299996 17.0300007 0 0 0 0 12 0 0 0 0 11.2567749
1533 2 8.0319996 2.549 -5.916 0 0 0 0 12 0 0 0 0 11.5087223
1534 4 8.2340002 17.1100006 0.9194 0 0 1 2 7 4 2 0 0 12.9143028
1548 4 9.2589998 -15.1000004 16.6599999 0 0 0 2 8 5 0 0 0 13.2338686
1550 4 -3.8080001 -11.7799998 -13.1599999 0 0 1 0 11 1 0 0 0 12.8983022
1561 4 -13.0900002 3.8640002 5.0089998 0 0 0 1 10 3 0 0 0 11.6767149
1566 1 7.448 2.583 -8.6120005 0 0 0 1 12 2 0 0 0 12.4863711
1581 2 4.138 10.6300001 -4.1830001 0 0 0 0 12 0 0 0 0 11.6435099
1584 2 20.0 19.1299992 19.0900002 0 0 0 0 12 0 0 0 0 10.7575941
1585 3 -10.4200001 -16.4400006 16.0300007 0 0 0 0 12 2 0 0 0 12.7466822
1595 5 2.323 2.4360001 -12.7100001 0 0 0 2 9 1 1 0 0 12.1853361
1605 5 5.908 -4.131 0.1565 0 0 1 1 9 3 0 0 0 12.1944571
1618 4 -2.8350001 -4.0229998 21.3600006 0 0 0 2 8 5 0 0 0 12.9169112
1619 5 25.3700009 20.6599999 -11.96 0 0 0 2 8 5 0 0 0 12.3830338
1622 4 8.4860001 15.6300001 -1.5160001 0 0 0 1 12 3 0 0 0 13.3016634
1625 4 6.8930002 -5.8600002 8.3950005 0 0 0 1 12 2 0 0 0 13.1730223
1630 4 -1.273 -14.5600004 12.54 0 0 0 1 12 2 0 0 0 13.2151995
1632 4 -1.197 -4.3249998 -12.7399998 0 0 0 3 6 4 0 0 0 12.0394554
1644 4 5.875 14.2399998 13.9700004 0 0 1 2 9 3 0 0 0 13.421876
1661 5 19.8199997 2.28 -19.9599992 0 0 0 1 10 2 0 0 0 12.5045843
1667 4 -5.3150001 11.0500002 -9.3240004 0 0 0 2 10 3 0 0 0 12.4151592
1672 4 5.9380002 -18.3500004 -20.5 0 0 0 1 10 2 0 0 0 11.6029415
1687 5 13.9399996 -0.4235 14.5600004 0 0 0 3 6 4 0 0 0 12.6452437
1694 2 16.0300007 -0.4434 3.3410001 0 0 0 0 12 0 0 0 0 11.2106276
1699 4 16.2600002 -7.6129999 8.3970003 0 0 0 2 8 4 0 0 0 12.2167397
1700 5 11.79 13.0299997 20.5200005 0 0 0 2 8 4 0 0 0 12.0141439
1705 1 -3.843 -12.3599997 -0.4877 0 0 1 1 9 3 0 0 0 12.0517941
1707 4 15.9399996 5.151 -12.1499996 0 0 1 2 7 4 0 0 0 12.4179754
1712 2 12.5600004 -13.7100001 -21.5 0 0 0 2 8 3 0 0 0 12.0094919
1714 4 16.1399994 0.9691 16.0900002 0 0 1 1 9 3 0 0 0 11.8652792
1724 2 -3.7890001 1.466 -12.5600004 0 0 0 0 12 0 0 0 0 10.9066516
1730 5 -4.857 -0.01439 19.4699993 0 0 1 0 9 3 0 0 0 11.7831116
1733 1 -10.1000004 -13.3999996 18.9899998 0 0 0 0 12 0 0 0 0 11.0392962
1737 4 9.9919996 -19.5200005 -0.8239 0 0 0 0 12 0 0 0 0 11.4966107
1743 4 -8.2469998 -15.5600004 0.6981 0 0 0 0 12 2 0 0 0 12.2075653
1745 4 -17.3700009 -21.4500008 17.0 0 0 0 1 10 2 0 0 0 12.2806034
1750 4 0.4384 5.7540002 -1.5390001 0 0 0 1 10 2 0 0 0 11.7560072
1751 4 -3.1949999 -9.3479996 -3.4830001 0 0 0 2 8 4 0 0 0 12.2926607
1796 2 10.1599999 -7.3330002 -20.6900006 0 0 0 1 10 2 0 0 0 11.7572527
1803 2 13.6099997 -3.6099999 -7.1279998 0 0 1 0 9 3 0 0 0 11.2640123
1805 4 20.8099995 16.6800003 -18.2600002 0 0 0 0 12 0 0 0 0 11.3896332
1834 4 18.7099991 18.1100006 20.9400006 0 0 1 1 9 4 0 0 0 13.2106581
1838 2 6.7870002 19.7099991 -2.7479999 0 0 0 1 10 2 0 0 0 10.9880886
1847 4 15.0600004 -15.5 -18.3500004 0 0 0 5 4 5 0 0 0 12.6520796
1849 5 -2.833 -5.856 -11.9300004 0 0 0 3 6 4 0 0 0 11.918934
1853 2 19.7199993 21.4599991 -12.3199997 0 0 0 0 12 0 0 0 0 11.6229496
1854 4 14.0799999 -6.3759999 8.3649998 0 0 0 0 12 0 0 0 0 11.2761841
1860 2 -9.2480002 -3.1819999 -16.6800003 0 0 0 0 12 0 0 0 0 10.6317969
1864 5 22.5200005 6.2010002 21.1299992 0 0 0 3 8 3 0 0 0 12.55297
1868 4 -13.9899998 7.6329999 7.7340002 0 0 0 0 12 2 0 0 0 12.0528564
1873 4 10.87 -18.9200002 -8.3929997 0 0 0 0 12 0 0 0 0 11.4576779
1880 5 4.3759999 -17.7700005 20.3500004 0 0 0 1 10 2 0 0 0 11.8006773
1882 2 25.1100006 16.4400006 21.5 0 0 0 4 6 3 0 0 0 11.6147013
1890 4 -13.7299996 -18.9699994 8.5270005 0 0 0 1 10 2 0 0 0 12.1778336
1893 2 8.3240004 -9.8319998 0.8964 0 0 1 0 11 1 0 0 0 11.8428726
1898 5 -12.4399996 18.2199993 21.5599995 0 0 0 3 8 3 0 0 0 13.317174
1911 4 13.8500004 -13.3400002 5.4600001 0 0 0 2 8 5 0 0 0 13.711854
1921 4 13.3199997 17.0 4.3779998 0 0 0 3 6 4 0 0 0 12.5645132
1925 2 10.7200003 -19.4300003 -15.1199999 0 0 0 2 10 1 0 0 0 12.3833656
1926 4 -2.7390001 9.8140002 -8.7030001 0 0 0 1 10 2 0 0 0 12.062664
1928 4 -2.029 7.7670002 1.505 0 0 0 2 10 2 0 0 0 12.4843197
1934 4 -3.2920001 18.6200009 -6.349 0 0 0 1 10 2 2 0 0 12.8180847
1935 4 4.73 -0.3535 5.9169998 0 0 0 0 12 0 0 0 0 11.5884695
1938 4 -5.9970002 -1.266 -8.988 0 0 1 2 7 4 0 0 0 12.5383873
1943 5 -6.8060003 21.3899994 -17.4799996 0 0 0 2 10 1 0 0 0 12.0927076
1947 5 -6.836 3.7780001 17.3199997 0 0 0 2 10 3 0 0 0 12.4654198
1948 4 -5.645 -2.5580001 -11.3199997 0 0 0 1 12 3 0 0 0 13.2381916
1954 5 -11.6899996 -8.3739996 14.1199999 0 0 0 3 8 2 0 0 0 11.7667885
1979 5 21.4099999 -9.3959999 8.6350003 0 0 0 0 12 3 0 0 0 12.65796
1984 5 16.7299996 -21.5799999 1.237 0 0 1 0 11 3 0 0 0 12.8890524
1986 4 -5.1919999 11.75 13.0299997 0 0 0 1 10 2 0 0 0 11.1661835
1993 5 -13.0600004 -5.7090001 -16.0200005 0 0 0 1 10 4 0 0 0 13.1411715
1996 4 -5.1890001 16.4099999 6.8319998 0 0 0 1 12 1 0 0 0 12.0424013
1998 2 -2.296 5.8319998 8.0249996 0 0 0 4 7 2 1 0 0 11.7562685
2001 4 7.322 -4.3000002 5.4060001 0 0 0 2 10 4 0 0 0 13.1255779
2006 5 -14.0200005 -8.0240002 -21.0200005 0 0 0 1 10 2 0 0 0 10.936451
2009 4 -14.5100003 -16.4500008 -1.486 0 0 0 2 10 2 0 0 0 12.9621
2020 2 12.1400003 -2.3369999 4.099 0 0 1 1 7 5 0 0 0 12.5804854
2022 5 14.5799999 -11.6300001 19.2600002 0 0 0 0 12 2 0 0 0 12.229497
2027 4 -5.3969998 -2.24 14.1599999 0 0 0 1 12 3 0 0 0 13.4849215
2028 2 -9.0629997 8.1700001 1.196 0 0 0 1 10 3 0 0 0 11.5710526
2050 2 -19.2199993 -18.5 -15.1499996 0 0 0 0 12 2 0 0 0 13.0977383
2055 4 6.5430002 -2.4419999 -10.3400002 0 0 0 1 10 4 0 0 0 12.695282
2056 5 16.2299996 12.1800003 9.9399996 0 0 0 1 10 2 0 0 0 12.7923222
2062 2 8.4720001 16.7999993 -15.1700001 0 0 0 3 6 4 0 0 0 11.6778631
2070 2 -12.4899998 -20.25 -14.54 0 0 1 2 7 2 0 0 0 11.6109009
2073 4 -6.3429999 -13.1800003 -19.8299999 0 0 0 3 6 4 0 0 0 11.11201
2082 2 17.0 16.4599991 11.6300001 0 0 0 1 10 2 0 0 0 11.6742544
2083 4 -5.3579998 -17.8500004 -13.8800002 0 0 0 1 10 2 0 0 0 12.0355463
2087 5 -14.2100001 -7.6989999 -7.2940002 0 0 0 0 12 0 0 0 0 10.8234539
2089 1 16.3199997 -13.3500004 -18.7700005 0 0 0 3 8 1 0 0 0 11.5813837
2093 5 -6.0929999 -12.5299998 11.5100003 0 0 0 0 12 0 0 0 0 11.5168619
2095 4 -3.1470001 -8.0769997 -20.2700005 0 0 0 3 8 2 0 0 0 11.4736243
2106 2 21.9099998 -5.1799998 7.4130001 0 0 0 5 4 3 0 0 0 11.6687126
2112 4 21.6200009 -2.385 9.9399996 0 0 0 1 10 2 0 0 0 12.1595316
2143 2 4.9720002 4.619 16.8899994 0 0 1 3 6 5 1 0 0 13.2729921
2145 1 18.9899998 -21.1399994 -20.1299992 0 0 0 0 12 0 0 0 0 11.3461142
2154 4 17.3600006 14.9700004 -1.635 0 0 0 3 6 3 0 0 0 12.7199326
2160 2 11.4799996 10.5699997 2.731 0 0 0 3 6 4 0 0 0 11.6295805
2167 5 16.7999993 14.5299998 9.5520001 0 0 0 1 10 6 0 0 0 14.0332594
2176 5 7.8070002 14.5799999 0.9426 0 0 0 5 6 1 0 0 0 11.8678714
2178 4 -14.79 -18.4099999 -5.527 0 0 0 2 8 4 0 0 0 13.1350088
2181 4 -10.2700005 9.5089998 16.1100006 0 0 0 5 6 1 0 0 0 11.7397881
2185 2 -19.0699997 -20.7299996 -7.1919999 0 0 0 4 6 5 0 0 0 12.4595051
2187 2 -4.6269999 11.6300001 18.0 0 0 0 0 12 0 0 0 0 11.365921
2197 2 19.7900009 17.2800007 5.9439998 0 0 0 2 8 1 0 0 0 11.1650381
2207 5 11.5699997 -7.7789998 -8.1420002 0 0 0 3 7 3 1 0 0 13.1522389
2212 4 -13.1199999 -3.1210001 -16.9200002 0 0 0 2 8 4 0 0 0 12.2438936
2222 2 0.7869 -21.6399994 3.0639999 0 0 0 1 10 2 0 0 0 11.5322075
2241 4 3.069 -3.882 0.9354 0 0 0 1 10 4 0 0 0 13.2435827
2274 1 -10.1300001 -17.2999992 0.6885 0 0 0 0 12 0 0 0 0 10.7821903
2290 4 -7.2690001 -18.1399994 12.79 0 0 0 2 8 3 0 0 0 12.0672226
2295 1 5.1110001 0.07662 18.2000008 0 0 0 0 12 0 0 0 0 12.0837383
2306 4 21.8899994 8.8219996 4.6810003 0 0 0 1 10 3 0 0 0 12.3164034
2309 5 -8.0530005 -20.7299996 -6.5949998 0 0 0 3 6 6 0 0 0 12.5343094
2315 4 14.6700001 0.7067001 -21.4400006 0 0 0 3 8 2 0 0 0 12.1284332
2324 1 10.2399998 -8.9980002 10.2100001 0 0 1 4 2 5 1 0 0 12.3337402
2334 5 -1.7380001 10.4300003 15.1000004 0 0 0 2 8 4 0 0 0 12.2568531
2341 4 20.5499993 9.2370005 -10.0600004 0 0 0 2 8 4 0 0 0 12.384778
2342 3 0.151 8.3299999 -16.1399994 0 0 0 2 8 4 0 0 0 12.907176
2356 3 17.0699997 -1.27 -10.0600004 0 0 0 2 10 2 0 0 0 12.1248598
2376 5 23.1700001 10.8900004 -18.8799992 0 0 0 3 6 6 0 0 0 11.7350436
2377 4 2.115 -18.4500008 21.2299996 0 0 0 0 12 0 0 0 0 10.5053616
2388 4 -6.0980001 8.9589996 -1.773 0 0 0 4 5 5 1 0 0 12.5567665
2400 2 -15.3100004 0.8811 20.7399998 0 0 0 2 8 2 0 0 0 11.4862461
2411 4 13.8000002 -17.4599991 -2.5209999 0 0 0 3 6 4 0 0 0 11.8564616
2414 1 0.5323 9.448 15.6999998 0 0 0 5 4 5 0 0 0 12.482872
2428 4 -7.1500001 15.0600004 13.96 0 0 0 3 6 5 0 0 0 12.2268734
2437 2 -12.6099997 12.0699997 20.5200005 0 0 0 3 8 1 0 0 0 11.3873863
2438 1 7.7930002 -8.8100004 -1.127 0 0 0 0 12 0 0 0 0 10.882516
2440 4 8.9449998 -11.3500004 -1.238 0 0 0 3 6 6 0 0 0 13.0693312
2465 5 -4.7940002 -8.6009999 6.7989998 0 0 0 2 10 2 0 0 0 11.8705664
2466 2 22.2399998 18.8700008 -22.1499996 0 0 0 0 12 0 0 0 0 11.2464104
2476 1 7.7449999 -20.9599992 19.5400009 0 0 0 3 6 4 0 0 0 11.4716368
2480 4 12.4799996 12.5900002 -20.4099999 0 0 0 2 10 3 0 0 0 12.9096394
2502 4 -8.3360005 -8.4099999 -3.1259999 0 0 1 1 9 0 2 0 0 11.7203026
2504 2 -11.4700003 -7.3629999 -14.8500004 0 0 0 0 12 0 0 0 0 11.2226095
2509 4 -9.7880001 21.2600002 -20.5900002 0 0 0 1 10 4 0 0 0 12.622778
2510 4 21.5900002 0.1198 6.4099999 0 0 0 2 8 5 0 0 0 13.2073135
2511 5 -7.3649998 7.5050001 -3.819 0 0 1 2 7 6 0 0 0 12.5225582
2519 4 5.356 -7.3629999 17.1599999 0 0 0 1 10 2 0 0 0 12.1182556
2520 4 -0.2284 -17.4200001 -6.0819998 0 0 0 3 8 3 0 0 0 12.1457586
2521 2 4.52 6.8379998 13.3699999 0 0 0 1 10 2 0 0 0 11.6741925
2526 2 -6.501 17.9200002 18.3299999 0 0 0 3 6 5 0 0 0 12.5946293
2534 5 -7.6680002 10.3400002 -17.8799992 0 0 1 2 7 3 0 0 0 11.7950583
2535 5 -7.882 -3.0539999 3.929 0 0 0 4 6 5 0 0 0 13.3804474
2577 3 -2.981 -0.7255 10.6099997 0 0 0 2 9 3 1 0 0 12.6975441
2582 2 2.4730001 16.1599999 -11.9300004 0 0 1 2 7 4 0 0 0 11.6522389
2587 4 23.3600006 16.6399994 9.3439999 0 0 0 1 10 4 0 0 0 13.1135016
2588 2 21.3600006 13.6300001 -10.3900004 0 0 1 2 7 4 0 0 0 11.3526812
2590 4 -7.0050001 13.2600002 12.0600004 0 0 0 0 12 3 0 0 0 12.3459072
2594 2 3.2179999 4.7119999 -17.4300003 0 0 1 3 7 3 0 0 0 12.5724364
2600 1 12.0200005 19.3099995 10.4499998 0 0 0 3 6 4 0 0 0 10.9787216
2608 5 0.9214 -8.6899996 9.783 0 0 0 4 4 6 0 0 0 11.9854002
2613 5 -13.2200003 -9.5970001 20.7999993 0 0 0 0 12 3 0 0 0 12.4453793
2615 2 4.5879998 -19.4200001 6.5339999 0 0 0 3 6 3 0 0 0 11.0330353
2648 2 0.6893 -3.921 -14.1199999 0 0 0 3 6 4 0 0 0 11.5408325
2651 4 10.4799996 -19.5100003 9.9230004 0 0 0 0 12 2 0 0 0 12.520752
2659 4 15.3900004 -2.661 -8.8400002 0 0 0 2 10 1 0 0 0 11.965416
2672 2 -12.25 -12.5500002 11.6899996 0 0 2 1 8 4 0 0 0 12.5386849
2677 4 21.3199997 19.2199993 6.2329998 0 0 0 1 10 2 0 0 0 12.0314493
2680 4 14.54 -6.0689998 18.5599995 0 0 0 4 4 6 0 0 0 12.886941
2706 4 13.25 4.87 -12.5299998 0 0 0 1 10 2 0 0 0 12.8659382
2715 4 4.1539998 -3.6310001 18.0 0 0 1 2 6 3 1 0 0 11.8601532
2719 4 -0.4414 -6.5689998 -11.2700005 0 0 0 0 12 0 0 0 0 12.6043797
2723 4 21.4699993 10.3900004 2.909 0 0 0 1 12 3 0 0 0 13.1761398
2741 5 13.0200005 14.2299996 1.253 0 0 1 2 7 3 0 0 0 11.7651892
2771 5 4.6609998 -16.7399998 9.8129998 0 0 0 3 8 2 0 0 0 11.7933531
2773 2 6.626 -16.9500008 -15.4499998 0 0 0 3 6 4 0 0 0 12.1006756
2784 5 -4.9710002 -18.2999992 1.952 0 0 2 2 4 4 2 0 0 12.1733847
2803 5 -11.3199997 -12.3000002 -8.4320002 0 0 3 2 5 4 2 0 0 12.2552071
2805 4 14.0 12.2100001 -2.685 0 0 0 0 12 3 0 0 0 13.2684946
2813 4 -9.5249996 -4.4299999 -10.6499996 0 0 0 4 6 4 0 0 0 12.2501135
2823 4 -2.03 -19.2099991 20.3500004 0 0 0 0 12 2 0 0 0 12.8175135
2840 2 -4.6040001 20.8199997 4.0219998 0 0 0 3 5 4 1 0 0 11.4352627
2848 4 -5.3829999 -5.8990002 6.7360001 0 0 2 3 4 6 0 0 0 13.0147429
2850 4 -4.3119998 6.1329999 11.2200003 0 0 0 0 12 0 0 0 0 12.0309877
2860 1 1.665 0.2559 -18.5300007 0 0 0 2 8 2 0 0 0 10.9017
2862 3 15.6300001 -20.1200008 -10.7600003 0 0 0 1 10 3 0 0 0 12.1584368
2864 4 -3.8169999 19.75 21.0400009 0 0 0 1 10 2 0 0 0 11.6378794
2871 5 -8.908 16.0400009 -12.6400004 0 0 1 1 9 4 0 0 0 12.0457716
2878 2 -0.5019 -4.751 8.8579998 0 0 0 0 12 0 0 0 0 11.6231346
2900 4 2.2579999 6.1770001 -21.2600002 0 0 0 1 10 2 0 0 0 12.4649468
2911 4 2.6080001 20.8899994 -12.4300003 0 0 0 0 12 2 0 0 0 12.3659096
2921 5 18.4400006 -14.0799999 3.77 0 0 0 1 10 3 0 0 0 12.766366
2929 4 -16.1200008 -11.29 -13.1099997 0 0 0 0 12 2 0 0 0 12.4339829
2942 4 -6.7249999 -15.9399996 14.1199999 0 0 0 1 12 2 0 0 0 12.5364056
2945 4 26.1299992 16.3799992 16.3299999 0 0 2 2 7 4 1 0 0 12.498333
2961 4 -0.2828 -8.6879998 -9.8299999 0 0 0 0 12 3 0 0 0 13.2427416
2994 4 -6.5650001 -7.3280001 -1.396 0 0 0 1 10 2 0 0 0 12.2698717
2995 2 6.2280002 -0.5732 15.5699997 0 0 0 2 8 3 1 0 0 12.6581354
2999 2 19.8999996 21.4899998 0.8014 0 0 0 3 8 2 0 0 0 11.8934194
3019 4 19.6200009 17.3799992 -9.04 0 0 0 0 12 4 0 0 0 14.1016617
3020 5 15.6700001 6.829 -19.2199993 0 0 0 5 6 3 0 0 0 12.4625874
3021 5 -5.4450002 -7.6680002 0.7677 0 0 1 0 10 2 0 0 0 11.99475
3024 5 -2.4960001 9.9350004 -21.4300003 0 0 1 1 9 3 0 0 0 12.2590494
3048 4 3.5569999 12.7200003 14.5200005 0 0 0 1 12 2 0 0 0 13.4073229
3056 4 10.2700005 -14.1199999 -7.7030001 0 0 1 5 3 5 2 0 0 13.6763926
3064 2 14.29 -13.79 -19.9400006 0 0 0 3 6 5 0 0 0 11.7563706
3070 4 13.1099997 5.5349999 14.5900002 0 0 0 3 8 3 0 0 0 12.2959938
3072 4 -14.3199997 -2.8640002 -19.0200005 0 0 1 0 9 3 0 0 0 11.6816044
3083 4 -14.8900004 -10.1700001 -7.085 0 0 0 2 8 4 0 0 0 12.6334839
3101 5 19.8700008 1.851 -6.0770001 0 0 1 5 2 4 1 0 0 11.7306662
3110 2 6.6880002 18.8199997 1.845 0 0 1 2 6 3 1 0 0 11.4908018
3119 5 14.0600004 12.1499996 13.8599998 0 0 0 0 12 2 0 0 0 12.3955555
3126 2 -15.5 -1.0470001 17.7399998 0 0 0 2 8 1 0 0 0 11.164423
3129 2 2.7349999 17.0100002 -7.4780002 0 0 0 0 12 0 0 0 0 11.2944212
3137 2 2.98 -1.6690001 -19.1000004 0 0 0 0 12 0 0 0 0 11.6051493
3142 2 -8.7749996 14.7399998 -16.6599999 0 0 0 0 12 0 0 0 0 11.1745663
3145 2 -5.8410002 -19.9099998 -8.9610004 0 0 1 2 6 3 1 0 0 11.0798225
3160 2 19.9599992 -13.5600004 13.5699997 0 0 0 0 12 0 0 0 0 11.0996628
3162 2 26.9599992 15.0200005 18.0699997 0 0 1 2 8 1 1 0 0 11.995369
3164 2 15.4099999 -15.0699997 0.1821 0 0 0 0 12 0 0 0 0 11.4722739
3169 5 -1.6160001 19.0100002 7.1220002 0 0 0 3 5 6 1 0 0 13.160943
3174 4 -5.2179999 -2.2049999 18.2800007 0 0 0 1 12 1 0 0 0 11.3806534
3190 2 1.035 15.6199999 9.1520004 0 0 1 4 5 4 0 0 0 11.7891159
3193 2 16.4200001 2.875 8.7950001 0 0 0 0 12 0 0 0 0 11.7385817
3198 4 5.797 8.6820002 -22.1700001 0 0 0 1 10 2 0 0 0 11.6713887
3219 4 -4.4000001 9.6219998 19.5 0 0 0 1 10 2 0 0 0 12.6944523
3223 4 16.2999992 -14.9899998 -20.75 0 0 1 3 4 6 1 0 0 12.6423073
3231 5 13.3500004 20.1000004 3.1210001 0 0 0 1 10 3 0 0 0 12.069109
3238 5 0.6215 -19.5699997 19.4300003 0 0 0 1 10 4 0 0 0 12.5457287
3242 2 -3.5480001 2.674 13.2200003 0 0 0 1 10 2 0 0 0 11.6426897
3253 5 8.1420002 5.9640002 10.75 0 0 0 1 10 3 0 0 0 12.62776
3257 4 -0.3986 -14.6700001 -21.3600006 0 0 0 2 10 0 0 0 0 11.2723599
3274 2 -1.415 17.4599991 17.5799999 0 0 0 4 5 4 1 0 0 11.8156605
3278 4 14.7399998 -7.5450001 -18.6399994 0 0 1 2 7 2 2 0 0 11.3966932
3282 5 6.8369999 16.5699997 20.5200005 0 0 1 4 5 5 0 0 0 13.2737551
3298 5 -5.7259999 2.4289999 9.125 0 0 1 1 9 3 2 0 0 13.191144
3303 5 -7.7589998 -5.6339998 15.6599999 0 0 0 2 8 2 0 0 0 11.7372809
3313 2 -3.102 -6.4460001 6.1589999 0 0 0 2 8 1 0 0 0 11.337842
3317 5 13.8100004 5.151 1.176 0 0 0 0 12 0 0 0 0 11.1479302
3323 5 12.6999998 15.4399996 -16.3199997 0 0 0 1 10 3 0 0 0 12.4414358
3338 5 -0.376 -3.8069999 -19.3099995 0 0 0 1 10 2 0 0 0 12.0073633
3351 1 -9.0120001 18.9099998 10.7200003 0 0 0 0 12 0 0 0 0 11.2822933
3361 5 -11.3000002 9.1230002 12.6800003 0 0 0 2 10 1 0 0 0 11.4386912
3366 1 6.2340002 20.6599999 -19.8700008 0 0 0 1 10 2 0 0 0 11.7361489
3370 4 8.3540001 2.0009999 6.204 0 0 0 4 4 6 0 0 0 11.75383
3383 4 -12.3699999 2.543 7.3060002 0 0 0 2 8 5 0 0 0 12.8966762
3386 2 -15.1700001 -1.777 9.217 0 0 0 0 12 0 0 0 0 11.3452826
3387 5 -5.8470002 -5.454 -17.0400009 0 0 0 2 8 2 0 0 0 12.2945738
3390 4 14.0299997 16.3099995 15.5100003 0 0 0 3 6 3 2 0 0 12.691742
3403 5 -15.1999998 3.227 -18.1399994 0 0 0 4 6 3 0 0 0 12.0952759
3432 4 4.085 0.619 -18.7099991 0 0 0 1 10 3 0 0 0 12.3554821
3434 2 -9.9659996 1.054 0.4002 0 0 1 2 6 3 1 0 0 11.3131437