ITEM: TIMESTEP
0
ITEM: NUMBER OF ATOMS
50688
ITEM: BOX BOUNDS xy xz yz pp pp pp
-20.3679009 66.2180863 6.3051767
-22.2159996 65.355896 0.0
-22.2159996 65.355896 0.0
ITEM: ATOMS id type x y z VoronoiIndex1 VoronoiIndex2 VoronoiIndex3 VoronoiIndex4 VoronoiIndex5 VoronoiIndex6 VoronoiIndex7 VoronoiIndex8 VoronoiIndex9 AtomicVolume
9 1 -8.0200005 -12.8900004 3.322 0 0 0 0 12 0 0 0 0 11.0098467
23 4 15.3900004 20.8400002 -0.5934 0 0 1 2 8 4 1 0 0 13.4735184
25 2 8.0010004 18.2800007 18.0799999 0 0 0 3 6 4 0 0 0 11.0662785
35 2 21.4400006 14.9399996 -13.2200003 0 0 0 4 10 0 0 0 0 12.8171749
42 2 22.2000008 15.2700005 -9.1569996 0 0 0 2 8 2 0 0 0 10.8018761
57 5 6.8189998 -5.1409998 -19.3700009 0 0 0 1 10 2 0 0 0 11.5280419
71 2 3.378 16.3700009 -13.9799996 0 0 0 2 8 3 0 0 0 11.6630583
80 5 -0.7516001 20.2199993 -15.9300004 0 0 0 4 5 3 1 0 0 12.013464
81 4 15.3500004 -3.997 -9.2950001 0 0 0 0 12 0 0 0 0 11.2913771
82 5 -12.6400004 -15.6800003 -21.3700009 0 0 0 1 10 2 0 0 0 12.1899328
91 2 2.609 17.3199997 -9.8789998 0 0 0 1 9 2 1 0 0 12.1850262
101 1 -6.6180001 -19.5499993 -4.3439999 0 0 0 3 10 1 0 0 0 12.0367699
102 2 -19.75 -15.5799999 -3.24 0 0 0 2 8 2 0 0 0 12.0980625
105 4 3.062 11.5200005 -16.0400009 0 0 0 2 7 3 1 0 0 11.6920939
110 5 -5.6180001 -18.6000004 2.79 0 0 0 1 10 4 0 0 0 12.9116746
112 2 12.9499998 -4.204 15.1999998 0 0 0 2 8 2 0 0 0 11.8608304
128 5 -12.87 -13.0200005 7.1110001 0 0 1 1 10 1 1 0 0 12.2751389
141 5 3.949 6.6900001 -8.9680004 0 0 0 1 10 3 0 0 0 12.969511
147 5 13.2200003 -2.987 11.0699997 0 0 1 1 8 3 1 0 0 12.0768395
157 4 0.6726 20.4799996 13.2299996 0 0 1 3 5 6 0 0 0 12.4497366
159 4 15.6099997 -3.368 14.9799996 0 0 0 3 6 4 0 0 0 11.5854292
168 5 5.2579999 -9.0810003 -15.1400003 0 0 0 1 10 2 0 0 0 11.6629801
171 2 -0.8583 6.1199999 -10.1000004 0 0 0 0 12 0 0 0 0 10.8890114
174 4 -6.501 14.6000004 11.4200001 0 0 0 0 12 0 0 0 0 11.0826178
184 2 14.7600003 -1.99 12.7700005 0 0 0 2 8 2 0 0 0 11.1036043
186 5 14.1300001 11.8199997 -15.8199997 0 0 0 3 8 2 0 0 0 11.4983864
196 5 12.1199999 -8.4130001 -2.1270001 0 0 0 1 10 2 0 0 0 11.58144
214 2 1.77 14.4499998 -17.9500008 0 0 0 3 6 4 0 0 0 11.8622694
217 2 -13.79 -7.1300001 19.3099995 0 0 0 1 10 2 0 0 0 12.0230894
220 2 -17.5699997 -20.1299992 -10.4700003 0 0 0 3 6 3 0 0 0 11.6333876
243 4 3.7430001 0.7268 14.1999998 0 0 1 2 8 3 1 0 0 12.8373137
244 5 13.1400003 -12.8599998 19.1499996 0 0 0 3 10 2 0 0 0 13.2076521
245 1 -7.875 3.04 -21.8500004 0 0 0 3 6 4 0 0 0 11.5319977
247 2 11.4200001 12.9700004 -4.9590002 0 0 0 1 10 2 0 0 0 11.968629
254 2 -7.414 18.1100006 -7.2179999 0 0 0 0 12 0 0 0 0 11.8046913
275 4 16.8500004 -0.9799 12.0 0 0 0 1 10 2 0 0 0 12.5931301
288 5 -10.0699997 12.8199997 21.2700005 0 0 1 2 6 3 1 0 0 11.6989899
291 4 -15.6199999 13.3400002 -13.7399998 0 0 0 2 10 3 0 0 0 12.6989727
295 4 -3.1359999 1.886 -9.4370003 0 0 0 2 10 3 0 0 0 12.3597794
299 5 0.08693 18.1000004 -19.6599999 0 0 0 1 10 2 0 0 0 11.978057
300 2 20.1700001 -8.6470003 1.77 0 0 0 4 4 5 0 0 0 11.8849288
313 5 1.08 -14.8000002 3.8020001 0 0 1 1 9 4 0 0 0 12.8253594
314 5 -14.6000004 -21.5100003 3.6860001 0 0 0 2 12 1 0 0 0 13.0301847
327 4 -0.7388 -3.3429999 15.0900002 0 0 0 2 10 4 0 0 0 13.6748371
335 1 -8.151 16.9699994 -15.2399998 0 0 0 1 10 2 0 0 0 11.1993904
348 4 -8.3509998 2.1359999 11.7700005 0 0 0 1 10 2 0 0 0 11.3158512
360 4 13.0 -21.7199993 -7.691 0 0 0 2 8 7 0 0 0 13.6262636
364 4 -7.8309999 4.1149998 -15.3900004 0 0 1 5 2 5 1 0 0 13.5145026
387 4 17.2099991 -12.04 0.8609 0 0 0 1 12 1 0 0 0 12.6972409
397 1 -6.8150001 0.369 19.0 0 0 0 2 7 2 1 0 0 12.0370617
401 4 -14.1300001 12.8299999 11.4899998 0 0 0 0 12 2 0 0 0 12.8080521
410 4 9.4040003 -4.8260002 7.593 0 0 0 2 10 2 0 0 0 12.3435288
412 1 -5.4499998 12.4399996 -7.5300002 0 0 0 0 10 2 0 0 0 11.471716
415 2 -6.9200002 1.23 -13.1199999 0 0 0 1 10 2 0 0 0 11.638197
419 2 6.645 -10.75 -11.1800003 0 0 0 3 6 6 0 0 0 12.2218475
420 5 11.2700005 -10.6899996 -10.6099997 0 0 0 3 6 4 0 0 0 11.9222946
432 5 4.8449998 8.4169998 8.1940003 0 0 0 1 10 3 0 0 0 11.8271494
438 4 -11.3000002 -19.9300004 16.2199993 0 0 0 2 8 4 0 0 0 13.1555348
439 4 -6.5190001 19.7999993 -16.0400009 0 0 0 6 2 6 0 0 0 12.9902678
442 4 6.0040002 16.5900002 -18.2299996 0 0 0 0 12 2 0 0 0 12.1219559
446 4 -17.4400006 6.0640001 3.6329999 0 0 0 3 6 4 0 0 0 11.6543293
453 4 2.0550001 0.608 7.8649998 0 0 0 1 10 3 0 0 0 12.8723098
459 4 -9.1780005 0.5528 -21.3500004 0 0 0 1 10 4 0 0 0 13.2352324
475 2 -0.8469 21.2600002 11.1999998 0 0 0 3 6 4 0 0 0 12.715169
477 5 -11.7700005 -4.5100003 -3.359 0 0 0 4 6 5 0 0 0 12.5766115
485 4 8.0410004 4.1129999 -15.3500004 0 0 2 0 12 0 0 0 0 12.2340937
515 5 1.081 -14.7799998 16.9599992 0 0 1 0 11 3 0 0 0 12.2798567
520 5 7.1560001 -17.1399994 11.3100004 0 0 0 3 8 3 0 0 0 12.8091126
533 4 11.9099998 4.4660001 -4.6680002 0 0 0 0 12 4 0 0 0 13.2706919
537 2 17.8199997 8.4639998 -9.3809996 0 0 0 2 8 1 0 0 0 10.816268
539 2 -6.4419999 7.2389999 -21.8500004 0 0 0 2 8 2 0 0 0 11.8186999
540 5 -6.8039999 -17.7600003 0.5733 0 0 0 0 12 0 0 0 0 10.7674017
550 4 9.9259996 -10.8900004 12.3100004 0 0 0 1 10 3 0 0 0 12.2014895
562 2 5.2930002 -13.3800001 -21.75 0 0 0 0 12 0 0 0 0 11.4019547
564 4 15.75 -1.466 16.8099995 0 0 0 3 6 5 0 0 0 11.1290245
567 4 8.8149996 -14.3400002 20.8600006 0 0 0 0 12 0 0 0 0 10.7225294
574 5 18.8899994 -16.7099991 -12.9799996 0 0 0 1 10 2 0 0 0 12.305666
576 5 -15.8299999 6.7199998 -17.2199993 0 0 0 0 12 0 0 0 0 12.227191
580 2 17.6700001 -16.4400006 -10.75 0 0 0 3 6 5 0 0 0 11.9008552
585 4 13.1899996 -9.5369997 -11.7299996 0 0 0 2 10 2 0 0 0 12.5543165
603 5 -8.3079996 -19.5 -0.3001 0 0 0 3 6 4 0 0 0 11.6231661
620 4 2.264 15.75 8.0979996 0 0 1 1 9 3 0 0 0 11.7207976
622 5 3.24 -5.401 5.4959998 0 0 0 1 12 1 0 0 0 12.6084357
642 4 -4.3169999 2.1240001 -20.2199993 0 0 0 2 10 3 0 0 0 12.8415146
643 5 16.4099999 -0.2298 -17.4899998 0 0 0 3 6 4 0 0 0 11.3837805
650 2 19.2199993 -13.0 17.3600006 0 0 0 0 12 0 0 0 0 11.6980286
653 4 1.8 -17.3500004 3.5869999 0 0 0 1 12 3 0 0 0 13.9996234
654 4 2.721 -9.0760002 -0.6642 0 0 0 2 8 4 0 0 0 12.7413283
656 4 8.2320004 -14.5600004 15.2399998 0 0 0 1 12 1 0 0 0 12.3618574
666 4 -8.2440004 -10.8400002 -0.3203 0 0 0 1 10 3 0 0 0 12.4438725
671 2 19.7800007 -1.025 17.3199997 0 0 0 0 12 0 0 0 0 10.809619
673 2 10.9899998 5.349 12.5500002 0 0 0 0 12 0 0 0 0 11.6667824
679 4 10.3400002 12.9700004 17.5400009 0 0 1 0 11 1 0 0 0 11.145318
683 5 -5.3530002 10.8400002 18.7800007 0 0 1 1 8 3 1 0 0 11.9878532
687 5 16.0 -10.6899996 19.7700005 0 0 0 5 6 1 0 0 0 11.4932719
694 5 -15.04 15.5299998 5.3150001 0 0 0 1 10 4 0 0 0 12.8152313
706 5 -18.6200009 -0.9687 1.564 0 0 0 3 6 4 0 0 0 12.4924155
716 4 2.1229999 3.7839999 4.2950001 0 0 1 2 9 2 0 0 0 11.8863164
717 4 8.2519999 -20.2999992 1.975 0 0 2 0 10 4 0 0 0 12.6631756
728 5 6.4450002 -0.06777 3.681 0 0 0 1 12 2 0 0 0 13.1286678
745 4 3.3529999 -15.8400002 -17.3299999 0 0 0 2 8 4 0 0 0 13.3639441
761 5 -4.0380001 11.5799999 -12.6499996 0 0 0 1 10 2 0 0 0 12.8212061
770 4 -17.0799999 -19.6499996 18.9699994 0 0 0 2 8 4 0 0 0 11.9667616
775 2 -0.9885 -14.4200001 21.4200001 0 0 1 0 9 3 0 0 0 11.7787047
776 4 20.3600006 6.54 4.9959998 0 0 1 0 11 1 0 0 0 11.340312
781 4 -5.0240002 -20.5599995 -11.3400002 0 0 1 2 6 4 1 1 0 12.9611092
787 2 -18.7399998 -12.3400002 14.7799998 0 0 0 2 10 0 0 0 0 10.9418058
798 5 -6.9239998 20.7299996 -3.774 0 0 0 3 8 4 0 0 0 12.1048422
806 4 -6.5619998 4.3520002 16.6800003 0 0 2 3 3 4 1 1 0 12.428772
841 5 -10.5500002 21.3199997 -11.3699999 0 0 1 4 5 2 2 0 0 11.9839822
843 2 4.4289999 -4.1570001 -8.1359997 0 0 0 4 6 2 0 0 0 11.3460188
846 3 20.0900002 -14.8400002 -14.3400002 0 0 0 1 10 2 0 0 0 11.3835764
864 2 7.046 -3.876 1.321 0 0 0 2 8 2 0 0 0 11.8623992
897 5 7.3839998 -4.8920002 11.1300001 0 0 0 2 8 2 0 0 0 11.1503286
917 5 10.9099998 -13.6300001 20.2600002 0 0 0 0 12 0 0 0 0 11.4248467
947 5 -16.4500008 14.7600003 -11.8900004 0 0 0 1 10 2 0 0 0 11.8425752
949 2 14.9200002 3.3210001 21.1200008 0 0 0 1 10 2 0 0 0 11.7684679
952 2 12.25 0.3642 0.9211 0 0 0 0 12 2 0 0 0 12.183342
961 2 0.7928 -20.8199997 -5.0539999 0 0 0 4 6 2 0 0 0 11.3569136
980 2 0.2515 20.1700001 16.8899994 0 0 0 0 12 0 0 0 0 11.2374735
990 4 6.6900001 -14.8100004 -20.3999996 0 0 0 1 10 2 0 0 0 11.7490235
996 5 15.6800003 -9.3850002 15.8900004 0 0 0 0 12 0 0 0 0 10.9182148
999 4 2.6659999 9.0220003 -9.8350001 0 0 0 2 12 1 0 0 0 12.6293564
1009 5 9.5100003 10.75 17.9200002 0 0 0 0 12 0 0 0 0 10.9300804
1023 2 18.9099998 -3.2509999 -16.0699997 0 0 0 1 10 3 0 0 0 12.2546044
1027 4 -4.441 -11.6400004 17.5200005 0 0 1 2 8 2 1 1 0 12.3683577
1034 4 14.2600002 6.777 -14.3299999 0 0 0 1 10 2 0 0 0 11.6363716
1039 5 10.9799996 10.1800003 -21.25 0 0 2 2 5 3 1 1 0 11.8032789
1040 1 9.3129997 -14.8000002 -20.6900006 0 0 1 2 6 2 1 0 0 10.7413607
1053 4 -15.04 -0.8286 0.1703 0 0 0 0 12 2 0 0 0 12.446661
1063 5 19.7199993 -20.1399994 -15.3400002 0 0 0 1 10 2 0 0 0 12.0903778
1067 3 19.3400002 -6.7410002 -18.9799996 0 0 0 2 8 4 0 0 0 12.724474
1068 5 -3.3940001 4.3280001 -2.5090001 0 0 1 1 11 1 0 0 0 12.0923214
1087 4 -12.5200005 17.1800003 -0.05991 0 0 0 4 6 5 0 0 0 13.3450832
1089 4 -1.6260001 -8.0830002 4.0809999 0 0 0 2 8 4 0 0 0 12.806221
1091 5 0.7265 -17.0400009 8.224 0 0 1 2 7 3 0 0 0 12.2505045
1094 5 11.0799999 2.1340001 19.1900005 0 0 0 1 10 2 0 0 0 11.30618
1101 4 -5.9840002 -17.5300007 9.8350001 0 0 1 2 7 3 2 0 0 12.1425295
1111 4 -11.6000004 -18.9300004 20.6399994 0 0 0 1 10 4 0 0 0 12.8064413
1113 4 14.6599999 4.4640003 18.75 0 0 0 2 8 4 0 0 0 11.5544367
1119 4 19.7299996 -7.158 20.1499996 0 0 0 3 6 4 0 0 0 12.2695665
1127 2 -4.9250002 14.4799996 -2.949 0 0 0 3 6 2 2 0 0 12.2890959
1129 2 18.2199993 19.5599995 20.0300007 0 0 1 0 11 1 0 0 0 11.3757897
1143 5 -3.635 10.6400004 -0.2461 0 0 0 0 12 2 0 0 0 12.0096836
1147 4 -10.7100001 1.113 -10.5200005 0 0 0 3 6 5 0 0 0 11.6424017
1152 2 -9.8009997 -13.1300001 -7.698 0 0 0 1 10 4 0 0 0 12.849679
1158 2 4.0430002 12.8800002 13.2100001 0 0 0 0 12 0 0 0 0 11.276371
1161 4 11.5299998 -1.689 -3.0480001 0 0 0 1 10 4 0 0 0 12.9656144
1171 5 0.6371 -1.471 14.0200005 0 0 0 0 12 0 0 0 0 11.3086405
1175 4 7.4439998 16.3299999 15.9499998 0 0 0 0 12 3 0 0 0 12.469801
1185 2 10.3199997 -4.6240001 -21.2800007 0 0 0 0 12 0 0 0 0 11.5096779
1190 2 -7.2740002 -16.3400002 -15.75 0 0 0 4 4 4 0 0 0 10.8325663
1191 4 -12.4399996 20.2099991 -12.6899996 0 0 0 3 8 3 0 0 0 12.6400957
1196 2 14.4099999 21.3999996 -18.8999996 0 0 0 3 6 3 0 0 0 11.9973832
1206 1 -16.1599999 19.2299996 10.29 0 0 0 2 8 2 0 0 0 11.5752526
1207 5 11.7600003 17.6599999 18.3500004 0 0 0 1 10 2 0 0 0 11.2502642
1208 4 15.7200003 17.2900009 -4.7160001 0 0 0 4 6 3 0 0 0 12.1608191
1212 4 10.6499996 -3.698 11.3000002 0 0 2 3 4 4 2 0 0 12.7715521
1214 5 18.7000008 4.1750002 15.6700001 0 0 0 1 10 2 0 0 0 11.4982176
1216 1 10.6899996 20.8899994 -13.5600004 0 0 0 2 8 3 0 0 0 11.4996119
1217 5 -7.204 9.915 3.346 0 0 0 0 12 0 0 0 0 11.4963532
1226 4 11.87 18.6299992 -16.1599999 0 0 1 1 9 3 0 0 0 12.3641482
1232 4 -16.6599999 5.9260002 -8.6999998 0 0 0 0 12 3 0 0 0 12.8282957
1246 4 10.6899996 10.6800003 -10.9399996 0 0 0 1 10 5 0 0 0 13.1917238
1249 2 -6.2729998 -8.5509997 21.0100002 0 0 0 4 6 2 0 0 0 11.4375859
1250 2 -5.7049999 10.6199999 6.5450001 0 0 0 1 12 1 0 0 0 12.7897272
1252 4 -13.3400002 -17.5200005 -19.2800007 0 0 0 1 10 4 0 0 0 12.7173872
1258 4 -16.8199997 17.0300007 11.3299999 0 0 0 1 10 4 0 0 0 12.7999764
1261 4 7.421 -1.7230001 -0.3906 0 0 0 1 12 2 0 0 0 12.6173373
1269 5 -12.8500004 -19.0100002 -6.5040002 0 0 0 1 10 4 0 0 0 12.4571228
1270 2 0.7905 5.4650002 0.3059 0 0 0 2 8 2 0 0 0 11.4338217
1295 4 -0.7716 -22.2000008 -3.848 0 0 0 5 6 3 0 0 0 12.2874279
1305 5 -0.4609 16.3500004 14.3199997 0 0 0 1 10 2 0 0 0 12.0490398
1306 5 -3.1949999 15.6999998 -8.7519999 0 0 0 2 8 3 2 0 0 12.8207655
1318 5 0.3482 -3.1570001 -12.7700005 0 0 0 3 8 2 0 0 0 11.9497738
1325 4 18.1399994 21.2099991 3.932 0 0 1 1 9 3 0 0 0 12.871892
1328 2 6.3109999 13.1999998 -5.507 0 0 1 2 7 4 0 0 0 11.7907906
1335 5 -2.9590002 -0.8035 20.3099995 0 0 0 1 10 2 0 0 0 12.0203371
1337 4 17.8500004 -13.6499996 -7.704 0 0 0 3 6 4 0 0 0 11.4863806
1340 4 15.5299998 14.5900002 -0.3448 0 0 0 1 12 2 0 0 0 13.0466194
1352 4 -15.5500002 -20.9500008 17.6399994 0 0 0 0 12 3 0 0 0 13.2232952
1357 5 18.4599991 -9.7580004 -4.975 0 0 0 0 12 3 0 0 0 13.2654886
1371 4 18.1200008 8.7860003 -1.497 0 0 0 0 12 0 0 0 0 10.8288241
1374 4 18.1399994 -7.4759999 1.347 0 0 0 2 8 5 0 0 0 12.4972525
1386 2 8.7539997 0.9675 4.6669998 0 0 0 4 6 2 0 0 0 11.519392
1387 3 -17.3600006 10.04 21.0400009 0 0 0 2 8 4 0 0 0 11.7703724
1388 5 13.7399998 -3.3940001 -7.4390002 0 0 0 0 10 2 0 0 0 11.2760334
1393 4 5.283 -6.895 5.0619998 0 0 0 1 10 2 0 0 0 11.9686728
1415 4 3.845 -13.9700004 -2.0239999 0 0 1 3 7 5 0 0 0 12.8421002
1419 4 14.4499998 -18.4099999 -13.2100001 0 0 1 3 7 3 0 0 0 12.6088152
1431 4 -16.5200005 -8.0469999 2.4260001 0 0 0 0 12 4 0 0 0 13.2665053
1433 5 3.0580001 -5.3379998 15.4399996 0 0 0 4 4 7 0 0 0 12.3269768
1444 4 -4.0970001 1.137 10.87 0 0 0 0 12 3 0 0 0 12.6015034
1447 4 5.6799999 -20.4200001 14.7700005 0 0 0 2 8 5 0 0 0 13.2719908
1450 1 19.2600002 5.0929999 -6.2589998 0 0 1 2 7 3 0 0 0 11.5940972
1452 4 -7.4580002 -9.2110005 -19.4799996 0 0 0 2 10 2 0 0 0 12.4281492
1469 2 5.6079998 -17.4699993 -1.364 0 0 0 2 8 3 0 0 0 11.8077145
1471 5 -15.1300001 -20.0900002 -10.1499996 0 0 0 4 4 4 0 0 0 11.2721768
1487 4 3.8350001 -16.6200009 -8.96 0 0 0 2 8 4 0 0 0 12.9358416
1504 5 10.9799996 4.7459998 -16.7900009 0 0 2 2 6 4 0 0 0 12.5842858
1516 2 17.6000004 18.1499996 -3.086 0 0 0 3 6 4 0 0 0 11.6776057
1533 2 9.7080002 0.8602 -5.8990002 0 0 0 0 12 0 0 0 0 12.194438
1534 4 8.3009997 15.29 1.05 0 0 1 3 6 4 1 0 0 12.7387629
1543 1 -15.6400004 -16.6599999 5.487 0 0 0 3 8 2 0 0 0 11.4552155
1548 4 13.1000004 -16.3899994 16.6100006 0 0 0 2 8 2 2 0 0 12.8908788
1550 4 -1.6260001 -14.5600004 -12.9700004 0 0 0 3 6 6 0 0 0 12.2638798
1561 4 -13.1599999 4.4439998 4.3049998 0 0 0 3 6 4 0 0 0 11.9415246
1566 1 9.2840004 0.9765 -8.6180001 0 0 0 1 12 2 0 0 0 13.0452328
1581 2 4.7540002 8.3120003 -4.027 0 0 1 0 11 1 0 0 0 11.98596
1584 2 20.2399998 18.5900002 19.1299992 0 0 0 0 12 0 0 0 0 10.800726
1585 3 -6.4239998 -19.2999992 14.79 0 0 0 0 12 0 0 0 0 11.5704775
1595 5 4.0609999 0.5921 -12.54 0 0 0 3 6 5 0 0 0 12.4473496
1605 5 8.4230004 -5.7220001 0.1493 0 0 0 2 8 4 0 0 0 12.5809574
1618 4 -0.06795 -6.6869998 21.1399994 0 0 0 1 10 5 0 0 0 13.1697187
1622 4 8.8660002 13.7600003 -1.661 0 0 1 0 10 4 1 0 0 14.049016
1625 4 9.8120003 -7.2820001 8.4429999 0 0 0 2 10 3 0 0 0 12.8479052
1630 4 2.3199999 -16.7999993 12.6000004 0 0 0 2 10 3 0 0 0 13.1246014
1632 4 0.7031001 -5.5159998 -13.2100001 0 0 0 2 8 4 0 0 0 12.2977181
1644 4 6.3870001 12.1599999 13.8000002 0 0 0 0 12 3 0 0 0 13.1473856
1667 4 -4.264 8.3170004 -9.073 0 0 0 3 7 3 1 0 0 12.3090468
1672 4 10.8299999 -19.5699997 -20.3700009 0 0 0 1 10 2 0 0 0 12.0614347
1687 5 16.1599999 -1.027 14.5799999 0 0 0 3 6 4 0 0 0 11.6192866
1694 2 18.2199993 -1.178 3.3800001 0 0 0 0 12 0 0 0 0 11.3407793
1699 4 19.0599995 -7.9959998 8.2419996 0 0 0 3 8 2 0 0 0 11.8191004
1700 5 12.5699997 11.8400002 20.4200001 0 0 0 1 10 2 0 0 0 12.7626724
1705 1 -0.4914 -15.1000004 -0.2083 0 0 0 1 10 2 0 0 0 11.6468888
1707 4 17.4799996 4.2940002 -12.3500004 0 0 1 2 7 4 0 0 0 12.5175038
1712 2 16.0200005 -14.5 -20.3999996 0 0 0 0 12 0 0 0 0 10.58352
1714 4 18.0499992 0.2508 16.2399998 0 0 0 1 10 2 0 0 0 11.7411537
1724 2 -2.342 -0.09456 -12.6700001 0 0 0 3 6 4 0 0 0 11.5279417
1730 5 -2.8180001 -2.684 18.7700005 0 0 0 3 8 4 0 0 0 12.4252901
1733 1 -5.342 -15.4899998 19.2600002 0 0 0 0 12 0 0 0 0 11.6280289
1737 4 14.0799999 -20.4599991 -0.5553 0 0 0 0 12 0 0 0 0 11.0632725
1743 4 -4.2179999 -18.3099995 0.5454 0 0 0 0 12 2 0 0 0 12.1024323
1745 4 -12.96 -21.6499996 16.9899998 0 0 0 2 8 4 0 0 0 12.1913977
1750 4 1.596 3.6340001 -1.178 0 0 0 3 6 5 0 0 0 12.7454977
1751 4 -0.1118 -12.5200005 -3.099 0 0 0 4 8 2 0 0 0 12.3878641
1772 2 -5.8530002 21.1299992 -20.1700001 0 0 0 0 12 0 0 0 0 10.963727
1773 5 12.6499996 1.291 21.1599999 0 0 0 2 8 4 0 0 0 12.9928818
1796 2 13.04 -8.1929998 -20.6299992 0 0 0 0 12 0 0 0 0 11.3817129
1803 2 16.0400009 -4.9250002 -6.777 0 0 1 2 7 5 0 0 0 12.3583269
1805 4 21.1399994 16.2600002 -18.1900005 0 0 0 2 10 0 0 0 0 11.7940922
1813 4 -13.6899996 -2.5869999 -8.5869999 0 0 0 0 12 3 0 0 0 13.1462689
1834 4 19.0599995 17.2800007 21.0699997 0 0 0 1 10 4 0 0 0 13.4905997
1837 4 -14.7100001 11.1499996 -19.0100002 0 0 0 0 12 4 0 0 0 13.2564583
1838 2 6.8990002 17.8099995 -2.938 0 0 0 1 10 2 0 0 0 11.1557417
1847 4 19.2900009 -15.9799996 -18.25 0 0 0 2 8 5 0 0 0 12.4437685
1849 5 -1.4930001 -8.1750002 -12.5100003 0 0 0 2 8 4 0 0 0 11.8270378
1853 2 19.7399998 21.1499996 -12.4899998 0 0 0 0 12 0 0 0 0 11.5156489
1854 4 16.8500004 -7.0780001 8.1999998 0 0 0 0 12 0 0 0 0 11.2450266
1860 2 -7.4289999 -5.435 -16.7299996 0 0 0 1 10 2 0 0 0 11.904091
1865 2 -15.3400002 -8.6160002 14.7799998 0 0 0 0 12 0 0 0 0 10.8504478
1868 4 -12.7299996 5.8119998 6.8740002 0 0 0 1 10 2 2 0 0 12.9340668
1873 4 15.25 -19.7600003 -8.3109999 0 0 0 0 11 1 0 0 0 11.547329
1880 5 8.8839998 -19.3999996 20.1399994 0 0 0 1 10 2 0 0 0 11.7730618
1890 4 -10.3299999 -21.1200008 7.8210001 0 0 0 2 8 4 0 0 0 12.1319056
1893 2 11.3000002 -11.1199999 1.122 0 0 0 0 12 0 0 0 0 10.979869
1898 5 -11.8299999 16.9599992 20.8600006 0 0 0 0 12 0 0 0 0 11.3906164
1911 4 17.1399994 -13.4499998 5.6459999 0 0 0 3 8 2 0 0 0 12.1054487
1921 4 13.7399998 16.0400009 4.2810001 0 0 0 3 6 4 0 0 0 12.0578327
1925 2 15.3999996 -20.0 -15.1800003 0 0 2 2 6 4 0 0 0 12.0370379
1926 4 -2.3940001 7.0630002 -8.2379999 0 0 0 0 12 2 0 0 0 12.4674168
1928 4 -1.387 5.4039998 1.201 0 0 0 1 10 4 0 0 0 13.0937042
1934 4 -3.2119999 16.5400009 -6.4250002 0 0 4 2 3 3 3 0 0 12.1557245
1935 4 6.7740002 -2.1470001 5.9109998 0 0 0 0 12 0 0 0 0 11.250516
1938 4 -3.787 -3.484 -9.6140003 0 0 0 1 10 2 0 0 0 11.7539444
1943 5 -7.6479998 20.2999992 -18.3600006 0 0 0 1 10 3 0 0 0 12.3588915
1947 5 -5.4780002 0.9791 17.1800003 0 0 1 3 5 5 0 0 0 12.5885239
1948 4 -3.747 -4.8449998 -11.4399996 0 0 0 0 12 2 0 0 0 12.1551628
1954 5 -7.9910002 -10.5200005 14.1599999 0 0 0 1 10 2 0 0 0 11.8663492
1986 4 -3.9960002 9.8339997 12.0299997 0 0 0 1 10 3 0 0 0 12.5182858
1993 5 -10.8199997 -8.3389998 -17.4400006 0 0 0 1 10 2 0 0 0 12.0926371
1996 4 -4.764 14.7600003 6.975 0 0 0 1 10 2 0 0 0 12.2954807
1998 2 -1.543 3.197 7.3309999 0 0 0 2 8 4 0 0 0 12.3928328
2001 4 9.9720002 -5.876 5.4720001 0 0 1 1 8 5 1 0 0 13.1716538
2006 5 -11.79 -10.9899998 -20.3899994 0 0 1 4 4 4 1 1 0 12.5472708
2009 4 -10.5200005 -18.3700009 -1.527 0 0 0 0 12 2 0 0 0 12.3178654
2020 2 14.4899998 -3.224 4.0479999 0 0 1 1 9 3 0 0 0 11.9982596
2022 5 18.0100002 -12.3500004 19.4899998 0 0 0 0 12 2 0 0 0 12.5075989
2027 4 -2.967 -4.2810001 14.1499996 0 0 0 1 10 3 0 0 0 11.7229138
2028 2 -7.9190002 6.6929999 0.9754 0 0 1 1 9 3 0 0 0 11.8961402
2050 2 -13.2700005 -20.1800003 -15.9399996 0 0 2 1 7 3 1 0 0 11.1742449
2052 5 -13.1899996 19.4099999 3.1670001 0 0 0 0 12 2 0 0 0 12.5248604
2055 4 8.5039997 -4.3600001 -10.1000004 0 0 1 1 8 4 1 0 0 12.8457156
2056 5 16.8400002 11.3000002 9.7690001 0 0 1 1 9 3 0 0 0 12.7781573
2062 2 8.9040004 15.0900002 -15.3800001 0 0 0 2 8 2 0 0 0 11.8334246
2073 4 -2.5650001 -14.8400002 -19.5900002 0 0 0 1 10 3 0 0 0 12.8179188
2081 5 -15.0900002 -15.0600004 1.5700001 0 0 0 0 12 2 0 0 0 12.0993176
2082 2 17.3700009 15.6300001 11.5100003 0 0 0 2 10 0 0 0 0 11.034503
2083 4 -1.291 -19.7199993 -13.75 0 0 0 1 10 3 0 0 0 12.5480976
2087 5 -10.6599999 -9.0170002 -6.6659999 0 0 0 2 8 4 0 0 0 12.4896775
2089 1 20.1700001 -13.75 -18.9099998 0 0 1 3 4 4 1 0 0 11.5597639
2093 5 -2.5850001 -15.3999996 11.54 0 0 0 0 12 0 0 0 0 11.542677
2095 4 -0.4914 -10.4399996 -19.9799996 0 0 1 0 11 4 0 0 0 13.2087784
2096 5 -17.3199997 -5.5739999 12.6300001 0 0 1 2 6 4 1 0 0 11.875351
2107 5 -15.8299999 15.0500002 -7.6360002 0 0 1 4 3 6 0 0 0 12.4938183
2143 2 6.3930001 2.882 16.9300004 0 0 1 2 9 3 0 0 0 12.4614258
2154 4 17.8600006 14.2799997 -1.679 0 0 0 2 8 4 0 0 0 12.8671036
2160 2 12.25 8.9860002 2.6960001 0 0 1 3 5 5 0 0 0 11.7846737
2167 5 17.6100006 13.8800002 9.5240002 0 0 0 4 7 5 1 0 0 13.996173
2176 5 8.4619999 12.8900004 0.8451 0 0 1 4 4 4 1 0 0 12.0634766
2178 4 -10.4399996 -20.1700001 -5.6589999 0 0 0 0 12 3 0 0 0 13.3211889
2181 4 -8.7589998 8.3179999 15.5799999 0 0 0 0 12 2 0 0 0 12.1982899
2185 2 -14.2100001 -20.9899998 -6.928 0 0 0 3 6 3 0 0 0 11.3454619
2187 2 -3.6310001 9.4230004 18.1900005 0 0 0 1 10 2 0 0 0 11.232914
2197 2 19.9599992 17.0400009 6.0560002 0 0 0 2 8 1 0 0 0 11.2787581
2207 5 14.9399996 -9.632 -7.6640001 0 0 0 3 8 3 0 0 0 12.5364685
2212 4 -10.1700001 -5.7449999 -17.1900005 0 0 1 2 6 5 1 0 0 12.1242104
2241 4 5.4390002 -5.7810002 0.9897 0 0 0 1 10 4 0 0 0 13.1003361
2274 1 -6.263 -19.8600006 0.7639 0 0 0 3 6 4 0 0 0 10.9875604
2290 4 -3.174 -20.7099991 12.8000002 0 0 1 1 9 3 0 0 0 12.5927401
2291 2 -12.3100004 16.1700001 -14.6599999 0 0 0 2 8 3 0 0 0 11.4106894
2295 1 7.6939998 -2.6960001 18.4300003 0 0 0 5 6 2 0 0 0 12.0100355
2315 4 16.6100006 0.05488 -21.4599991 0 0 0 3 8 2 0 0 0 11.7221651
2324 1 13.3299999 -10.2700005 10.1099997 0 0 1 3 5 3 2 0 0 12.6264544
2325 4 -15.6400004 -6.2909999 -6.6799999 0 0 1 2 7 4 0 0 0 11.5523148
2333 2 8.257 21.0900002 19.6599999 0 0 0 1 10 2 0 0 0 11.6218291
2334 5 -1.081 8.4020004 14.8299999 0 0 0 3 6 4 0 0 0 12.7658358
2341 4 21.5400009 8.7069998 -9.7919998 0 0 0 2 8 4 0 0 0 12.0929737
2342 3 1.66 6.0929999 -15.8199997 0 0 0 1 10 2 0 0 0 11.9703608
2346 4 -15.4700003 -1.887 4.4770003 0 0 0 1 10 5 0 0 0 13.6839066
2356 3 19.4400006 -2.1630001 -9.9630004 0 0 1 2 7 5 0 0 0 12.4542027
2377 4 6.3730002 -20.3600006 21.1100006 0 0 0 0 12 0 0 0 0 11.1880436
2388 4 -4.9770002 6.981 -2.2969999 0 0 0 0 12 4 0 0 0 13.3657189
2389 2 -14.6899996 -15.75 -17.5599995 0 0 0 1 10 3 0 0 0 12.5005636
2400 2 -13.2100001 -0.4804 20.3099995 0 0 0 4 4 6 0 0 0 11.0625973
2409 5 -6.2810001 21.0200005 19.6399994 0 0 0 0 12 0 0 0 0 11.847149
2411 4 18.2199993 -18.6900006 -3.0369999 0 0 0 3 6 4 0 0 0 11.3403673
2414 1 1.625 7.0159998 15.3999996 0 0 0 2 10 1 0 0 0 12.1193647
2428 4 -7.4780002 13.9700004 13.4899998 0 0 0 0 12 0 0 0 0 11.4600916
2437 2 -11.3000002 9.934 18.5799999 0 0 0 4 6 3 0 0 0 11.0796776
2438 1 10.8299999 -10.2600002 -1.227 0 0 0 0 12 0 0 0 0 10.534111
2440 4 12.0299997 -12.54 -0.9156 0 0 0 2 8 4 0 0 0 12.4653006
2465 5 -1.354 -10.0200005 8.0889998 0 0 0 2 8 4 0 0 0 12.840045
2476 1 12.5900002 -22.1399994 19.5200005 0 0 0 3 6 4 0 0 0 11.4327107
2480 4 13.3299999 11.3699999 -20.2399998 0 0 1 0 11 4 0 0 0 12.9628258
2502 4 -6.4299999 -10.8299999 -1.833 0 0 0 3 6 5 0 0 0 11.9029218
2504 2 -9.0860004 -9.7220001 -14.4600001 0 0 0 0 12 0 0 0 0 11.186162
2509 4 -8.7740002 17.4300003 -21.4300003 0 0 0 2 10 3 0 0 0 12.6570091
2511 5 -6.1719999 6.5520001 -4.8940002 0 0 1 0 11 1 0 0 0 11.683733
2519 4 8.5310002 -9.0939999 17.2800007 0 0 0 1 10 2 0 0 0 12.6980286
2520 4 3.273 -19.6299992 -5.982 0 0 0 1 10 4 0 0 0 12.1321955
2521 2 5.923 5.1609998 13.4899998 0 0 0 3 6 5 0 0 0 11.9740258
2526 2 -5.8639998 15.4600001 17.9699994 0 0 1 2 5 4 0 0 0 11.3375139
2534 5 -6.7480002 8.764 -17.4400006 0 0 0 2 8 4 0 0 0 12.2151318
2535 5 -5.1620002 -5.0650001 3.9890002 0 0 0 2 10 4 0 0 0 13.3515949
2565 4 -7.3569999 9.6379996 -22.1700001 0 0 0 2 10 2 0 0 0 12.0910645
2577 3 -0.5251 -3.5550001 10.5600004 0 0 0 0 12 4 0 0 0 13.851656
2582 2 2.7360001 13.5600004 -11.5600004 0 0 0 1 10 2 0 0 0 12.0736256
2588 2 21.9599992 13.2200003 -10.25 0 0 1 2 7 4 0 0 0 11.7151442
2590 4 -6.79 10.7700005 11.3999996 0 0 0 0 12 2 0 0 0 12.6938238
2592 3 -12.6099997 14.9099998 -20.5 0 0 0 4 6 3 0 0 0 11.4634247
2594 2 4.8210001 2.95 -17.1599999 0 0 0 2 7 2 1 0 0 12.0637455
2595 5 -17.1900005 -15.7299996 3.2509999 0 0 0 1 9 2 1 0 0 12.1089897
2600 1 11.6499996 18.0100002 10.2600002 0 0 1 3 6 2 1 0 0 11.7462607
2608 5 4.2800002 -10.5500002 10.1499996 0 0 0 2 10 2 0 0 0 12.1007586
2613 5 -10.4799996 -10.5799999 20.2299996 0 0 0 4 8 1 0 0 0 12.2313385
2615 2 9.2629995 -20.9500008 6.8119998 0 0 0 3 6 4 0 0 0 11.5746756
2623 3 -15.2600002 1.776 -20.5 0 0 1 3 6 3 1 0 0 12.4953404
2644 2 -5.151 21.3700009 0.698 0 0 1 2 6 3 1 0 0 11.4516745
2648 2 2.8840002 -6.0040002 -14.0900002 0 0 0 0 12 0 0 0 0 10.785717
2651 4 15.1599999 -20.4699993 9.8920002 0 0 2 3 3 6 0 0 1 12.5645457
2659 4 17.6200009 -3.484 -8.6029997 0 0 1 0 9 3 0 0 0 11.6809874
2672 2 -8.6890002 -14.8100004 11.2299996 0 0 0 5 4 3 0 0 0 11.7171612
2677 4 21.3199997 18.8999996 6.3049998 0 0 0 1 10 2 0 0 0 11.8422852
2680 4 17.75 -7.414 18.7199993 0 0 0 5 4 4 0 0 0 11.5701285
2692 4 -14.8400002 -7.757 -4.816 0 0 0 3 6 4 0 0 0 11.178525
2697 1 -14.4700003 18.1599999 -2.85 0 0 0 4 6 3 0 0 0 11.3950453
2706 4 15.0 3.924 -12.6400004 0 0 0 1 10 3 0 0 0 13.2697134
2715 4 7.0180001 -5.4380002 18.1599999 0 0 0 1 10 4 0 0 0 12.579423
2719 4 2.309 -8.7080002 -11.29 0 0 0 4 6 4 0 0 0 13.4787941
2741 5 13.6000004 13.04 1.423 0 0 0 0 12 0 0 0 0 11.301651
2771 5 8.6190005 -18.4200001 10.1599999 0 0 0 1 10 2 0 0 0 12.3169308
2773 2 11.1300001 -18.0599995 -15.6999998 0 0 1 6 5 1 0 0 0 11.5359326
2784 5 -1.243 -20.8600006 2.0239999 0 0 2 2 4 5 1 0 0 12.5955324
2803 5 -8.6090002 -15.0699997 -8.9379998 0 0 0 1 10 3 0 0 0 12.3659945
2805 4 14.6099997 11.1899996 -2.6659999 0 0 1 2 8 3 1 0 0 12.9822168
2813 4 -7.4520002 -7.1620002 -10.3000002 0 0 0 1 10 4 0 0 0 13.0728235
2823 4 2.487 -21.7999993 20.0499992 0 0 0 1 10 2 0 0 0 12.3403759
2830 4 -3.5850001 21.1599999 11.04 0 0 0 3 7 4 1 0 0 13.3093128
2840 2 -4.684 18.2800007 3.4519999 0 0 1 2 6 3 1 0 0 11.718688
2848 4 -2.938 -8.1330004 6.7249999 0 0 0 1 10 3 0 0 0 12.7004175
2850 4 -3.1570001 3.5510001 10.9700004 0 0 0 0 12 0 0 0 0 10.9236022
2860 1 4.5409999 -1.3480001 -18.5200005 0 0 1 6 3 3 0 0 0 11.8306685
2864 4 -4.1719999 17.0300007 21.0799999 0 0 0 1 10 2 0 0 0 11.6160946
2871 5 -7.7480002 15.1800003 -13.3000002 0 0 0 3 7 3 1 0 0 12.2612648
2878 2 2.306 -7.1799998 8.877 0 0 0 4 4 6 0 0 0 12.3055992
2900 4 3.7709999 4.0139999 -21.3700009 0 0 0 1 10 2 0 0 0 11.4992447
2906 4 -15.5299998 18.1800003 -20.4599991 0 0 0 2 8 5 0 0 0 12.7067833
2911 4 2.5850001 18.3600006 -12.2700005 0 0 0 0 12 2 0 0 0 11.944212
2929 4 -12.2799997 -13.8299999 -14.4700003 0 0 1 2 7 5 0 0 0 12.7492094
2942 4 -2.1570001 -19.1299992 14.4600001 0 0 1 0 9 3 0 0 0 12.220252
2961 4 2.3340001 -10.7700005 -9.6789999 0 0 0 2 8 4 0 0 0 12.2435885
2963 2 -19.5200005 -14.79 10.6099997 0 0 0 0 12 0 0 0 0 11.4809256
2993 4 15.8900004 21.1000004 -16.9500008 0 0 0 1 10 4 0 0 0 12.8334828
2994 4 -4.1950002 -9.474 -0.7047 0 0 0 1 10 5 0 0 0 13.3218508
2995 2 8.8240004 -2.5150001 15.0699997 0 0 0 3 8 2 0 0 0 11.2429152
2997 2 -15.3000002 -8.2100001 -21.4500008 0 0 0 1 10 2 0 0 0 11.908517
2999 2 19.5 20.2000008 0.4941 0 0 0 2 8 2 0 0 0 11.4170809
3019 4 20.1800003 16.7900009 -9.0380001 0 0 0 1 10 5 0 0 0 14.175395
3020 5 17.1700001 6.0229998 -19.2999992 0 0 1 3 6 5 1 0 0 12.5293808
3021 5 -2.253 -10.7399998 0.6388 0 0 0 3 6 6 0 0 0 12.3151989
3024 5 -2.1370001 7.1440001 -21.3099995 0 0 0 3 8 4 0 0 0 12.7397194
3048 4 4.2930002 10.6899996 14.3999996 0 0 0 0 12 3 0 0 0 13.4501219
3056 4 14.4099999 -15.6899996 -8.2880001 0 0 0 0 12 3 0 0 0 12.8191977
3064 2 18.3999996 -14.6499996 -20.4699993 0 0 0 1 9 2 1 0 0 11.3432093
3066 2 -16.7900009 5.402 -12.9899998 0 0 0 0 12 0 0 0 0 11.8586036
3070 4 14.6300001 4.6209998 14.5900002 0 0 1 3 9 1 0 0 0 12.551981
3072 4 -11.9799996 -4.7750001 -18.6599999 0 0 0 1 10 4 0 0 0 12.4982548
3083 4 -11.5600004 -10.5799999 -9.0550003 0 0 0 2 8 5 0 0 0 13.2807207
3110 2 6.895 17.2199993 1.978 0 0 0 4 6 3 0 0 0 11.6046067
3119 5 14.7600003 10.9799996 13.9499998 0 0 0 0 12 2 0 0 0 12.3179045
3126 2 -13.0600004 -1.011 18.0699997 0 0 1 3 4 6 1 0 0 12.217557
3129 2 3.102 14.6700001 -7.1950002 0 0 0 2 8 1 0 0 0 10.9427682
3137 2 5.151 -3.6429999 -18.9799996 0 0 0 2 6 3 0 0 0 11.7132263
3142 2 -7.2519999 13.1999998 -17.0699997 0 0 1 0 11 3 0 0 0 12.7980681
3145 2 -1.994 -22.2099991 -8.8070002 0 0 0 1 10 2 0 0 0 11.5163203
3157 5 -16.6599999 15.7399998 -14.1499996 0 0 0 1 10 2 0 0 0 11.9117414
3164 2 19.3600006 -15.79 0.1186 0 0 0 2 8 4 0 0 0 12.2987032
3169 5 -1.24 18.4300003 7.7199998 0 0 0 3 6 4 0 0 0 12.3220186
3174 4 -3.368 -3.701 16.4699993 0 0 1 5 4 4 1 0 0 12.0226889
3190 2 1.734 13.5200005 8.7340002 0 0 0 0 12 0 0 0 0 11.2082539
3193 2 18.1900005 2.6010001 8.809 0 0 0 2 8 1 2 0 0 12.0771771
3198 4 7.073 6.6659999 -22.1800003 0 0 0 2 8 4 0 0 0 12.0584726
3219 4 -3.1040001 6.8410002 18.7399998 0 0 1 3 5 6 0 0 0 12.460763
3231 5 13.2299996 18.7600003 3.1960001 0 0 0 2 10 2 0 0 0 12.9369546
3238 5 4.969 -21.7199993 19.1599999 0 0 0 1 10 5 0 0 0 13.4844084
3240 1 -11.4899998 20.3299999 -3.4749999 0 0 0 0 12 0 0 0 0 11.2844525
3242 2 -0.4193 0.3413 12.6499996 0 0 0 0 12 0 0 0 0 11.1838179
3248 4 -16.4500008 -6.2979999 6.9109998 0 0 0 0 12 3 0 0 0 12.874364
3253 5 9.559 4.322 10.6000004 0 0 0 1 12 1 0 0 0 12.5045433
3257 4 4.4380002 -15.7799998 -20.9400006 0 0 0 2 8 5 0 0 0 13.4573317
3260 4 -19.5100003 -16.4899998 4.0630002 0 0 0 1 8 3 0 1 0 11.291543
3274 2 -0.1315 15.2700005 16.6200009 0 0 0 3 8 3 0 0 0 12.4942694
3278 4 17.2900009 -8.4270001 -18.6299992 0 0 0 1 10 2 0 0 0 11.876833
3282 5 6.764 14.1199999 20.1399994 0 0 0 0 12 0 0 0 0 12.2285519
3283 4 -13.5 17.2000008 -21.8099995 0 0 0 4 4 5 0 0 0 11.9618884
3298 5 -3.086 -0.4221 8.5970001 0 0 0 0 12 0 0 0 0 11.7533226
3303 5 -4.1669998 -8.4160004 14.54 0 0 0 2 10 1 0 0 0 11.4811535
3313 2 -0.471 -8.6420002 6.5100003 0 0 0 0 12 0 0 0 0 11.7564011
3317 5 15.4899998 4.2470002 1.029 0 0 0 0 12 0 0 0 0 11.4969063
3323 5 13.3500004 14.0699997 -16.2800007 0 0 0 1 9 2 1 0 0 11.8233176
3338 5 1.906 -5.8080001 -18.9099998 0 0 0 2 8 2 0 0 0 11.0211697
3344 4 -16.0100002 7.5240002 -0.8428 0 0 0 1 10 2 0 0 0 11.5557013
3351 1 -9.1070004 17.8700008 10.4399996 0 0 0 4 6 0 0 0 0 10.6790457
3355 5 -11.1000004 17.1299992 -8.823 0 0 0 1 10 2 0 0 0 12.263237