ITEM: TIMESTEP
0
ITEM: NUMBER OF ATOMS
50688
ITEM: BOX BOUNDS xy xz yz pp pp pp
-20.3673 66.5685349 6.6562319
-22.2210007 65.3610001 0.0
-22.2210007 65.3610001 0.0
ITEM: ATOMS id type x y z VoronoiIndex1 VoronoiIndex2 VoronoiIndex3 VoronoiIndex4 VoronoiIndex5 VoronoiIndex6 VoronoiIndex7 VoronoiIndex8 VoronoiIndex9 AtomicVolume
7 2 -10.7100001 -13.79 -3.5510001 0 0 0 2 10 1 0 0 0 11.7478199
21 2 -13.3999996 1.923 14.1599999 0 0 0 0 12 0 0 0 0 11.3385239
26 5 -15.1899996 -17.4599991 -9.1190004 0 0 0 1 10 4 0 0 0 12.9319258
28 2 5.2220001 5.0380001 -10.1099997 0 0 0 2 10 0 0 0 0 11.5104504
36 2 13.6700001 -15.1599999 -20.9500008 0 0 0 0 12 0 0 0 0 11.3757267
38 5 8.5570002 -11.1800003 17.3700009 0 0 1 1 8 3 1 0 0 12.1030674
42 2 11.6199999 -3.56 -21.2900009 0 0 0 0 12 0 0 0 0 11.3508597
43 5 0.7568 12.6999998 9.5909996 0 0 1 2 7 4 0 0 0 11.5475054
50 2 13.87 -3.3710001 -21.9799996 0 0 0 0 12 0 0 0 0 11.6495686
61 4 -11.3999996 -8.658 -3.3340001 0 0 1 1 9 3 0 0 0 12.6987715
66 4 -16.9599992 -5.4770003 -2.309 0 0 0 2 8 4 0 0 0 12.8808842
68 1 -16.6800003 -0.4254 2.7820001 0 0 1 3 5 2 0 0 0 11.0497808
98 2 2.951 -8.4329996 18.8400002 0 0 0 0 12 0 0 0 0 10.9250432
128 5 -11.0600004 6.3709998 -10.8500004 0 0 0 2 10 2 0 0 0 12.4440584
145 4 -4.7119999 -22.2000008 -19.6299992 0 0 0 0 12 2 0 0 0 13.2272082
146 4 2.993 9.4029999 -11.25 0 0 0 1 10 4 0 0 0 12.9898558
150 2 -13.25 7.973 9.2100001 0 0 0 3 5 3 1 0 0 11.4084377
171 2 6.4759999 -0.5776 -3.1800001 0 0 0 1 10 2 0 0 0 11.2911177
176 5 10.9799996 -20.3099995 11.8800002 0 0 0 2 8 5 0 0 0 11.9869386
177 5 14.2100001 14.6999998 -20.0200005 0 0 1 2 7 4 0 0 0 12.1562796
181 5 -6.6770001 -11.0500002 5.6500001 0 0 0 0 12 0 0 0 0 10.6070862
191 5 -11.25 5.7930002 -13.3999996 0 0 0 2 8 6 0 0 0 12.9622212
200 4 -16.1100006 -11.1599999 12.2100001 0 0 0 3 6 4 0 0 0 12.2567005
216 2 13.9200002 16.9599992 11.8800002 0 0 0 0 12 0 0 0 0 11.396698
219 4 11.3500004 -2.7000001 15.6899996 0 0 0 0 12 0 0 0 0 11.2552309
220 2 -5.3169999 17.7999993 -5.3509998 0 0 0 0 12 0 0 0 0 11.9689656
231 4 -14.4099999 3.57 6.9400002 0 0 0 2 10 1 0 0 0 12.0320091
240 2 2.911 10.7100001 6.0440002 0 0 0 3 6 4 0 0 0 11.6663294
241 2 22.3400002 12.7200003 -1.492 0 0 0 1 10 3 0 0 0 12.5209761
243 4 7.3850002 18.0599995 -2.1670001 0 0 0 1 10 3 0 0 0 12.6064167
244 5 -7.2290001 -12.7399998 -20.6100006 0 0 0 2 8 4 0 0 0 13.152463
245 1 17.9200002 -17.2000008 5.4470001 0 0 0 2 8 3 0 0 0 11.7813196
249 4 -5.8639998 -6.2199998 18.8299999 0 0 0 1 12 2 0 0 0 12.7650223
260 2 -16.7600003 6.869 -15.79 0 0 0 2 8 2 0 0 0 10.9855328
262 2 1.881 2.845 9.2819996 0 0 1 2 5 5 0 0 0 12.4577751
263 1 -7.2659998 -2.7620001 -16.4799996 0 0 0 0 12 0 0 0 0 10.5997448
266 5 18.5 -17.8600006 16.6200009 0 0 1 3 7 4 0 0 0 12.5713196
277 4 -14.1800003 -0.3971 -6.8410002 0 0 0 3 7 3 1 0 0 11.9648524
283 5 -2.2049999 10.6599999 -11.04 0 0 0 1 12 2 0 0 0 12.2204914
298 4 -5.2459998 17.4200001 3.3499999 0 0 2 1 8 4 0 0 0 12.6904831
301 1 -12.4399996 18.5499993 20.4300003 0 0 0 2 8 2 0 0 0 11.7913933
311 5 -10.3500004 14.1000004 -4.5869999 0 0 0 1 12 3 0 0 0 13.6989737
318 5 -2.2320001 -14.2299996 -6.362 0 0 1 2 7 4 0 0 0 12.271493
322 4 -8.8850002 -8.5839997 3.214 0 0 0 1 10 3 0 0 0 12.3951855
335 1 -16.7399998 -18.2700005 -5.5500002 0 0 0 2 8 3 0 0 0 12.3001671
336 4 -10.4099999 -16.3799992 -2.4089999 0 0 0 2 8 4 0 0 0 12.3490305
362 5 -8.7589998 -9.4429999 -4.4860001 0 0 0 1 12 2 0 0 0 13.28648
370 5 -15.1899996 -17.1399994 -11.6599999 0 0 1 1 9 3 0 0 0 12.5582009
372 5 10.6800003 -19.8899994 3.9070002 0 0 0 1 10 2 0 0 0 12.1004696
377 5 -4.2470002 15.8299999 -0.5621 0 0 0 1 10 3 0 0 0 12.077199
398 1 -1.724 0.4825 -1.092 0 0 2 2 6 4 0 0 0 11.7981081
416 2 -8.6829996 -21.2399998 -11.5200005 0 0 1 3 5 6 0 0 0 11.9386616
431 2 -4.0120001 19.8500004 -19.5699997 0 0 0 1 10 2 0 0 0 11.0317545
439 4 -15.8599998 -8.1560001 15.3400002 0 0 0 3 6 6 0 0 0 12.747241
442 4 2.6410001 -20.9400006 -12.5100003 0 0 0 1 12 2 0 0 0 13.1339808
452 4 -13.0 -22.1800003 -20.5200005 0 0 0 0 12 0 0 0 0 11.4819489
482 4 6.7259999 -0.2704 -19.7999993 0 0 0 3 6 4 0 0 0 12.546484
506 4 -2.8610002 -0.3182 16.3600006 0 0 0 0 12 3 0 0 0 13.5968647
527 5 10.6499996 -5.0250001 4.9499998 0 0 0 3 8 3 0 0 0 11.823452
531 5 20.8700008 6.487 12.4899998 0 0 1 2 7 4 0 0 0 13.1292496
537 2 2.504 17.8199997 4.7379999 0 0 0 2 8 1 0 0 0 11.4196558
539 2 0.9023 -21.9099998 -16.5100003 0 0 0 4 6 4 0 0 0 11.8187704
548 4 0.2788 -8.1199999 1.411 0 0 0 0 12 0 0 0 0 11.6185246
549 5 -14.1000004 12.8299999 -17.25 0 0 0 2 8 5 0 0 0 12.3952398
553 4 9.5790005 4.7490001 -21.6299992 0 0 0 0 12 0 0 0 0 11.5009232
559 4 16.3600006 5.9860002 -21.9099998 0 0 0 0 12 0 0 0 0 11.3485356
561 4 5.072 15.6599999 -5.8870002 0 0 2 2 6 5 0 0 0 11.9480696
564 4 -3.0139999 4.257 -11.7100001 0 0 0 1 10 3 0 0 0 13.0764294
569 2 9.3070002 -3.2809999 4.31 0 0 0 3 8 1 0 0 0 11.1433926
570 4 -15.7100001 -20.4099999 -5.6640001 0 0 0 3 8 1 0 0 0 11.900592
571 5 -13.6700001 5.8119998 8.1890001 0 0 0 1 10 2 0 0 0 11.6607161
587 5 19.4200001 17.2600002 16.4899998 0 0 0 1 10 2 0 0 0 12.1816158
597 2 -0.4059 -17.4200001 -13.4799996 0 0 0 2 8 3 0 0 0 11.0028601
613 5 16.8999996 -5.263 -1.8380001 0 0 0 4 4 6 0 0 0 12.2684832
618 2 0.3018 6.8130002 -12.8000002 0 0 0 0 12 0 0 0 0 11.1867094
623 4 17.9300004 17.1399994 4.6770001 0 0 1 1 9 3 0 0 0 12.0644579
638 5 -11.6800003 -8.7150002 9.0159998 0 0 0 2 8 2 0 0 0 11.7732992
643 5 -10.7299996 4.3200002 2.0139999 0 0 0 2 8 2 0 0 0 11.3085442
645 5 -11.29 16.6900006 6.0100002 0 0 1 3 5 2 2 0 0 12.0370092
649 4 20.0 -18.5900002 8.844 0 0 0 1 10 4 0 0 0 13.3518267
654 4 4.6030002 -16.9400006 1.166 0 0 0 4 6 4 0 0 0 12.066289
671 2 3.372 -9.7139998 9.4779997 0 0 0 0 12 0 0 0 0 11.4802008
672 2 22.2000008 20.8700008 -17.1599999 0 0 0 2 8 4 0 0 0 11.984336
681 2 -14.4200001 20.3799992 -8.217 0 0 0 3 6 4 0 0 0 11.1292009
699 5 19.0699997 3.1800001 3.359 0 0 0 3 6 6 0 0 0 12.8758116
726 5 20.4699993 -7.8990002 8.526 0 0 0 0 12 2 0 0 0 12.7175112
727 5 -5.6680002 -20.7399998 21.2399998 0 0 0 3 7 4 1 0 0 13.0388718
729 1 1.632 -21.9200002 8.8500004 0 0 0 2 8 2 0 0 0 11.5688896
741 4 5.0229998 15.6199999 1.882 0 0 0 3 6 5 0 0 0 12.4443178
742 4 13.3000002 3.0280001 9.731 0 0 0 6 2 5 0 0 0 12.2540636
745 4 3.819 21.4099999 -21.1900005 0 0 0 1 10 3 0 0 0 12.1910143
755 5 15.5 -14.29 -17.5300007 0 0 0 3 8 3 0 0 0 12.0325651
758 2 7.1939998 11.6000004 14.8999996 0 0 0 2 10 0 0 0 0 11.7946081
760 1 8.9560004 8.8920002 -17.3700009 0 0 0 0 12 0 0 0 0 11.1212864
762 5 19.7399998 -5.3850002 -8.0410004 0 0 0 3 6 5 0 0 0 12.2901611
765 1 -1.909 12.0200005 -21.4099999 0 0 0 0 12 0 0 0 0 12.1131392
818 5 7.843 10.3400002 5.323 0 0 0 4 5 4 1 0 0 12.521904
842 5 11.6400004 1.0190001 -6.7810002 0 0 1 3 7 3 0 0 0 12.2004528
849 4 -1.924 3.846 11.9399996 0 0 2 2 6 4 0 0 0 11.9392958
850 5 5.2750001 18.2700005 -17.9899998 0 0 0 0 12 0 0 0 0 10.9240494
882 3 -7.6700001 17.0699997 15.9099998 0 0 0 1 10 2 0 0 0 12.6999884
899 4 -0.8286 -9.4600001 -0.4553 0 0 0 0 12 2 0 0 0 12.2465639
901 4 1.27 19.0799999 -1.308 0 0 0 0 12 2 0 0 0 11.7841892
915 5 -4.757 -22.2099991 -4.04 0 0 0 2 8 5 0 0 0 13.1759167
926 5 0.339 7.8449998 8.9540006 0 0 0 2 12 1 0 0 0 12.6995325
936 1 2.2690001 13.2299996 -14.8999996 0 0 0 0 12 0 0 0 0 11.0490589
941 5 2.247 5.198 13.9700004 0 0 1 1 9 4 0 0 0 12.6804791
946 4 -1.8220001 -13.5600004 20.8500004 0 0 0 0 12 2 0 0 0 11.6356631
950 3 -1.577 -1.635 6.2220001 0 0 1 2 7 7 0 0 0 13.3751116
951 5 9.448 16.8899994 -0.9061 0 0 0 1 10 3 0 0 0 13.3212767
958 5 14.04 8.2399998 -2.1930001 0 0 0 3 6 4 0 0 0 11.2316103
961 2 -1.515 18.6100006 -17.6399994 0 0 0 2 8 4 0 0 0 12.3119459
962 4 -5.98 -14.5600004 -11.4399996 0 0 1 1 9 3 0 0 0 12.2037153
963 5 -8.224 -12.6700001 -15.3800001 0 0 1 1 8 3 1 0 0 11.4442711
978 4 -18.0499992 -19.8899994 13.4300003 0 0 0 0 12 3 0 0 0 13.0881777
990 4 12.4600001 16.7800007 -1.183 0 0 0 2 10 4 0 0 0 14.4298992
995 1 1.7940001 -17.2000008 13.0699997 0 0 0 0 12 2 0 0 0 12.0280895
1007 2 3.5380001 -4.915 -2.5769999 0 0 0 0 12 0 0 0 0 11.0871992
1010 4 -15.8100004 3.774 -20.4899998 0 0 0 1 10 4 0 0 0 12.7254887
1025 1 2.626 -12.5900002 11.7399998 0 0 0 4 6 3 0 0 0 11.4454308
1027 4 18.5400009 -9.5939999 8.2550001 0 0 0 1 10 4 0 0 0 12.8222151
1047 4 -8.5839997 21.0 2.524 0 0 0 1 10 2 0 0 0 11.9935322
1050 1 1.401 -10.29 18.4500008 0 0 0 2 8 2 0 0 0 10.7075796
1051 4 6.415 17.0599995 -19.8199997 0 0 0 0 10 2 0 0 0 11.390604
1055 2 10.75 5.3720002 -8.2410002 0 0 1 2 7 3 0 0 0 11.3797493
1057 4 13.8199997 -8.1440001 -12.04 0 0 0 2 10 1 0 0 0 12.2508659
1059 4 -4.969 13.1400003 2.5520001 0 0 0 3 6 5 0 0 0 11.6555138
1063 5 -9.9610004 9.5900002 9.5039997 0 0 1 1 9 3 0 0 0 12.6846934
1089 4 13.3999996 -20.3299999 -16.3999996 0 0 0 0 12 3 0 0 0 12.7481985
1094 5 -17.9099998 0.6332 11.0900002 0 0 0 5 3 6 1 0 0 13.2727165
1102 5 19.4500008 -19.3999996 -16.0 0 0 0 0 12 0 0 0 0 11.3184719
1110 5 2.977 -2.4590001 18.7900009 0 0 2 2 5 5 1 0 0 12.4703207
1118 1 15.04 -13.8500004 0.9263 0 0 0 0 12 0 0 0 0 11.2467508
1128 2 3.8840002 -19.3099995 0.8041 0 0 0 0 12 0 0 0 0 11.0393868
1153 5 6.7870002 -15.2399998 19.1200008 0 0 0 2 8 3 0 0 0 12.1679545
1159 4 4.3649998 -9.9890004 15.3999996 0 0 0 2 8 4 0 0 0 12.0934992
1167 4 -5.6500001 20.9099998 -12.3999996 0 0 0 1 10 2 0 0 0 12.1063986
1169 2 17.3600006 2.1370001 -19.9099998 0 0 0 0 12 0 0 0 0 11.7555313
1178 2 8.7340002 5.8410002 10.3400002 0 0 1 2 7 2 0 0 0 12.1968317
1187 5 -2.4700001 18.6200009 -13.6700001 0 0 1 1 9 3 0 0 0 12.1040869
1188 4 13.1099997 16.1299992 8.0600004 0 0 0 0 12 2 0 0 0 11.8759232
1190 2 6.4840002 -17.8899994 -16.9500008 0 0 0 1 10 2 0 0 0 11.2513695
1194 5 -16.6000004 12.6099997 17.5699997 0 0 0 2 8 4 0 0 0 11.8739338
1199 4 -14.1800003 -10.1000004 -15.1999998 0 0 0 0 12 2 0 0 0 12.7224036
1214 5 -8.5200005 8.5340004 -21.8299999 0 0 0 3 9 1 1 0 0 12.7328129
1222 1 -7.0029998 16.6900006 -1.696 0 0 0 2 9 2 1 0 0 12.0705528
1244 3 -7.5159998 -10.6300001 -9.3959999 0 0 0 0 12 0 0 0 0 11.1286907
1247 1 13.9399996 0.9569 -20.3999996 0 0 3 2 2 6 1 0 0 11.7392807
1261 4 6.9759998 18.7700005 20.7099991 0 0 0 3 6 3 0 0 0 11.6053992
1264 2 12.1099997 17.1200008 10.3000002 0 0 0 1 10 2 0 0 0 11.3449535
1272 4 19.0499992 18.6200009 -9.1520004 0 0 0 3 6 5 0 0 0 12.1566248
1276 4 -18.3600006 -20.8799992 9.1619997 0 0 0 1 10 4 0 0 0 12.3424711
1280 5 -6.7420001 1.361 -11.4099999 0 0 0 1 10 2 0 0 0 12.0983391
1283 4 20.5599995 2.7550001 12.9099998 0 0 0 2 8 4 0 0 0 12.255394
1288 5 -9.3610001 -9.4399996 15.7700005 0 0 0 3 8 2 0 0 0 12.052125
1299 4 -2.503 -10.9200002 6.1560001 0 0 0 2 10 3 0 0 0 12.6755305
1302 4 8.8400002 -1.577 -19.0400009 0 0 1 0 11 3 0 0 0 12.7602921
1303 2 -2.589 5.4899998 -0.1726 0 0 1 0 9 3 0 0 0 11.8791752
1305 5 10.2799997 14.0200005 4.6149998 0 0 0 0 12 2 0 0 0 12.0325699
1320 2 -10.4700003 12.5500002 12.3400002 0 0 0 0 12 0 0 0 0 12.1765881
1338 2 -6.283 20.9300004 -19.3600006 0 0 0 4 4 5 0 0 0 12.0419264
1339 5 7.5029998 2.2449999 3.504 0 0 0 2 8 5 0 0 0 13.3960962
1342 4 -7.9990002 18.5699997 18.0 0 0 0 1 10 4 0 0 0 13.18857
1363 2 -6.6960001 -4.3369999 2.411 0 0 0 3 8 4 0 0 0 12.2298851
1365 4 17.5599995 -10.1199999 -16.6000004 0 0 0 1 12 2 0 0 0 12.8516798
1370 4 -17.5599995 -19.7399998 15.75 0 0 0 2 9 2 1 0 0 12.4800883
1377 4 -4.2030001 -3.6600001 -12.6700001 0 0 0 2 8 5 0 0 0 13.0061512
1387 3 -13.0600004 -22.0300007 6.494 0 0 0 3 8 4 0 0 0 13.7699347
1398 4 -18.8799992 -6.4899998 -17.2999992 0 0 0 3 8 4 0 0 0 12.9219084
1434 5 -9.3129997 9.4300003 -11.4799996 0 0 0 4 4 6 0 0 0 13.2569561
1435 4 -19.1200008 -11.8500004 -3.1459999 0 0 0 3 8 3 0 0 0 12.6180201
1445 2 5.8319998 2.899 8.4160004 0 0 0 2 8 2 0 0 0 12.0227671
1456 4 -7.0120001 -10.2799997 -19.9300004 0 0 0 1 10 4 0 0 0 12.642211
1457 4 -5.579 2.921 3.7579999 0 0 0 1 10 2 0 0 0 11.3120318
1463 4 7.1069999 17.6200009 0.2558 0 0 0 3 6 4 0 0 0 12.5055332
1477 2 -1.781 -6.3140001 -19.4500008 0 0 0 3 6 1 2 0 0 11.1680946
1478 2 19.9300004 17.5 6.1880002 0 0 0 4 6 2 0 0 0 11.530469
1492 5 -0.9809 20.3600006 9.415 0 0 0 2 8 4 0 0 0 11.8089953
1502 5 4.0489998 6.2090001 -4.7870002 0 0 0 0 12 0 0 0 0 12.3761368
1505 4 -5.309 19.8299999 21.5499993 0 0 0 2 10 4 0 0 0 13.3169117
1509 5 6.04 -19.4799996 16.5499993 0 0 0 3 6 4 0 0 0 12.1815739
1515 5 -7.6220002 0.6970001 -19.1900005 0 0 0 0 12 0 0 0 0 11.2581835
1523 2 -8.132 13.5200005 -21.3099995 0 0 0 2 8 2 0 0 0 11.2377997
1545 4 6.1760001 -8.8909998 -16.5 0 0 1 3 7 1 0 0 0 11.3489781
1556 5 15.5 -6.9660002 -7.6799999 0 0 0 1 10 4 0 0 0 12.2955036
1565 2 -18.9099998 -7.4990001 -5.5640002 0 0 0 0 12 0 0 0 0 10.7214499
1583 2 -3.5390001 -7.3740001 2.4519999 0 0 0 3 6 5 0 0 0 12.1494551
1587 5 -15.8299999 -0.1559 -14.4899998 0 0 0 1 10 2 0 0 0 11.5210247
1599 4 15.4200001 18.4500008 -20.8500004 0 0 0 2 8 5 0 0 0 12.6702528
1605 5 13.6499996 12.5699997 -2.927 0 0 0 3 6 5 0 0 0 12.6356201
1607 4 0.4737 10.8900004 18.5200005 0 0 0 0 12 0 0 0 0 11.5605479
1615 4 13.2200003 20.7900009 0.5317 0 0 1 3 5 5 0 0 0 12.0939827
1620 4 -11.4200001 -1.275 19.6499996 0 0 0 2 8 4 0 0 0 13.2030954
1627 4 -18.4699993 -20.0300007 -9.0799999 0 0 0 0 12 0 0 0 0 10.8630582
1634 5 13.6000004 18.1100006 -5.903 0 0 0 2 10 2 0 0 0 12.0344172
1642 4 9.7430001 -19.4899998 6.039 0 0 0 2 8 4 0 0 0 11.90944
1657 5 -7.7890001 15.5299998 13.7200003 0 0 0 0 12 2 0 0 0 12.9767904
1663 2 -5.9920002 -3.352 10.8000002 0 0 0 2 8 2 0 0 0 11.2326117
1669 4 -8.1190004 -20.1700001 -5.4099999 0 0 0 1 12 2 0 0 0 13.0646734
1692 5 -16.4099999 -20.9099998 11.7200003 0 0 0 0 12 2 0 0 0 12.6598625
1694 2 10.1800003 -17.7199993 -3.6589999 0 0 0 1 10 1 2 0 0 11.6231709
1698 4 -5.6680002 -1.34 20.9799996 0 0 0 0 12 2 0 0 0 12.7138901
1702 2 6.7389999 -10.3000002 14.6599999 0 0 1 2 5 4 0 0 0 11.6996107
1706 4 6.3189998 0.1258 -9.6949997 0 0 0 2 8 4 0 0 0 12.2752333
1722 5 -1.8940002 -1.798 -2.227 0 0 1 3 5 6 0 0 0 13.2366762
1726 5 3.2290001 -8.1590004 -6.131 0 0 0 1 10 2 0 0 0 12.0804777
1730 5 15.0500002 19.7900009 9.2379999 0 0 0 3 6 4 0 0 0 12.2991305
1766 4 -6.9889998 -18.6100006 -3.164 0 0 0 0 12 2 0 0 0 12.7712422
1774 4 -0.1068 1.681 -12.5 0 0 0 0 12 3 0 0 0 12.7400856
1781 5 -17.0799999 19.5599995 7.092 0 0 1 2 7 2 0 0 0 11.8021679
1795 4 -0.6739 20.6399994 -13.4600001 0 0 0 0 12 0 0 0 0 11.0790596
1805 4 -14.79 17.6599999 9.4750004 0 0 0 1 10 4 0 0 0 13.2139902
1807 4 18.6200009 -8.2740002 14.54 0 0 0 1 10 3 0 0 0 12.1827345
1812 4 11.3900004 -8.2819996 15.3900004 0 0 1 2 8 3 1 0 0 12.6295061
1818 4 -5.2880001 0.5979 17.0900002 0 0 0 2 8 4 0 0 0 12.5407372
1829 5 -9.1210003 16.5799999 -19.5200005 0 0 0 0 12 0 0 0 0 10.9649982
1847 4 4.3369999 -21.8099995 -10.8500004 0 0 0 2 10 0 0 0 0 11.2874413
1851 1 -2.293 20.3700009 16.2999992 0 0 0 0 12 0 0 0 0 10.8432112
1865 2 12.2399998 -6.7919998 5.9130002 0 0 0 0 12 3 0 0 0 13.2781382
1873 4 3.1559999 -19.8500004 5.6149998 0 0 0 1 10 3 0 0 0 12.0801621
1882 2 11.6000004 12.1400003 15.6000004 0 0 0 2 10 2 0 0 0 12.4950085
1897 4 20.4099999 -0.1233 15.6599999 0 0 1 3 5 5 0 0 0 12.3744421
1905 4 -9.4619999 -5.7690001 11.9300004 0 0 1 1 9 4 0 0 0 12.1069393
1906 2 -5.5970001 17.2600002 0.5902 0 0 0 1 10 2 0 0 0 11.505868
1920 5 11.1700001 -5.2849999 7.639 0 0 0 0 12 3 0 0 0 12.8566036
1942 5 4.2659998 -19.7999993 15.0699997 0 0 1 3 6 3 1 0 0 12.0414991
1947 5 3.744 6.4580002 10.3999996 0 0 1 3 6 4 1 0 0 12.5734501
1951 4 8.1009998 21.4300003 17.4099999 0 0 0 0 12 2 0 0 0 12.4615002
1965 2 -5.6939998 1.2410001 -20.9899998 0 0 0 1 10 2 0 0 0 12.1135235
1970 2 18.6700001 19.5699997 -19.1800003 0 0 0 0 12 0 0 0 0 11.4155769
1975 4 -5.7140003 2.4990001 -18.7999993 0 0 0 2 8 5 0 0 0 12.7728367
1990 5 7.2189999 -8.797 -5.3449998 0 0 0 2 10 0 0 0 0 11.0421476
2013 5 1.071 12.3900004 -5.9710002 0 0 0 2 8 2 0 0 0 11.1332007
2016 4 -19.3600006 -13.6700001 13.5500002 0 0 1 2 7 4 0 0 0 12.3575182
2020 2 -0.2104 -9.1040001 -17.4099999 0 0 0 0 12 0 0 0 0 11.2717362
2029 4 2.9890002 3.4960001 15.6800003 0 0 0 3 6 5 0 0 0 12.9956808
2041 5 17.8899994 1.259 16.3199997 0 0 0 0 12 2 0 0 0 13.063303
2046 2 -15.1899996 -9.8900004 4.4559999 0 0 0 2 8 2 0 0 0 11.7700491
2053 2 -14.6300001 6.3010001 -1.553 0 0 0 1 12 1 0 0 0 12.9672376
2054 4 15.1599999 -3.3740001 6.855 0 0 0 0 12 2 0 0 0 12.6747036
2066 5 -6.3649998 -17.3299999 10.1199999 0 0 1 1 9 3 0 0 0 12.5831957
2082 2 -14.2799997 -14.1999998 -12.4200001 0 0 0 3 8 3 0 0 0 11.8035012
2085 5 22.3099995 18.3799992 -17.7900009 0 0 0 0 12 0 0 0 0 11.1380596
2089 1 -11.7100001 -4.9180002 12.1199999 0 0 0 3 6 3 0 0 0 11.4351969
2097 5 0.3167 -7.2270002 -1.327 0 0 0 0 12 3 0 0 0 13.4197884
2104 2 17.0300007 -18.9300004 -15.8500004 0 0 0 0 12 0 0 0 0 11.4692192
2116 5 13.1599999 -14.3199997 -11.1599999 0 0 0 4 4 3 2 0 0 11.360488
2119 2 -13.1099997 14.5600004 -3.875 0 0 0 0 12 0 0 0 0 11.9264184
2124 5 16.3700009 -15.4200001 13.5699997 0 0 1 1 9 2 0 0 0 11.5091944
2126 5 14.7200003 -6.3959999 -13.6700001 0 0 0 2 8 3 0 0 0 13.0755978
2144 4 12.54 7.2360001 4.7550001 0 0 0 2 10 2 0 0 0 12.0727797
2147 1 13.1000004 -14.2600002 -15.9700004 0 0 0 2 8 2 0 0 0 11.3541231
2148 2 13.8199997 9.8690004 -6.809 0 0 0 1 12 1 0 0 0 12.7555657
2151 2 -8.559 6.796 21.2700005 0 0 0 0 12 0 0 0 0 11.4244137
2163 2 -2.1170001 15.8400002 10.3400002 0 0 0 0 12 0 0 0 0 10.7804919
2169 1 -20.2000008 -21.3600006 -7.7690001 0 0 0 3 8 2 0 0 0 11.6188135
2180 5 1.652 1.758 -10.0699997 0 0 0 2 8 4 0 0 0 13.351717
2183 2 19.0 6.5060001 -12.8400002 0 0 0 0 12 0 0 0 0 11.5060616
2202 4 -12.5600004 11.8599998 19.0100002 0 0 0 1 10 4 0 0 0 12.6140776
2208 2 8.7270003 12.1599999 3.524 0 0 0 2 10 0 0 0 0 11.7366619
2213 2 -18.4599991 -9.4919997 12.79 0 0 0 3 6 3 0 0 0 11.7184382
2214 2 4.3979998 -0.09011 -4.2870002 0 0 0 2 10 0 0 0 0 11.7364512
2219 5 19.9400006 -18.0300007 11.7399998 0 0 0 5 6 2 0 0 0 12.1624861
2224 5 -9.0 -18.5799999 -17.6000004 0 0 0 1 10 2 0 0 0 11.6820498
2228 5 -9.4309998 16.5200005 -14.1400003 0 0 1 0 11 1 0 0 0 11.7309675
2232 3 4.2779999 -17.7800007 -9.7790003 0 0 0 3 8 3 0 0 0 12.2683563
2256 2 -14.3500004 3.4630001 -16.2800007 0 0 0 2 8 4 0 0 0 11.4998551
2265 2 20.7600003 0.1974 -13.3599997 0 0 0 0 12 0 0 0 0 11.0911007
2273 5 11.5 -20.5900002 9.3459997 0 0 0 0 12 2 0 0 0 12.5077534
2274 1 20.3899994 6.3169999 7.3860002 0 0 0 2 8 4 0 0 0 12.3321667
2284 5 14.3900004 14.4499998 -14.7600003 0 0 0 1 10 4 0 0 0 12.5500775
2285 4 -7.2059999 -8.2740002 -21.8799992 0 0 0 2 8 4 0 0 0 12.4640093
2295 1 -13.2399998 12.2399998 5.9400002 0 0 0 0 12 0 0 0 0 10.7874031
2296 4 -16.2800007 2.6930001 8.566 0 0 0 3 7 4 0 0 0 13.2545443
2298 5 13.6400004 21.25 -6.4600001 0 0 1 1 9 4 0 0 0 12.9133644
2304 4 14.0900002 -7.968 10.8400002 0 0 0 1 12 2 0 0 0 12.7942648
2317 4 -1.091 1.798 19.5 0 0 0 0 12 0 0 0 0 11.7389775
2322 4 6.777 -7.8520002 -9.1960001 0 0 0 2 8 2 0 0 0 11.3905563
2337 5 18.4200001 -9.2229996 -14.6599999 0 0 0 5 4 5 0 0 0 12.2370758
2341 4 18.7099991 -6.0469999 -14.6000004 0 0 1 1 9 3 0 0 0 12.8054428
2354 2 -16.4899998 19.6000004 -9.1890001 0 0 0 4 4 4 0 0 0 11.5355492
2368 2 3.0039999 -15.5299998 -15.29 0 0 0 1 10 2 0 0 0 11.7012949
2369 5 0.8726 14.2799997 -10.2700005 0 0 0 0 12 3 0 0 0 12.8882714
2380 4 -18.8099995 -14.2700005 11.2799997 0 0 0 1 10 2 0 0 0 11.7708311
2385 4 -8.1450005 2.931 14.1700001 0 0 0 0 12 4 0 0 0 13.7183991
2386 2 20.8799992 20.8700008 -21.9599992 0 0 0 3 6 4 0 0 0 11.7991658
2407 2 1.888 7.941 1.952 0 0 1 2 7 3 0 0 0 12.2582646
2414 1 18.1200008 -12.7399998 -17.0599995 0 0 0 4 6 2 0 0 0 11.163661
2418 4 -16.2800007 20.0499992 5.0430002 0 0 0 3 6 4 0 0 0 11.7498245
2427 4 -7.5539999 1.0089999 -16.7399998 0 0 0 1 10 3 0 0 0 11.8104487
2429 5 19.2199993 -17.2700005 21.0 0 0 0 3 6 4 0 0 0 11.7382155
2430 2 -18.2600002 1.3300001 -14.1499996 0 0 1 3 4 5 1 0 0 11.8715382
2441 2 -8.0059996 -17.0599995 8.264 0 0 0 2 10 2 0 0 0 12.8473606
2442 4 20.25 2.102 -20.6100006 0 0 0 1 10 4 0 0 0 13.3374672
2443 5 21.4400006 20.5699997 3.1029999 0 0 0 3 6 5 0 0 0 12.3462801
2446 2 7.7010002 -9.8990002 -12.7399998 0 0 0 0 12 0 0 0 0 11.5456229
2451 2 -11.0900002 -4.0560002 0.9922 0 0 0 1 10 2 0 0 0 11.5638771
2457 4 14.3000002 3.526 7.5549999 0 0 0 1 9 4 1 0 0 13.0973291
2466 2 -18.0400009 4.3270002 7.81 0 0 0 0 12 0 0 0 0 11.2144785
2482 5 -8.118 0.5772 -21.7299996 0 0 0 1 9 2 1 0 0 11.6201353
2489 2 5.7800002 -6.0359998 -8.1689997 0 0 0 3 8 2 0 0 0 11.6337376
2494 2 -12.1300001 -4.3639999 -8.7779999 0 0 0 0 12 0 0 0 0 11.4584141
2496 4 7.6180001 8.5389996 6.9699998 0 0 1 3 5 5 2 0 0 13.0799274
2506 2 -8.0760002 20.2900009 0.4203 0 0 0 1 10 2 0 0 0 10.9578858
2513 5 17.6900006 17.3999996 -20.1100006 0 0 0 1 10 3 0 0 0 12.1630058
2520 4 -16.6100006 -11.8199997 18.6900006 0 0 0 2 10 2 0 0 0 12.5250454
2521 2 1.76 14.9300004 9.974 0 0 0 0 12 0 0 0 0 11.0556116
2523 4 15.4899998 12.2600002 21.1000004 0 0 0 1 10 4 0 0 0 13.0266743
2527 1 -8.6420002 -11.0900002 -13.6599999 0 0 0 2 8 1 2 0 0 11.9123898
2541 2 -5.935 13.7799998 20.0499992 0 0 1 4 4 3 1 0 0 11.8979044
2543 5 -12.6000004 1.6210001 -1.374 0 0 0 1 10 4 0 0 0 12.9633684
2545 5 -11.8400002 3.707 10.8100004 0 0 0 1 10 3 0 0 0 12.0174179
2548 2 -5.573 -6.2870002 -16.5499993 0 0 0 2 8 2 0 0 0 11.7960282
2553 2 -5.481 3.3180001 -12.3900004 0 0 0 1 10 2 0 0 0 11.9677286
2557 4 1.38 17.1900005 -14.4300003 0 0 0 2 8 4 0 0 0 12.357008
2562 5 -1.989 18.75 -20.2700005 0 0 0 4 8 2 0 0 0 12.3191452
2564 4 9.6409998 9.8050003 -11.9499998 0 0 0 2 8 5 0 0 0 12.651474
2573 5 14.8800002 -3.7750001 13.87 0 0 0 4 6 3 0 0 0 11.7845974
2574 2 -5.7140003 -21.2700005 3.856 0 0 1 0 9 3 0 0 0 11.7625942
2594 2 9.5369997 -2.4470001 -8.0159998 0 0 0 0 12 3 0 0 0 12.0378981
2596 4 18.7199993 15.2399998 19.8899994 0 0 0 2 8 4 0 0 0 11.4993782
2600 1 20.8799992 -6.8660002 -1.706 0 0 0 0 12 0 0 0 0 10.7468128
2619 5 -5.1459999 -7.4190002 20.8799992 0 0 0 0 12 2 0 0 0 11.9903812
2627 4 0.7378 -15.2399998 -16.7299996 0 0 0 3 8 3 0 0 0 13.2735748
2632 4 4.7100001 0.9012 -20.7600003 0 0 0 4 8 1 0 0 0 12.2478314
2644 2 7.5 17.6499996 10.1300001 0 0 0 2 8 4 0 0 0 11.7999697
2647 4 17.4799996 -5.7329998 -18.7299996 0 0 0 1 10 4 0 0 0 12.2326145
2657 4 -9.54 18.9200002 -14.8900004 0 0 0 1 10 3 0 0 0 12.6687126
2664 5 -16.1100006 -5.1500001 -18.2299996 0 0 0 3 5 4 1 0 0 12.1789255
2673 4 -17.9599992 -4.494 14.1999998 0 0 0 3 6 6 0 0 0 13.0141659
2675 4 -9.0089998 4.737 10.1099997 0 0 0 1 10 3 0 0 0 12.4850397
2680 4 -14.6000004 13.0200005 -2.4590001 0 0 0 2 10 3 0 0 0 13.1618223
2695 4 -0.9334 -7.2420001 20.8199997 0 0 0 1 10 3 0 0 0 11.7523871
2719 4 -17.0 -16.0699997 8.6590004 0 0 0 0 12 0 0 0 0 11.0075283
2722 5 -13.7700005 20.9799996 0.7714 0 0 1 1 8 1 2 0 1 11.8997356
2752 2 20.1000004 16.3199997 -4.809 0 0 0 2 8 5 0 0 0 12.7334147
2754 5 -14.6099997 9.0950003 15.9700004 0 0 0 1 10 2 0 0 0 11.6067877
2760 5 -1.306 0.4141 -20.2000008 0 0 0 1 10 4 0 0 0 13.5573721
2768 2 11.1800003 5.6669998 -5.796 0 0 0 4 6 4 0 0 0 12.2246742
2774 4 13.2799997 1.114 7.0219998 0 0 2 1 8 3 2 0 0 13.3676129
2778 4 7.593 12.2700005 17.5100003 0 0 0 0 12 4 0 0 0 13.6725979
2782 4 -10.2700005 -20.8999996 13.1400003 0 0 0 1 10 4 0 0 0 13.4995823
2787 4 -18.2700005 2.1070001 6.7150002 0 0 1 3 4 6 1 0 0 13.0049896
2790 4 0.3239 17.9300004 3.3710001 0 0 0 2 8 5 0 0 0 13.0250092
2799 4 4.3189998 -12.0500002 -22.1000004 0 0 0 1 10 5 0 0 0 13.8964778
2800 4 -11.04 16.6900006 -20.7800007 0 0 0 3 6 4 0 0 0 11.5893049
2802 5 -1.095 11.7299996 10.8999996 0 0 0 2 8 4 0 0 0 12.4027329
2814 4 -18.3999996 -7.75 8.3210001 0 0 0 2 8 5 0 0 0 13.1373997
2820 4 16.1399994 -11.04 9.1490002 0 0 0 1 10 3 0 0 0 12.0005589
2823 4 -9.7510004 12.2299996 18.6599999 0 0 0 2 10 2 0 0 0 13.0811367
2824 4 18.6399994 6.8979998 5.4660001 0 0 0 1 12 1 0 0 0 12.2950878
2830 4 -16.0200005 -21.7800007 -16.2299996 0 0 0 3 6 6 0 0 0 12.5170098
2848 4 16.8299999 -17.4899998 1.015 0 0 0 3 6 4 0 0 0 11.99288
2851 3 -12.3299999 2.2620001 -15.8900004 0 0 0 3 6 6 0 0 0 12.4896899
2857 4 -0.3821 20.8899994 -2.7379999 0 0 0 0 12 2 0 0 0 11.6850024
2885 2 18.3099995 17.1499996 -17.6599999 0 0 0 0 12 3 0 0 0 13.0758171
2895 4 6.6339998 -19.8799992 -4.9460002 0 0 1 3 7 2 0 0 0 12.1139212
2899 5 19.3199997 -12.1300001 -1.7840001 0 0 0 0 12 0 0 0 0 11.6036911
2906 4 17.5200005 9.8610002 1.972 0 0 1 1 9 3 0 0 0 11.819047
2908 5 -0.0831 8.5150004 0.7021 0 0 0 1 10 2 0 0 0 11.4394789
2914 2 0.8867 -1.699 -6.309 0 0 0 0 12 0 0 0 0 10.6461849
2932 4 -9.0649996 -14.3299999 -1.684 0 0 0 1 10 3 0 0 0 12.7158518
2955 4 -5.4310003 8.4700003 -13.8999996 0 0 0 2 8 5 0 0 0 12.567606
2966 5 -17.4200001 10.3199997 11.7600003 0 0 1 1 9 3 0 0 0 12.2072363
2975 5 9.4040003 -4.923 -6.8590002 0 0 0 4 4 6 0 0 0 12.6072779
2985 4 -0.7703 3.737 -16.6200009 0 0 0 1 10 3 0 0 0 12.6381102
2993 4 15.6499996 -0.5611 9.9890004 0 0 0 3 8 3 0 0 0 12.204176
2994 4 -9.4899998 -14.8800002 -14.5900002 0 0 0 1 10 4 0 0 0 12.2349663
3004 5 13.5699997 -2.365 -9.2790003 0 0 0 2 10 4 0 0 0 13.0701389
3009 4 10.0799999 -10.29 -7.7119999 0 0 2 2 8 2 0 0 0 11.7801333
3020 5 10.79 20.1399994 -9.5369997 0 0 0 3 6 4 0 0 0 11.6288691
3025 2 -15.6899996 -9.3330002 -3.501 0 0 0 2 8 4 0 0 0 12.0599794
3038 2 -15.79 6.5300002 19.9200002 0 0 0 0 12 0 0 0 0 11.1404762
3060 4 -8.3640003 20.9899998 -15.5500002 0 0 0 0 12 0 0 0 0 11.5044384
3068 2 7.645 3.3740001 6.3670001 0 0 0 1 10 3 0 0 0 12.2744141
3100 4 -0.35 2.224 0.3226 0 0 0 1 10 3 0 0 0 12.328641
3113 2 -18.3299999 -19.1399994 -14.3500004 0 0 0 1 10 2 0 0 0 11.7043944
3115 4 0.7519 8.3439999 -2.6600001 0 0 0 4 5 5 1 0 0 12.5915346
3118 4 4.7319999 -2.546 -3.28 0 0 0 0 12 3 0 0 0 12.98491
3134 2 6.4510002 7.6430002 -14.6099997 0 0 0 2 10 0 0 0 0 11.3415585
3150 2 19.1599999 19.2999992 8.3000002 0 0 1 4 4 4 1 0 0 12.3910446
3151 4 -14.0299997 16.3600006 20.4200001 0 0 0 2 10 2 0 0 0 11.7781258
3152 4 0.9829 -17.4099999 -15.3199997 0 0 0 0 12 0 0 0 0 11.5105105
3158 2 14.3500004 -7.2680001 3.8210001 0 0 0 3 6 4 0 0 0 11.9062862
3159 5 -4.3699999 15.5200005 -5.6999998 0 0 1 2 7 2 2 0 0 12.0471859
3165 5 14.75 -15.1700001 18.4200001 0 0 0 2 8 4 0 0 0 13.4783211
3167 2 1.0599999 2.5720001 20.5799999 0 0 0 3 6 4 0 0 0 12.105217
3174 4 -2.7479999 -0.1512 -5.6399999 0 0 0 1 10 4 0 0 0 12.7869616
3180 2 19.9200002 19.9400006 -6.8189998 0 0 1 3 5 5 0 0 0 11.5469198
3182 4 18.2199993 -18.7900009 -18.3400002 0 0 0 0 12 4 0 0 0 13.128686
3185 5 2.648 5.4330001 6.6100002 0 0 0 2 9 3 1 0 0 12.466239
3186 5 8.5690003 -1.464 -2.1359999 0 0 2 0 9 2 1 0 0 12.5700245
3189 5 -18.7299996 -14.1099997 18.6700001 0 0 1 1 9 4 0 0 0 12.0948048
3199 5 11.4099999 18.6499996 0.5162 0 0 1 2 9 2 0 0 0 13.4344349
3201 5 -13.1400003 19.6499996 -12.8599998 0 0 0 3 6 4 0 0 0 11.6849289
3220 4 -6.8709998 19.5200005 -14.3500004 0 0 0 1 10 2 0 0 0 12.7300158
3222 4 16.1000004 -2.711 -9.8970004 0 0 0 1 10 3 0 0 0 12.3269701
3230 5 -17.0300007 7.1830001 -7.355 0 0 0 0 12 2 0 0 0 12.1751604
3234 4 -4.9169998 -7.4089999 4.9250002 0 0 0 0 12 3 0 0 0 12.7508583
3240 1 5.0359998 8.3979998 -12.7700005 0 0 0 0 10 2 0 0 0 11.5987082
3241 4 -10.9300004 21.4500008 -14.3699999 0 0 0 1 10 5 0 0 0 13.3427773
3246 5 0.8715 -21.1100006 4.3210001 0 0 1 4 4 5 1 0 0 12.9484024
3267 5 6.6630001 -13.7799998 -7.7249999 0 0 1 1 11 3 0 0 0 12.6414747
3286 5 13.7200003 -7.7249999 15.0900002 0 0 0 2 10 0 0 0 0 11.6484146
3287 5 12.4600001 15.3199997 -16.2900009 0 0 0 0 12 0 0 0 0 10.9731484
3295 4 -18.0100002 -1.7610001 -19.9699994 0 0 0 2 10 2 0 0 0 12.0846033
3298 5 6.3740001 -21.3199997 14.6400004 0 0 0 2 8 4 0 0 0 12.377677
3301 5 20.8099995 16.1100006 -7.2560001 0 0 0 1 10 2 0 0 0 11.8665124
3315 4 5.6139999 -10.4799996 9.9139996 0 0 0 2 8 3 0 0 0 12.0922051
3323 5 -15.3199997 0.959 12.3599997 0 0 0 1 10 4 0 0 0 13.2845068
3337 5 -6.501 -16.0300007 1.181 0 0 0 0 12 0 0 0 0 10.6590414
3343 5 -9.7589998 19.1800003 -6.415 0 0 0 0 12 0 0 0 0 11.5178108
3346 2 -16.2199993 -15.8999996 -4.2919998 0 0 0 1 10 2 0 0 0 11.3848448
3357 4 -10.8900004 12.9399996 -6.8049999 0 0 0 3 8 2 0 0 0 11.8369704
3362 1 -17.1100006 -5.632 -20.5 0 0 0 3 5 3 1 0 0 11.3695574
3365 5 -15.25 -2.7049999 -0.5113001 0 0 0 3 6 4 0 0 0 12.888218
3387 5 20.2800007 17.8099995 -19.4500008 0 0 0 0 12 2 0 0 0 12.1360378
3406 5 -8.9469996 6.5739999 -0.6722 0 0 0 2 10 0 0 0 0 11.3979111
3408 5 -14.1099997 4.4840002 -13.7799998 0 0 0 0 12 2 0 0 0 11.8951112
3414 2 20.2199993 21.0300007 -4.8239999 0 0 0 4 6 2 0 0 0 11.4473057
3433 4 -7.039e-04 18.1800003 -12.3199997 0 0 0 0 12 3 0 0 0 12.5124522
3444 5 14.6899996 -13.3100004 3.1530001 0 0 1 1 11 1 0 0 0 11.986971
3446 4 12.6700001 -9.7049999 6.961 0 0 0 1 10 5 0 0 0 14.2842751
3454 2 11.7700005 14.54 2.5869999 0 0 0 2 8 2 0 0 0 10.8578664
3456 5 -17.2299996 -19.7000008 7.0079999 0 0 0 4 5 4 1 0 0 11.9417372
3465 5 -10.9099998 0.4892 -8.9370004 0 0 1 0 9 3 0 0 0 11.6618548
3467 4 4.955 -6.639 -10.6199999 0 0 1 2 8 3 1 0 0 12.95718
3471 2 -15.1700001 -20.7800007 16.6000004 0 0 0 0 12 0 0 0 0 10.914607
3481 4 3.079 -14.5500002 -17.5799999 0 0 0 1 10 2 0 0 0 11.8037844
3482 3 -13.7600003 8.4350004 4.2410002 0 0 0 3 6 4 0 0 0 12.0839205
3489 2 -3.832 -7.4190002 -19.6700001 0 0 0 2 8 3 0 0 0 11.4484892
3497 2 20.0699997 10.9799996 7.593 0 0 1 2 7 3 0 0 0 12.4948578
3501 4 10.5 -6.402 9.6639996 0 0 1 3 5 3 0 0 0 11.4294434
3507 5 -18.8899994 -11.6300001 17.8799992 0 0 1 3 5 7 0 0 0 12.5704317
3516 4 19.8500004 -8.9799996 2.4000001 0 0 0 1 10 4 0 0 0 12.1903458
3529 5 14.2799997 -8.5369997 -1.753 0 0 0 2 10 1 0 0 0 11.9589386
3540 4 4.5110002 3.1489999 -8.1560001 0 0 1 3 5 4 0 0 0 12.3102856
3544 4 -8.922 2.919 21.2999992 0 0 1 1 6 5 1 0 0 13.1624231
3561 5 -2.1210001 14.3999996 6.0500002 0 0 0 3 8 4 0 0 0 12.7547045
3563 2 -9.5620003 -7.3920002 -22.0799999 0 0 0 1 10 2 0 0 0 11.900981
3569 2 -15.6199999 -6.5869999 -13.4300003 0 0 0 0 12 0 0 0 0 11.1334372
3571 4 0.9544 10.1400003 -0.7895 0 0 1 4 3 8 0 0 0 12.5906325
3589 4 -16.2900009 -7.3379998 -8.5179997 0 0 0 3 6 4 0 0 0 11.7881804
3597 2 15.29 -0.4172 -9.915 0 0 0 1 10 2 0 0 0 12.3937101
3613 4 -1.2330001 16.4400006 -13.3500004 0 0 0 1 10 2 0 0 0 11.8887168
3614 4 -3.1489999 2.4270001 7.178 0 0 0 2 8 5 0 0 0 13.3111448