ITEM: TIMESTEP
0
ITEM: NUMBER OF ATOMS
50688
ITEM: BOX BOUNDS xy xz yz pp pp pp
-20.3673 66.0430298 6.1307402
-22.2210007 65.3610001 0.0
-22.2210007 65.3610001 0.0
ITEM: ATOMS id type x y z VoronoiIndex1 VoronoiIndex2 VoronoiIndex3 VoronoiIndex4 VoronoiIndex5 VoronoiIndex6 VoronoiIndex7 VoronoiIndex8 VoronoiIndex9 AtomicVolume
7 2 -10.6199999 -13.7600003 -3.352 0 0 0 1 10 2 0 0 0 11.9715862
21 2 -13.1199999 1.798 14.2799997 0 0 0 0 12 0 0 0 0 11.705741
26 5 -14.8100004 -17.3600006 -9.2299996 0 0 0 1 10 4 0 0 0 12.7993794
28 2 5.4520002 4.849 -10.1599999 0 0 0 0 12 0 0 0 0 11.5168247
36 2 12.8299999 -15.5299998 -20.7999993 0 0 1 2 7 2 0 0 0 11.6448727
38 5 8.6260004 -11.29 17.2399998 0 0 1 1 8 3 1 0 0 12.4546795
42 2 11.8000002 -3.661 -21.3700009 0 0 0 0 12 0 0 0 0 10.892623
43 5 0.8212 12.75 9.8330002 0 0 0 3 6 6 0 0 0 11.8194618
50 2 14.0200005 -3.395 -22.0499992 0 0 0 0 12 0 0 0 0 11.160059
61 4 -11.0600004 -8.5769997 -3.1459999 0 0 0 2 8 4 0 0 0 12.5697136
66 4 -16.9300004 -5.7280002 -2.3599999 0 0 0 4 6 5 0 0 0 12.7466307
68 1 -16.7199993 -0.6181 2.9430002 0 0 1 3 4 2 1 0 0 11.3441725
98 2 3.227 -8.3430004 18.9799996 0 0 0 0 12 0 0 0 0 10.6157904
128 5 -10.87 6.2129998 -10.8800002 0 0 1 3 9 1 0 0 0 11.9979058
145 4 -4.4860001 -22.1399994 -19.6000004 0 0 0 0 12 2 0 0 0 12.457613
146 4 3.155 9.401 -11.2700005 0 0 0 1 10 4 0 0 0 13.668356
150 2 -13.0900002 7.9380002 9.1759996 0 0 0 3 6 4 0 0 0 11.7905598
171 2 6.8709998 -0.6718 -3.155 0 0 0 1 10 2 0 0 0 11.1935368
176 5 11.3500004 -20.2399998 11.6099997 0 0 0 2 10 2 0 0 0 11.7066574
177 5 14.2399998 14.8900004 -19.8899994 0 0 0 3 6 4 0 0 0 11.2783327
181 5 -6.5500002 -11.1499996 5.9169998 0 0 0 0 12 0 0 0 0 10.6153975
191 5 -11.04 5.7449999 -13.2399998 0 0 1 1 9 4 0 0 0 12.4765673
200 4 -15.9399996 -11.1300001 12.3199997 0 0 0 2 6 6 0 0 0 12.03051
216 2 13.96 16.7999993 11.9099998 0 0 0 0 12 0 0 0 0 11.3981342
219 4 11.4499998 -2.7430001 15.9799996 0 0 3 0 7 2 2 1 0 12.266386
220 2 -5.2350001 17.7199993 -5.4559999 0 0 0 1 10 2 0 0 0 11.7693968
231 4 -14.1800003 3.5780001 6.941 0 0 0 0 12 0 0 0 0 12.2023306
240 2 2.944 10.8299999 5.914 0 0 0 3 6 4 0 0 0 11.3858023
243 4 7.461 18.0100002 -2.2420001 0 0 0 1 10 3 0 0 0 11.9073048
244 5 -6.856 -12.7100001 -20.4799996 0 0 0 0 10 2 0 0 0 12.4214764
245 1 17.7199993 -17.75 5.402 0 0 0 2 7 1 1 0 0 11.4496699
249 4 -5.4569998 -5.941 18.8500004 0 0 1 0 11 4 0 0 0 12.7605458
260 2 -16.7600003 6.626 -15.7299996 0 0 0 1 10 2 0 0 0 11.868022
262 2 2.2850001 2.76 9.0909996 0 0 0 2 8 3 0 0 0 12.3169155
263 1 -6.995 -2.875 -16.3799992 0 0 0 0 12 0 0 0 0 12.0102901
266 5 19.1800003 -17.9400006 16.5599995 0 0 1 2 7 5 0 0 0 12.2070808
272 4 -19.0599995 -9.0620003 -18.4599991 0 0 0 0 12 2 0 0 0 12.3483706
277 4 -14.1700001 -0.3134 -6.5 0 0 0 3 8 3 0 0 0 12.4946766
283 5 -1.745 10.8400002 -10.9399996 0 0 1 1 9 2 2 0 0 12.3492689
298 4 -5.1999998 17.6000004 3.5539999 0 0 0 1 10 4 0 0 0 12.9112388
301 1 -12.5 18.6900006 19.9699994 0 0 0 0 12 0 0 0 0 11.6333514
311 5 -10.3299999 14.2399998 -4.5949998 0 0 0 3 10 3 0 0 0 13.6531592
318 5 -1.8940002 -14.5 -6.3020001 0 0 1 1 8 1 1 0 0 11.5447197
322 4 -8.8149996 -8.2650004 3.1989999 0 0 0 0 12 2 0 0 0 12.4705992
335 1 -16.5 -18.2800007 -5.7160001 0 0 0 2 8 3 0 0 0 12.0587664
336 4 -10.1499996 -16.3600006 -2.418 0 0 0 2 8 5 0 0 0 12.2509575
362 5 -8.4370003 -9.6020003 -4.073 0 0 0 1 12 2 0 0 0 13.5239601
370 5 -15.1899996 -17.1399994 -11.6999998 0 0 0 0 12 2 0 0 0 12.4069862
372 5 10.7399998 -19.7800007 3.8050001 0 0 2 2 4 4 2 0 0 12.1457491
377 5 -4.2810001 15.8000002 -0.6662 0 0 0 3 8 5 0 0 0 13.6240568
398 1 -1.721 0.454 -0.9624 0 0 0 2 8 1 2 0 0 11.8606406
416 2 -8.3170004 -21.2600002 -11.4700003 0 0 1 2 6 5 1 0 0 11.5923004
431 2 -4.0159998 19.6700001 -19.5100003 0 0 0 1 10 2 0 0 0 11.0635071
439 4 -15.8299999 -8.2100001 15.3100004 0 0 0 3 6 5 0 0 0 12.9879104
442 4 2.885 -20.7099991 -12.2700005 0 0 0 1 10 5 0 0 0 12.7779236
452 4 -12.7600003 -21.9799996 -20.3500004 0 0 1 0 11 1 0 0 0 11.6775875
482 4 6.934 -0.2286 -19.4599991 0 0 2 1 8 4 0 0 0 12.654335
506 4 -2.625 -0.1888 16.3400002 0 0 0 1 10 4 0 0 0 12.6312847
527 5 11.0799999 -5.0440002 4.7249999 0 0 0 1 10 2 0 0 0 11.653575
531 5 20.7600003 6.7420001 12.7200003 0 0 0 3 8 3 0 0 0 12.4801083
537 2 2.4860001 17.8500004 4.7399998 0 0 0 4 6 1 0 0 0 11.5157442
539 2 1.202 -21.9300004 -16.3199997 0 0 1 3 5 4 0 0 0 11.8047085
548 4 0.5539 -8.1160002 1.561 0 0 1 0 9 3 0 0 0 12.1613941
549 5 -14.2200003 12.8199997 -17.1800003 0 0 0 2 8 5 0 0 0 12.5193262
553 4 9.8350001 4.902 -21.4699993 0 0 0 0 12 0 0 0 0 11.2585077
559 4 16.2399998 5.7579999 -21.7700005 0 0 0 0 12 0 0 0 0 11.411705
561 4 5.3239999 15.3599997 -5.7189999 0 0 0 2 8 3 0 0 0 12.2048874
564 4 -2.8610002 4.197 -11.7299996 0 0 0 1 10 3 0 0 0 12.7520457
569 2 9.349 -3.289 4.368 0 0 0 4 6 3 0 0 0 11.7947512
570 4 -15.3900004 -20.4200001 -5.836 0 0 1 2 7 3 0 0 0 11.6377869
571 5 -13.5799999 5.7529998 8.1680002 0 0 0 3 8 2 0 0 0 11.6486788
587 5 19.5900002 17.2700005 16.4899998 0 0 1 0 11 1 0 0 0 12.0384588
597 2 -0.2723 -17.4300003 -13.5299998 0 0 0 2 8 3 0 0 0 11.3893442
613 5 17.2600002 -5.1170001 -1.966 0 0 0 3 6 6 0 0 0 12.2277613
618 2 0.3459 6.652 -12.6099997 0 0 0 2 8 2 0 0 0 11.3299561
623 4 18.0799999 17.1399994 4.6430002 0 0 1 1 9 3 0 0 0 11.6736651
638 5 -11.3900004 -8.863 9.0349998 0 0 1 4 5 3 0 0 0 11.7337351
643 5 -10.6700001 4.1269999 2.0139999 0 0 0 1 10 2 0 0 0 11.6391583
645 5 -11.2399998 16.5799999 6.0349998 0 0 1 3 5 2 2 0 0 11.5410996
654 4 4.7820001 -17.1200008 1.099 0 0 0 5 2 6 0 0 0 11.5915041
671 2 3.5880001 -9.7220001 9.3310003 0 0 0 0 12 0 0 0 0 11.1874781
672 2 22.4099999 21.0300007 -17.2399998 0 0 1 2 9 2 0 0 0 11.8896732
681 2 -14.1499996 20.2700005 -8.3319998 0 0 1 3 4 5 1 0 0 11.2699976
699 5 19.1900005 3.477 3.168 0 0 0 2 8 4 0 0 0 13.0300922
718 2 -20.1000004 -20.0499992 -17.9699994 0 0 0 4 6 3 0 0 0 11.4640284
726 5 20.6299992 -7.7930002 8.5039997 0 0 0 0 12 2 0 0 0 12.5947333
727 5 -5.4530001 -20.8799992 21.3500004 0 0 0 4 5 5 1 0 0 13.2694817
729 1 1.856 -22.1700001 9.1870003 0 0 0 2 8 4 0 0 0 11.5894604
741 4 4.9330002 15.6700001 1.912 0 0 0 3 8 3 0 0 0 12.6224404
742 4 13.4600001 2.845 9.7100001 0 0 1 2 7 3 0 0 0 11.7835503
745 4 3.885 21.4099999 -21.2299996 0 0 0 2 10 2 0 0 0 12.8204594
755 5 15.8500004 -14.3699999 -17.7800007 0 0 0 3 6 5 0 0 0 12.5261336
758 2 7.0770001 11.6499996 14.8599998 0 0 0 2 10 0 0 0 0 12.0494223
760 1 9.264 8.9709998 -17.3199997 0 0 0 0 12 0 0 0 0 11.381033
762 5 20.0699997 -5.4699998 -7.7870002 0 0 0 3 6 6 0 0 0 12.6281519
765 1 -1.901 12.0299997 -21.4799996 0 0 0 1 10 2 0 0 0 11.1960297
818 5 7.4439998 10.3000002 5.5170002 0 0 1 3 5 5 0 0 0 12.5779906
842 5 11.8100004 1.225 -6.566 0 0 0 2 8 4 0 0 0 12.3919153
849 4 -1.73 3.603 11.8500004 0 0 2 2 3 4 1 1 0 11.3889694
850 5 5.4899998 18.25 -17.9699994 0 0 0 0 12 0 0 0 0 10.9017792
882 3 -7.6409998 17.1000004 16.0200005 0 0 0 1 10 2 0 0 0 12.0935726
899 4 -0.63 -9.3970003 -0.4079 0 0 0 0 12 2 0 0 0 12.2890892
901 4 1.454 19.1599999 -1.569 0 0 0 0 12 2 0 0 0 12.846715
915 5 -4.651 -22.1100006 -4.053 0 0 0 4 6 5 0 0 0 12.7411948
926 5 0.4289 7.652 8.9139996 0 0 0 1 10 4 0 0 0 13.0112381
936 1 2.3250001 13.1499996 -14.7600003 0 0 0 0 12 0 0 0 0 11.1205177
941 5 2.0699999 5.072 13.8599998 0 0 0 1 10 1 2 0 0 12.6356192
946 4 -1.4500001 -13.4899998 20.9899998 0 0 0 0 12 2 0 0 0 12.293252
950 3 -1.3480001 -1.517 6.4060001 0 0 0 1 12 3 0 0 0 13.2269392
951 5 9.4610005 16.8400002 -1.164 0 0 1 2 8 3 1 0 0 13.1555462
958 5 13.7399998 8.0410004 -2.085 0 0 0 3 8 2 0 0 0 11.5495625
961 2 -1.421 18.7000008 -17.4799996 0 0 0 3 8 2 0 0 0 11.5489922
962 4 -5.7540002 -14.7299996 -11.4399996 0 0 1 1 9 2 2 0 0 12.2817764
963 5 -8.3450003 -12.54 -15.2399998 0 0 0 3 6 5 0 0 0 12.1893911
978 4 -17.8700008 -19.8999996 13.5799999 0 0 0 0 12 3 0 0 0 12.701252
990 4 12.3699999 16.8299999 -1.293 0 0 1 3 6 5 1 0 0 13.6583014
995 1 1.926 -17.1499996 12.9099998 0 0 0 2 10 2 0 0 0 11.9431
1007 2 3.8110001 -4.763 -2.553 0 0 0 0 12 0 0 0 0 11.1987314
1010 4 -15.5600004 3.891 -20.7399998 0 0 0 1 10 4 0 0 0 12.6809302
1025 1 2.9200002 -12.7600003 11.7799998 0 0 0 3 6 5 0 0 0 11.8717938
1027 4 18.7600003 -9.4820004 8.4160004 0 0 0 0 12 3 0 0 0 13.5861464
1047 4 -8.6029997 20.8999996 2.612 0 0 0 3 8 3 0 0 0 12.0238152
1050 1 1.722 -10.2200003 18.5799999 0 0 0 0 12 0 0 0 0 10.7954951
1051 4 6.5120001 16.9699994 -19.4599991 0 0 0 0 12 0 0 0 0 10.9748736
1055 2 10.9200002 5.4780002 -8.1549997 0 0 0 3 6 3 0 0 0 10.9513246
1057 4 14.1499996 -8.4160004 -11.9899998 0 0 0 1 10 2 0 0 0 12.1857576
1059 4 -4.777 13.0200005 2.8900002 0 0 0 4 4 7 0 0 0 12.2607231
1063 5 -10.0500002 9.5609999 9.3369999 0 0 0 2 8 4 0 0 0 12.9012586
1072 4 -11.4499998 21.4699993 9.2849999 0 0 0 2 8 5 0 0 0 13.6803284
1089 4 13.6400004 -20.3400002 -16.5699997 0 0 0 0 12 3 0 0 0 12.683012
1094 5 -17.9099998 0.6329 11.1300001 0 0 2 2 5 5 1 1 0 12.4606018
1102 5 19.6299992 -19.4200001 -15.9200002 0 0 0 0 12 0 0 0 0 10.7625008
1110 5 3.1540001 -2.5480001 18.6499996 0 0 1 2 7 5 0 0 0 11.9722482
1118 1 15.4499998 -13.8800002 0.9937 0 0 0 0 12 0 0 0 0 11.0722523
1128 2 4.1129999 -19.3099995 0.8047 0 0 1 2 7 3 0 0 0 11.2215996
1153 5 7.0630002 -15.2799997 19.1299992 0 0 0 3 8 2 0 0 0 12.9283858
1159 4 4.5190001 -9.9259996 15.4399996 0 0 1 1 9 3 0 0 0 12.2754068
1167 4 -5.4949999 20.8199997 -12.5 0 0 0 2 8 4 0 0 0 11.9485732
1169 2 17.4699993 2.049 -19.9799996 0 0 0 0 12 0 0 0 0 11.6320896
1178 2 8.8870002 5.7430001 10.0299997 0 0 0 3 6 2 0 0 0 11.9767704
1187 5 -2.263 18.8700008 -13.7700005 0 0 2 0 9 2 1 0 0 12.1429977
1188 4 13.1300001 16.1700001 8.1199999 0 0 0 0 12 2 0 0 0 12.1730337
1190 2 6.7880001 -17.7999993 -16.9200002 0 0 0 2 8 2 0 0 0 11.0607119
1194 5 -16.4599991 12.6199999 17.6800003 0 0 0 2 8 4 0 0 0 11.8942184
1199 4 -13.7700005 -10.0200005 -15.1700001 0 0 0 0 12 2 0 0 0 12.285965
1214 5 -8.276 8.797 -21.4500008 0 0 2 4 2 4 2 0 0 12.5867186
1222 1 -6.5650001 16.7600003 -1.6 0 0 0 1 10 2 0 0 0 12.7004013
1244 3 -7.4619999 -10.6800003 -9.2779999 0 0 0 0 12 0 0 0 0 11.2045813
1247 1 13.8599998 0.8463 -20.0799999 0 0 1 3 4 5 1 0 0 12.129921
1261 4 7.119 18.8099995 20.4099999 0 0 0 3 5 4 0 0 0 11.5617733
1264 2 12.1999998 17.1599999 10.25 0 0 0 1 10 2 0 0 0 11.4815855
1272 4 19.3299999 18.4699993 -9.3070002 0 0 0 3 6 5 0 0 0 12.4919329
1276 4 -18.1800003 -20.7199993 9.0509996 0 0 0 1 10 3 0 0 0 11.6133909
1280 5 -6.4109998 1.278 -11.4899998 0 0 0 1 10 2 0 0 0 12.3413324
1283 4 20.3600006 2.5750001 12.96 0 0 0 1 10 3 0 0 0 12.3321476
1288 5 -9.1700001 -9.4020004 15.9300004 0 0 1 1 9 3 0 0 0 12.6473952
1299 4 -2.3350001 -10.9799996 6.2550001 0 0 0 1 10 4 0 0 0 12.530736
1302 4 9.0369997 -1.61 -19.0100002 0 0 0 2 8 5 0 0 0 12.8472692
1303 2 -2.602 5.4229999 -0.33 0 0 1 2 6 3 1 0 0 12.4964199
1305 5 10.3900004 14.1400003 4.816 0 0 0 0 12 2 0 0 0 12.5649033
1320 2 -10.3900004 12.6400004 12.0900002 0 0 0 0 12 0 0 0 0 11.1483975
1338 2 -6.243 20.6900006 -19.1100006 0 0 0 2 8 2 0 0 0 11.1073723
1339 5 7.6459999 2.1199999 3.3340001 0 0 0 2 8 5 0 0 0 12.7373953
1342 4 -8.0050001 18.6399994 17.9599992 0 0 0 1 10 4 0 0 0 12.4692965
1363 2 -6.2119999 -4.3540001 2.5350001 0 0 0 1 10 4 0 0 0 12.302372
1365 4 17.8999996 -10.2799997 -16.7999993 0 0 0 1 10 4 0 0 0 12.6483794
1370 4 -17.2999992 -19.9099998 15.8900004 0 0 0 2 9 2 1 0 0 12.5534792
1377 4 -3.81 -3.7200001 -12.4899998 0 0 1 3 7 4 0 0 0 12.9231854
1387 3 -12.6499996 -22.2000008 6.6370001 0 0 0 2 10 3 0 0 0 13.4989901
1398 4 -18.4400006 -6.2610002 -17.3400002 0 0 1 2 7 5 0 0 0 12.9488784
1434 5 -9.1160002 9.4359999 -11.2799997 0 0 0 3 8 2 0 0 0 12.877018
1435 4 -18.8400002 -11.9300004 -3.227 0 0 0 4 8 2 0 0 0 12.0900173
1445 2 6.1570001 3.0829999 8.4060001 0 0 0 2 8 2 0 0 0 11.5490809
1456 4 -6.9000002 -10.3199997 -19.9699994 0 0 0 4 6 5 0 0 0 12.3596316
1457 4 -5.3629999 2.888 3.694 0 0 0 1 10 2 0 0 0 11.9400978
1463 4 7.0469999 17.5400009 0.1579 0 0 0 3 6 4 0 0 0 12.3237238
1477 2 -1.4910001 -6.2420001 -19.4200001 0 0 0 3 6 4 0 0 0 12.1667748
1478 2 20.0699997 17.5900002 5.9990002 0 0 0 2 7 2 1 0 0 11.0590506
1492 5 -1.257 20.5200005 9.7650004 0 0 0 2 8 3 0 0 0 12.2636795
1502 5 4.1960001 6.2690001 -4.5100003 0 0 0 0 12 0 0 0 0 11.983101
1509 5 6.27 -19.7199993 16.7299996 0 0 0 3 8 3 0 0 0 12.4590378
1515 5 -7.3449998 0.7924 -19.3199997 0 0 0 0 12 0 0 0 0 11.3671599
1523 2 -8.066 13.4700003 -21.4099999 0 0 0 2 8 2 0 0 0 11.6287117
1545 4 6.5079999 -9.1099997 -16.5 0 0 0 2 10 1 0 0 0 11.5357466
1556 5 15.6599999 -6.929 -7.8600002 0 0 0 3 8 4 0 0 0 12.6655274
1565 2 -18.5599995 -7.4369998 -5.4889999 0 0 0 0 12 0 0 0 0 10.8216372
1583 2 -3.22 -7.388 2.6140001 0 0 1 3 5 5 0 0 0 11.3621359
1587 5 -15.5699997 -0.1494 -14.3100004 0 0 0 2 10 1 0 0 0 11.6972695
1599 4 15.3400002 18.6399994 -20.8799992 0 0 0 2 8 5 0 0 0 12.4628058
1605 5 13.8100004 13.0799999 -2.9430002 0 0 1 1 9 3 0 0 0 12.4064875
1607 4 0.6306 10.75 18.4599991 0 0 0 0 12 0 0 0 0 11.8909416
1615 4 13.29 20.6399994 0.421 0 0 0 3 8 2 0 0 0 11.7665587
1620 4 -11.2200003 -1.339 19.6100006 0 0 0 4 8 1 0 0 0 12.6733151
1627 4 -18.2900009 -20.0200005 -9.3219996 0 0 0 0 12 0 0 0 0 10.8613148
1634 5 13.9799996 18.2700005 -5.974 0 0 0 1 10 3 0 0 0 12.3451109
1642 4 10.3800001 -19.6100006 6.2690001 0 0 0 3 6 6 0 0 0 12.7109871
1657 5 -7.5120001 15.5200005 13.7700005 0 0 0 0 12 2 0 0 0 12.5988083
1663 2 -5.81 -3.5120001 11.1099997 0 0 1 0 9 3 0 0 0 11.1342354
1669 4 -7.9499998 -20.3700009 -5.2589998 0 0 0 0 12 3 0 0 0 13.1681814
1692 5 -16.5100003 -21.0400009 11.8599998 0 0 0 1 10 3 0 0 0 12.5744543
1694 2 10.5200005 -17.4899998 -3.701 0 0 0 1 10 2 0 0 0 11.6523218
1698 4 -5.2150002 -1.602 21.1700001 0 0 0 1 10 2 0 0 0 11.6054774
1702 2 7.033 -10.1099997 14.6000004 0 0 1 2 6 3 1 0 0 11.5332051
1706 4 6.4460001 0.2706 -9.4569998 0 0 2 2 5 5 1 0 0 12.6088772
1722 5 -1.407 -1.76 -1.888 0 0 0 4 5 5 1 0 0 12.9315548
1726 5 3.372 -8.1569996 -6.1750002 0 0 1 1 9 3 0 0 0 12.3067942
1730 5 15.1300001 19.8299999 9.3789997 0 0 0 3 6 5 0 0 0 12.1731281
1766 4 -6.6620002 -18.7299996 -3.243 0 0 0 0 12 2 0 0 0 12.7708807
1774 4 0.107 1.6690001 -12.4399996 0 0 0 0 12 3 0 0 0 12.8693172
1781 5 -17.3700009 19.3600006 7.0029998 0 0 0 2 8 1 2 0 0 12.0656815
1795 4 -0.545 20.7099991 -13.5 0 0 0 0 12 0 0 0 0 11.5284329
1805 4 -14.6599999 17.6700001 9.4350004 0 0 0 1 10 4 0 0 0 12.6633415
1807 4 18.8700008 -8.198 14.4899998 0 0 0 1 10 3 0 0 0 12.055377
1812 4 11.5100003 -8.0869999 15.3800001 0 0 0 2 8 4 0 0 0 12.5779209
1818 4 -5.1939998 0.6106 17.1000004 0 0 1 1 9 2 2 0 0 12.6200447
1829 5 -9.1540003 16.75 -19.6100006 0 0 0 0 12 0 0 0 0 11.3393088
1847 4 4.56 -21.7900009 -10.79 0 0 0 2 8 2 0 0 0 11.0346985
1851 1 -2.431 20.4300003 16.2199993 0 0 0 0 12 0 0 0 0 11.2165651
1865 2 12.6300001 -6.7389999 5.8720002 0 0 0 2 10 3 0 0 0 13.1792288
1873 4 3.1489999 -19.7700005 5.7430001 0 0 1 0 11 3 0 0 0 13.4365483
1882 2 11.6400004 12.1499996 15.6499996 0 0 1 1 9 3 0 0 0 12.4362564
1897 4 20.3099995 -0.2107 15.7299996 0 0 0 3 6 5 0 0 0 12.1565275
1905 4 -9.3269997 -5.8520002 12.0900002 0 0 0 1 10 4 0 0 0 12.2429142
1906 2 -5.5819998 17.3799992 0.7305 0 0 0 1 10 2 0 0 0 11.1272373
1920 5 11.3000002 -5.1659999 7.5409999 0 0 0 0 12 3 0 0 0 12.7758961
1942 5 4.5679999 -19.5499993 15.0 0 0 0 1 10 2 0 0 0 11.414321
1947 5 3.553 6.3169999 10.5100003 0 0 1 3 5 5 0 0 0 12.2811394
1951 4 8.1129999 21.2399998 17.1000004 0 0 0 1 10 4 0 0 0 13.3705998
1965 2 -5.4190002 1.392 -20.9200002 0 0 0 2 8 2 2 0 0 12.2974825
1970 2 18.7700005 19.6000004 -19.2600002 0 0 0 0 12 0 0 0 0 11.6583824
1975 4 -5.6440001 2.533 -18.5900002 0 0 2 1 7 4 1 0 0 12.5603457
1990 5 7.3899999 -8.8199997 -5.1999998 0 0 0 0 12 0 0 0 0 10.7555638
2013 5 1.119 12.3800001 -5.9060002 0 0 0 2 8 3 0 0 0 11.8284979
2016 4 -19.2600002 -13.6700001 13.6700001 0 0 0 3 6 4 0 0 0 12.3798285
2020 2 0.1079 -9.1400003 -17.2299996 0 0 0 0 12 0 0 0 0 11.1405029
2029 4 2.993 3.27 15.6300001 0 0 0 3 10 0 0 0 0 12.1284351
2041 5 18.1000004 1.28 16.4400006 0 0 0 0 12 2 0 0 0 12.3651466
2046 2 -15.0 -9.8999996 4.5510001 0 0 1 4 4 2 1 0 0 12.0203695
2053 2 -14.6300001 6.434 -1.541 0 0 0 1 12 1 0 0 0 13.0603886
2054 4 15.4600001 -3.3199999 6.888 0 0 0 0 12 2 0 0 0 12.4291935
2066 5 -6.1700001 -17.2800007 10.3100004 0 0 0 1 10 2 2 0 0 13.3609667
2082 2 -14.3999996 -14.8299999 -12.8599998 0 0 1 3 4 4 1 0 0 12.0712595
2085 5 22.3799992 18.5400009 -17.9699994 0 0 0 0 12 0 0 0 0 10.9358884
2089 1 -11.5600004 -4.988 12.1199999 0 0 1 3 5 4 0 0 0 11.4145775
2097 5 0.471 -7.4109998 -1.11 0 0 0 0 12 3 0 0 0 13.5032015
2104 2 17.4099999 -18.8700008 -15.6999998 0 0 0 0 12 0 0 0 0 11.2878122
2116 5 13.4600001 -14.4099999 -11.0500002 0 0 3 1 7 1 2 0 0 11.3432312
2119 2 -12.9899998 14.7700005 -4.066 0 0 0 0 12 0 0 0 0 11.5032492
2124 5 16.5900002 -15.6099997 13.87 0 0 0 1 10 2 0 0 0 11.587657
2126 5 14.8800002 -6.7420001 -13.5 0 0 0 2 8 4 0 0 0 12.0918608
2144 4 12.8500004 7.0710001 4.7820001 0 0 0 2 10 1 0 0 0 11.5164023
2147 1 13.3800001 -14.3299999 -16.0200005 0 0 0 2 8 3 0 0 0 11.0762224
2148 2 13.6800003 9.9709998 -6.7119999 0 0 0 0 12 0 0 0 0 11.1535149
2151 2 -8.3500004 6.7919998 21.25 0 0 0 0 12 0 0 0 0 11.7820893
2163 2 -1.983 15.6999998 10.4399996 0 0 0 0 12 0 0 0 0 11.4811058
2169 1 -19.8799992 -21.3999996 -7.8990002 0 0 0 3 6 4 0 0 0 11.622654
2180 5 1.7690001 1.749 -9.8369999 0 0 0 3 6 6 0 0 0 12.6526652
2183 2 19.1399994 6.619 -12.9399996 0 0 0 0 12 0 0 0 0 11.3208809
2202 4 -12.2200003 11.8999996 18.8899994 0 0 0 1 12 2 0 0 0 12.7689018
2208 2 8.8129998 12.1099997 3.593 0 0 0 3 8 2 0 0 0 11.7721939
2213 2 -18.0599995 -9.4949999 12.9399996 0 0 0 3 6 3 0 0 0 11.8192768
2214 2 4.881 -0.06347 -4.151 0 0 0 0 12 0 0 0 0 11.7808438
2219 5 19.8600006 -18.25 11.4799996 0 0 1 3 7 2 0 0 0 11.482955
2224 5 -8.9399996 -18.3799992 -17.6000004 0 0 0 1 10 2 0 0 0 11.8737392
2228 5 -9.3570004 16.4599991 -14.2200003 0 0 0 1 10 2 0 0 0 11.9776212
2232 3 4.5349999 -17.8299999 -9.6049996 0 0 1 2 7 5 0 0 0 12.0966282
2256 2 -13.9499998 3.546 -16.2800007 0 0 1 2 6 4 1 0 0 11.6730709
2265 2 20.8400002 0.156 -13.29 0 0 0 0 12 0 0 0 0 11.1201458
2273 5 11.6099997 -20.4500008 9.2209997 0 0 0 1 10 4 0 0 0 13.1358137
2274 1 20.4899998 6.2620001 7.4190002 0 0 0 1 10 3 0 0 0 12.7611857
2284 5 14.3999996 14.5 -14.8599998 0 0 0 1 10 4 0 0 0 12.586565
2285 4 -6.8909998 -8.2150002 -21.9699994 0 0 0 2 8 4 0 0 0 12.4226408
2295 1 -13.2799997 12.1300001 5.9429998 0 0 0 0 12 0 0 0 0 11.2343598
2296 4 -16.3199997 2.6730001 8.2629995 0 0 1 2 7 5 0 0 0 12.7418328
2298 5 13.7200003 21.0599995 -6.4640003 0 0 1 1 9 4 0 0 0 12.8101721
2304 4 13.9799996 -8.0640001 10.8000002 0 0 0 1 12 1 0 0 0 12.4331885
2317 4 -0.9825 1.8070001 19.7099991 0 0 0 0 10 2 0 0 0 11.5042582
2322 4 7.0549998 -7.7919998 -9.1960001 0 0 1 4 3 4 0 0 0 11.3922253
2337 5 18.75 -9.4610005 -14.75 0 0 0 5 6 2 0 0 0 12.0132332
2341 4 19.0300007 -5.7950001 -14.6199999 0 0 1 2 7 4 0 0 0 12.0674753
2354 2 -16.2199993 19.4500008 -9.1269999 0 0 0 3 6 4 0 0 0 11.4650498
2368 2 3.1229999 -15.4399996 -15.4600001 0 0 0 1 10 2 0 0 0 11.6368294
2369 5 0.7581 14.3900004 -10.2600002 0 0 0 0 12 3 0 0 0 12.8291378
2380 4 -18.5499993 -14.3100004 11.4099999 0 0 0 2 8 4 0 0 0 12.1989822
2385 4 -8.0749998 2.998 14.0500002 0 0 0 0 12 4 0 0 0 13.5023899
2386 2 20.9099998 21.0699997 -21.9300004 0 0 0 2 8 2 0 0 0 11.7848158
2407 2 2.026 7.8590002 2.0039999 0 0 0 4 6 2 0 0 0 11.7229615
2414 1 18.4400006 -12.8000002 -17.2000008 0 0 0 4 6 2 0 0 0 11.5698624
2418 4 -16.3299999 20.0599995 5.0029998 0 0 0 1 10 2 0 0 0 12.3526755
2427 4 -7.4600001 1.0880001 -16.9699994 0 0 0 1 10 3 0 0 0 12.0464869
2429 5 19.3999996 -17.2299996 20.9699994 0 0 0 1 10 2 0 0 0 12.4698706
2430 2 -17.7800007 1.485 -14.0299997 0 0 0 5 2 6 0 0 0 11.7321482
2441 2 -7.7989998 -16.9500008 8.3249998 0 0 1 2 9 2 0 0 0 12.8931198
2442 4 20.3299999 1.99 -20.5499993 0 0 0 1 10 4 0 0 0 13.23703
2443 5 21.5699997 20.3899994 2.949 0 0 0 3 6 5 0 0 0 12.7280722
2446 2 7.995 -9.8920002 -12.6300001 0 0 0 0 12 0 0 0 0 11.3380566
2451 2 -11.0 -4.0939999 1.329 0 0 1 3 7 2 0 0 0 11.6253195
2457 4 14.25 3.4920001 7.3769999 0 0 0 3 8 4 0 0 0 12.9399406
2466 2 -18.0400009 4.2230001 7.7779999 0 0 0 0 12 0 0 0 0 10.8292284
2482 5 -7.941 0.9116 -21.9300004 0 0 0 1 10 3 0 0 0 12.4769936
2489 2 6.1209998 -5.8179999 -8.2349997 0 0 0 3 8 2 0 0 0 11.6171561
2494 2 -11.9499998 -4.52 -8.6459999 0 0 0 0 12 0 0 0 0 11.4647923
2496 4 7.5700002 8.3380003 7.362 0 0 1 1 9 5 0 0 0 12.93295
2506 2 -8.0240002 20.3099995 0.3297 0 0 0 1 10 2 0 0 0 11.2444077
2513 5 17.6399994 17.5900002 -20.0499992 0 0 0 1 10 3 0 0 0 12.4636278
2520 4 -16.5400009 -11.7200003 18.7199993 0 0 0 1 10 3 0 0 0 12.5859556
2521 2 1.883 15.0299997 10.0500002 0 0 0 0 12 0 0 0 0 11.3693304
2523 4 15.4799996 12.2299996 21.0599995 0 0 0 1 10 4 0 0 0 13.2070417
2527 1 -8.5249996 -11.1099997 -13.2600002 0 0 2 2 4 5 0 0 0 11.748992
2541 2 -5.9829998 13.7399998 19.8700008 0 0 1 2 6 3 1 0 0 12.4155932
2543 5 -12.2100001 1.553 -1.1849999 0 0 0 1 10 4 0 0 0 13.1587133
2545 5 -11.8299999 3.645 10.9899998 0 0 1 4 5 5 0 0 0 12.3010912
2548 2 -5.1459999 -6.6630001 -16.8700008 0 0 0 0 12 2 0 0 0 12.2774201
2553 2 -5.3439999 3.3800001 -12.4300003 0 0 0 1 10 2 0 0 0 11.8870832
2557 4 1.577 17.1200008 -14.5699997 0 0 0 2 10 2 0 0 0 12.4713068
2562 5 -1.8170001 18.7399998 -20.0400009 0 0 0 3 9 2 0 0 0 13.2142277
2564 4 9.8210001 9.9650002 -11.9300004 0 0 0 4 8 3 0 0 0 13.0175858
2573 5 15.1599999 -3.972 13.7600003 0 0 0 5 6 2 0 0 0 12.1459074
2574 2 -5.3429999 -21.2800007 3.7330001 0 0 0 0 11 1 0 0 0 11.3258734
2594 2 9.5579996 -2.5520001 -8.2220001 0 0 0 0 12 3 0 0 0 12.4441834
2596 4 18.6900006 15.1400003 19.7999993 0 0 0 2 8 4 0 0 0 11.7401314
2619 5 -4.658 -7.217 20.8500004 0 0 0 0 12 2 0 0 0 12.0052776
2627 4 0.8867 -15.1899996 -16.9500008 0 0 2 2 8 2 2 0 0 12.968626
2632 4 5.0479999 1.074 -20.7800007 0 0 0 3 6 4 0 0 0 12.2189989
2644 2 7.5 17.7600003 10.2399998 0 0 0 3 6 6 0 0 0 12.5772219
2647 4 17.8099995 -5.797 -18.9200002 0 0 0 1 10 4 0 0 0 12.7131768
2657 4 -9.3310003 18.8600006 -15.0500002 0 0 0 1 10 2 0 0 0 12.0169373
2664 5 -15.6999998 -4.927 -18.3099995 0 0 0 5 4 4 2 0 0 11.8966628
2673 4 -17.9899998 -4.461 14.4300003 0 0 0 3 8 3 0 0 0 12.365799
2675 4 -8.8660002 4.6560002 10.1499996 0 0 0 2 8 4 0 0 0 11.7202254
2680 4 -14.4399996 12.9899998 -2.296 0 0 0 0 12 3 0 0 0 13.5907336
2695 4 -0.6069 -7.1609998 20.8500004 0 0 0 1 10 3 0 0 0 11.9245462
2719 4 -16.8199997 -16.1700001 8.6000004 0 0 0 0 12 0 0 0 0 11.1984854
2722 5 -13.9399996 20.9799996 0.9765 0 0 2 3 5 2 1 2 0 12.7042589
2752 2 19.9599992 16.1700001 -4.909 0 0 2 2 6 5 2 0 0 12.7823878
2754 5 -14.1999998 8.8800002 16.0499992 0 0 0 2 10 2 0 0 0 11.6649513
2760 5 -1.143 0.6723 -20.1200008 0 0 0 1 10 4 0 0 0 13.3247738
2768 2 11.3000002 5.8590002 -5.7880001 0 0 0 4 4 6 0 0 0 11.6248904
2774 4 13.6000004 1.045 6.7659998 0 0 1 2 7 5 0 0 0 12.6670542
2778 4 7.5050001 12.1400003 17.6299992 0 0 0 0 12 4 0 0 0 13.3003359
2782 4 -10.0500002 -21.0 13.3000002 0 0 0 1 10 4 0 0 0 13.7197886
2787 4 -18.2600002 1.967 6.7480002 0 0 1 3 7 3 0 0 0 12.5564022
2790 4 0.4211 17.9899998 3.132 0 0 0 2 8 5 0 0 0 13.3825159
2799 4 4.3940001 -12.1300001 -21.9300004 0 0 0 2 10 4 0 0 0 13.5835467
2800 4 -11.0799999 16.7299996 -21.0 0 0 0 3 6 4 0 0 0 11.243557
2802 5 -1.107 11.6800003 11.04 0 0 0 3 6 5 0 0 0 11.750577
2814 4 -18.25 -7.7919998 8.2010002 0 0 0 2 8 5 0 0 0 12.9367018
2820 4 16.4799996 -11.0299997 9.1809998 0 0 0 1 10 3 0 0 0 12.1864939
2823 4 -9.4919997 12.1899996 18.7099991 0 0 1 4 7 1 2 0 0 12.8167172
2824 4 18.7600003 6.9250002 5.3520002 0 0 0 1 12 1 0 0 0 12.5551625
2830 4 -16.0200005 -21.7900009 -16.3199997 0 0 0 4 6 4 0 0 0 12.6675158
2848 4 17.1100006 -17.2399998 1.0750001 0 0 0 2 8 3 0 0 0 11.3910208
2851 3 -12.0299997 2.174 -15.8500004 0 0 0 3 8 4 0 0 0 13.0334129
2857 4 -0.241 21.0300007 -2.843 0 0 0 1 12 1 0 0 0 12.4687338
2885 2 18.2700005 17.5 -17.75 0 0 0 0 12 3 0 0 0 13.254982
2895 4 7.0019999 -19.9300004 -4.856 0 0 0 2 8 4 0 0 0 11.9798594
2899 5 19.5400009 -11.9700004 -1.624 0 0 0 0 12 0 0 0 0 11.1708918
2906 4 18.0499992 9.5570002 1.95 0 0 0 1 12 1 0 0 0 11.7236157
2908 5 0.04375 8.4779997 0.598 0 0 0 2 8 3 0 0 0 11.94695
2914 2 1.073 -1.706 -6.1680002 0 0 0 0 12 0 0 0 0 11.2470274
2932 4 -8.903 -14.3400002 -1.536 0 0 0 1 10 3 0 0 0 12.6920204
2955 4 -5.1350002 8.5869999 -13.9700004 0 0 0 1 10 3 0 0 0 13.1087809
2966 5 -17.2600002 10.0299997 11.8999996 0 0 0 2 8 4 0 0 0 12.0051003
2975 5 9.8800002 -4.9699998 -6.8730002 0 0 1 2 7 5 0 0 0 12.35882
2985 4 -0.6258 3.5940001 -16.5499993 0 0 0 1 10 3 0 0 0 12.5017529
2993 4 15.9200002 -0.5145 9.9750004 0 0 0 2 8 4 0 0 0 12.8320647
2994 4 -9.1210003 -14.7700005 -14.4899998 0 0 0 1 10 4 0 0 0 12.5520754
3004 5 13.75 -2.29 -9.3760004 0 0 0 3 10 3 0 0 0 13.1172838
3009 4 10.04 -10.2399998 -7.7399998 0 0 0 0 12 2 0 0 0 12.6199084
3020 5 11.0699997 20.3899994 -9.5109997 0 0 0 1 10 2 0 0 0 11.9315406
3025 2 -15.4099999 -9.3360005 -3.5720001 0 0 0 2 10 1 0 0 0 11.7125244
3038 2 -15.4600001 6.5180002 20.0200005 0 0 0 0 12 0 0 0 0 11.2445669
3060 4 -8.3020001 21.0699997 -15.5699997 0 0 0 0 12 0 0 0 0 11.5710049
3068 2 7.87 3.648 6.4499998 0 0 0 1 10 4 0 0 0 12.3696756
3100 4 -0.1609 2.1570001 0.2277 0 0 0 1 10 3 0 0 0 12.6358586
3113 2 -18.1200008 -18.9200002 -14.8000002 0 0 1 2 7 2 0 0 0 11.239749
3115 4 1.255 8.2659998 -2.4419999 0 0 0 4 5 5 1 0 0 12.4960375
3118 4 4.8169999 -2.533 -3.2550001 0 0 0 1 12 2 0 0 0 12.627038
3134 2 6.6550002 7.717 -14.4499998 0 0 0 0 12 0 0 0 0 11.3282051
3150 2 19.3600006 19.3299999 8.0819998 0 0 0 2 8 4 0 0 0 12.4734001
3151 4 -13.9499998 16.4099999 20.4200001 0 0 0 2 8 4 0 0 0 12.3645897
3152 4 1.196 -17.3099995 -15.3999996 0 0 0 0 12 0 0 0 0 11.3359337
3158 2 14.6000004 -7.2129998 3.8670002 0 0 0 2 10 1 0 0 0 12.3198042
3159 5 -4.2930002 15.5200005 -5.8340001 0 0 0 2 8 3 0 0 0 11.3802767
3165 5 14.8199997 -15.1000004 18.4799996 0 0 0 2 8 4 0 0 0 12.3281622
3167 2 1.0650001 2.4920001 20.8700008 0 0 0 2 8 3 0 0 0 11.8241864
3174 4 -2.365 0.02075 -5.4499998 0 0 1 3 7 4 0 0 0 12.6800976
3180 2 19.9699994 19.6700001 -6.8610002 0 0 0 3 6 4 0 0 0 12.1644077
3182 4 18.5100003 -18.7600003 -18.3500004 0 0 0 0 12 4 0 0 0 13.2398873
3185 5 2.988 5.296 6.605 0 0 1 2 7 5 0 0 0 12.7100592
3186 5 8.9630004 -1.464 -2.267 0 0 1 0 11 1 0 0 0 11.978487
3189 5 -18.7099991 -13.8900004 19.0 0 0 0 2 8 5 0 0 0 12.5373802
3199 5 11.5699997 18.6800003 0.4611 0 0 0 3 10 0 0 0 0 12.605835
3201 5 -13.0 19.6000004 -12.8400002 0 0 0 3 6 5 0 0 0 11.9210816
3220 4 -6.7550001 19.5 -14.3900004 0 0 0 2 8 4 0 0 0 12.5034952
3222 4 16.3899994 -2.603 -10.0200005 0 0 0 1 10 2 0 0 0 12.1941137
3230 5 -16.9599992 7.099 -7.1170001 0 0 0 0 12 2 0 0 0 12.3980036
3234 4 -4.6469999 -7.3959999 5.0869999 0 0 0 1 10 4 0 0 0 12.7861166
3240 1 5.053 8.3959999 -12.7700005 0 0 0 0 12 0 0 0 0 11.5916271
3241 4 -10.6899996 21.3099995 -14.3800001 0 0 0 1 10 5 0 0 0 13.2050943
3246 5 1.105 -21.25 4.56 0 0 1 3 5 6 0 0 0 13.2512713
3267 5 6.8169999 -14.0200005 -7.9710002 0 0 0 1 10 4 0 0 0 12.6467991
3286 5 13.9499998 -7.731 14.9399996 0 0 0 0 12 0 0 0 0 11.3792381
3287 5 12.4300003 15.4499998 -16.5 0 0 0 0 12 0 0 0 0 11.3416653
3295 4 -17.8099995 -1.882 -19.9799996 0 0 0 0 12 2 0 0 0 12.5008478
3298 5 6.441 -20.9200002 14.3900004 0 0 1 1 9 2 0 0 0 11.9575778
3301 5 20.6499996 15.8500004 -7.2709999 0 0 0 1 10 2 0 0 0 11.671607
3315 4 5.7090001 -10.3900004 9.929 0 0 0 2 8 3 0 0 0 12.155674
3323 5 -15.1999998 0.8791 12.3500004 0 0 0 0 12 3 0 0 0 13.5998831
3337 5 -6.414 -16.1599999 1.27 0 0 0 0 12 0 0 0 0 10.677167
3343 5 -9.6260004 19.2399998 -6.599 0 0 0 0 12 0 0 0 0 11.5523415
3346 2 -15.8999996 -15.9099998 -4.3530002 0 0 0 1 10 2 0 0 0 11.4905997
3357 4 -10.7200003 12.79 -6.6160002 0 0 0 1 10 2 0 0 0 12.2083902
3362 1 -16.8400002 -5.5720001 -20.4099999 0 0 0 3 6 4 0 0 0 11.0773916
3365 5 -14.9700004 -2.86 -0.4773 0 0 0 3 6 4 0 0 0 12.3302641
3387 5 20.3299999 17.6900006 -19.5799999 0 0 0 0 12 2 0 0 0 11.949093
3406 5 -8.75 6.6279998 -0.4374 0 0 0 1 10 2 0 0 0 12.1717167
3408 5 -13.8100004 4.4899998 -13.6300001 0 0 0 0 12 2 0 0 0 11.8051663
3414 2 20.3500004 20.7800007 -4.7979999 0 0 0 3 6 3 0 0 0 11.4113293
3433 4 0.09904 18.3400002 -12.2399998 0 0 0 0 12 3 0 0 0 13.1923199
3444 5 15.0 -13.3999996 3.2349999 0 0 0 1 10 3 0 0 0 12.308239
3446 4 12.8500004 -10.0299997 6.764 0 0 0 3 8 4 0 0 0 13.4424267
3454 2 11.79 14.7100001 2.599 0 0 0 2 8 2 0 0 0 10.9540796
3456 5 -17.1299992 -19.7900009 7.0900002 0 0 1 2 7 1 2 0 0 11.300417
3465 5 -10.7700005 0.4937 -8.9329996 0 0 0 0 12 0 0 0 0 11.8195343
3467 4 5.132 -6.737 -10.5 0 0 0 3 7 3 1 0 0 12.5260296
3471 2 -15.0200005 -20.9099998 16.6200009 0 0 0 0 12 0 0 0 0 10.6206866
3481 4 3.3069999 -14.5200005 -17.7600003 0 0 0 1 10 2 0 0 0 11.7623062
3482 3 -13.7600003 8.3170004 4.3460002 0 0 0 3 6 4 0 0 0 12.5073557
3489 2 -3.8010001 -7.513 -19.3299999 0 0 0 2 8 5 0 0 0 12.7337437
3497 2 20.2399998 11.0900002 7.5209999 0 0 0 3 6 4 0 0 0 11.2762013
3501 4 10.6400004 -6.434 9.5419998 0 0 2 2 6 3 0 0 0 11.6026736
3507 5 -18.5900002 -11.5200005 17.7199993 0 0 1 3 7 4 0 0 0 12.3051176
3516 4 20.3199997 -8.9560004 2.3810001 0 0 1 1 9 2 2 0 0 12.3083534
3529 5 14.7299996 -8.4320002 -1.915 0 0 0 1 10 2 0 0 0 12.0287914
3536 5 -16.5499993 -22.0200005 1.4650001 0 0 0 2 8 5 0 0 0 12.5924492
3540 4 4.684 3.102 -8.3000002 0 0 1 3 5 5 2 0 0 12.9855862
3544 4 -9.0799999 2.904 21.5599995 0 0 0 2 8 4 0 0 0 12.6908579
3561 5 -1.879 14.6199999 6.0219998 0 0 0 3 6 4 0 0 0 12.1682844
3569 2 -15.3299999 -6.592 -13.4700003 0 0 0 0 12 0 0 0 0 11.2813511
3571 4 1.1440001 10.1999998 -0.9078 0 0 0 4 6 5 0 0 0 12.3067837
3589 4 -16.0799999 -7.2189999 -8.3979998 0 0 0 1 10 2 0 0 0 12.2975273
3597 2 15.6199999 -0.3017 -9.7279997 0 0 0 3 6 4 0 0 0 12.4848118
3613 4 -1.332 16.4699993 -13.3999996 0 0 1 1 8 3 1 0 0 13.0567799
3614 4 -2.747 2.4059999 7.131 0 0 0 2 8 4 0 0 0 12.2638445
3634 5 17.9099998 -13.4600001 -6.4460001 0 0 0 2 10 3 0 0 0 12.6313772
3636 4 7.955 -15.8000002 -0.884 0 0 0 2 8 5 0 0 0 12.8766756
3648 2 -3.84 19.0100002 5.3779998 0 0 1 2 7 4 0 0 0 12.1216974