ITEM: TIMESTEP
0
ITEM: NUMBER OF ATOMS
50688
ITEM: BOX BOUNDS xy xz yz pp pp pp
-20.3679009 62.540062 2.627157
-22.2159996 65.355896 0.0
-22.2159996 65.355896 0.0
ITEM: ATOMS id type x y z VoronoiIndex1 VoronoiIndex2 VoronoiIndex3 VoronoiIndex4 VoronoiIndex5 VoronoiIndex6 VoronoiIndex7 VoronoiIndex8 VoronoiIndex9 AtomicVolume
9 1 -6.6129999 -13.0100002 3.135 0 0 0 0 12 0 0 0 0 11.0561733
23 4 15.4200001 21.0100002 -0.5783 0 0 1 4 5 4 2 0 0 13.8164988
25 2 7.8200002 17.9200002 17.9599992 0 0 0 3 6 4 0 0 0 11.0405273
57 5 7.9039998 -5.2010002 -19.5400009 0 0 0 1 10 2 0 0 0 11.954032
71 2 3.5999999 16.4699993 -13.87 0 0 0 2 10 1 0 0 0 11.7394896
80 5 -0.5488 20.3400002 -15.7299996 0 0 1 2 6 2 1 0 0 12.0197048
81 4 16.4300003 -3.9360002 -9.2340002 0 0 0 0 12 0 0 0 0 10.6336937
82 5 -10.9899998 -15.8900004 -21.2099991 0 0 0 1 10 2 0 0 0 12.6265803
86 4 -17.9300004 12.1099997 19.9899998 0 0 1 2 8 4 1 0 0 12.8661672
91 2 2.993 17.5400009 -9.9099998 0 0 1 1 8 3 1 0 0 12.391922
101 1 -4.7909999 -19.4300003 -4.4109998 0 0 0 1 10 3 0 0 0 12.203496
102 2 -18.3799992 -15.6599999 -3.4879999 0 0 0 2 10 0 0 0 0 11.8631992
105 4 3.467 11.5699997 -16.0200005 0 0 1 3 4 5 1 0 0 11.8994876
110 5 -3.942 -18.7099991 2.8250001 0 0 0 0 12 3 0 0 0 12.817071
112 2 14.0699997 -4.1849999 15.1599999 0 0 0 2 8 2 0 0 0 11.4554644
128 5 -11.4499998 -12.8500004 6.877 0 0 1 1 9 4 0 0 0 12.8773166
141 5 5.0 6.731 -9.0039997 0 0 0 6 3 6 1 0 0 13.4742232
147 5 14.6700001 -2.869 10.2799997 0 0 1 3 7 5 0 0 0 13.2977743
148 2 -18.6000004 18.6800003 4.6440001 0 0 1 2 7 4 0 0 0 12.4550734
157 4 0.1411 20.3400002 13.0 0 0 0 4 4 6 0 0 0 12.7149649
159 4 17.0200005 -3.2509999 15.1099997 0 0 0 3 6 4 0 0 0 11.8246022
168 5 6.5029998 -8.8570004 -15.0699997 0 0 0 0 12 0 0 0 0 11.0642366
171 2 -0.2029 6.2690001 -10.1000004 0 0 0 0 12 0 0 0 0 11.3429203
174 4 -6.6409998 14.8299999 11.5100003 0 0 1 1 9 0 2 0 0 11.7218199
184 2 15.9499998 -2.1329999 12.6199999 0 0 1 2 7 3 0 0 0 11.3897696
186 5 14.3800001 11.6599999 -15.8299999 0 0 0 3 6 4 0 0 0 11.7669888
196 5 13.3000002 -8.4110003 -2.0079999 0 0 0 2 10 1 0 0 0 11.8150826
214 2 2.2509999 14.6800003 -17.9899998 0 0 0 3 6 4 0 0 0 11.4698334
217 2 -12.6300001 -6.968 19.3099995 0 0 0 1 10 2 0 0 0 12.0407887
220 2 -16.0100002 -20.0799999 -10.5799999 0 0 0 2 10 1 0 0 0 11.3811655
243 4 4.718 0.77 14.0799999 0 0 0 4 6 4 0 0 0 11.9838124
244 5 14.5500002 -12.8500004 19.0100002 0 0 0 2 8 4 0 0 0 12.6773615
245 1 -7.3480001 2.987 -21.4599991 0 0 0 3 6 3 0 0 0 11.7434597
247 2 11.79 13.1000004 -5.0489998 0 0 0 1 10 2 0 0 0 11.8481952
254 2 -7.263 18.2800007 -7.2529998 0 0 0 0 12 0 0 0 0 11.9168224
275 4 17.8600006 -0.9132 11.9399996 0 0 0 2 8 4 0 0 0 11.4443789
288 5 -9.4790001 12.9399996 21.4500008 0 0 1 2 6 3 1 0 0 11.8321057
291 4 -14.9899998 13.25 -13.9399996 0 0 0 2 8 5 0 0 0 12.8521576
295 4 -2.1819999 1.74 -9.5799999 0 0 0 1 10 4 0 0 0 12.6767941
299 5 0.5718 18.0799999 -19.6200009 0 0 0 1 10 2 0 0 0 12.0353212
302 5 -17.7000008 13.4099999 -8.4119997 0 0 0 0 12 0 0 0 0 11.523283
313 5 2.3640001 -15.0500002 3.73 0 0 0 1 10 4 0 0 0 14.1842661
314 5 -12.8400002 -21.3299999 3.434 0 0 0 0 12 3 0 0 0 13.1541519
327 4 0.2926 -3.3239999 14.9200002 0 0 0 2 8 6 0 0 0 13.5593138
335 1 -7.947 17.0599995 -15.4200001 0 0 0 1 10 2 0 0 0 11.7195692
348 4 -7.2220001 2.026 11.8400002 0 0 0 1 10 2 0 0 0 12.1316996
360 4 14.96 -21.7299996 -7.77 0 0 1 1 9 6 0 0 0 13.593298
364 4 -7.4029999 4.4289999 -15.2600002 0 0 0 3 8 3 0 0 0 14.0897036
387 4 18.6100006 -11.9700004 0.6739 0 0 1 1 9 4 0 0 0 12.1944332
397 1 -5.882 0.01979 19.1499996 0 0 0 0 12 0 0 0 0 10.5680399
401 4 -13.3900004 13.2700005 11.5500002 0 0 0 1 10 3 0 0 0 12.7902498
410 4 10.0600004 -4.6799999 7.4850002 0 0 0 0 12 0 0 0 0 11.4344292
412 1 -5.0250001 12.4200001 -7.507 0 0 1 0 11 1 0 0 0 11.4091969
415 2 -6.0929999 1.3250001 -13.1300001 0 0 0 3 6 4 0 0 0 12.0097561
419 2 7.836 -10.5699997 -10.87 0 0 1 1 9 4 0 0 0 12.6639128
420 5 12.3900004 -10.7100001 -10.6700001 0 0 0 4 6 3 0 0 0 12.5028143
432 5 5.3730002 8.3129997 8.3260002 0 0 0 2 8 5 0 0 0 11.9719172
438 4 -9.6750002 -19.6700001 16.1499996 0 0 1 1 9 3 0 0 0 12.6611624
439 4 -6.4470001 19.5200005 -15.6700001 0 0 0 5 4 6 0 0 0 13.8312044
442 4 6.5089998 16.6100006 -18.3400002 0 0 0 0 12 2 0 0 0 12.7205506
446 4 -16.7700005 6.1350002 3.694 0 0 0 3 6 4 0 0 0 12.002902
453 4 2.7360001 0.2701 7.6630001 0 0 0 2 10 2 0 0 0 12.7075911
459 4 -8.3850002 0.8019001 -20.9400006 0 0 0 1 10 4 0 0 0 12.800828
477 5 -10.54 -4.435 -3.4000001 0 0 0 4 6 6 0 0 0 12.916193
485 4 8.9280006 3.9790002 -15.5 0 0 0 0 12 2 0 0 0 12.0817061
515 5 2.7149999 -14.4899998 16.8199997 0 0 0 2 10 3 0 0 0 12.4230509
520 5 8.632 -17.1599999 11.4099999 0 0 0 3 7 3 1 0 0 12.9246788
527 5 -18.8199997 -10.4899998 18.2299996 0 0 1 0 11 3 0 0 0 11.8254004
533 4 12.2399998 4.3870001 -4.7750001 0 0 0 0 12 4 0 0 0 13.0078945
537 2 18.2399998 8.2819996 -9.4029999 0 0 0 3 8 0 0 0 0 10.8370257
539 2 -5.7459998 7.4770003 -21.7299996 0 0 0 2 8 2 0 0 0 12.0792122
540 5 -5.1490002 -17.6200009 0.4865 0 0 0 0 12 0 0 0 0 11.6778555
550 4 11.1999998 -10.9499998 12.1400003 0 0 0 1 12 1 0 0 0 11.9595538
562 2 6.5650001 -13.0799999 -21.9099998 0 0 0 0 10 2 0 0 0 11.4166823
564 4 16.8999996 -1.337 16.6700001 0 0 0 4 6 4 0 0 0 11.6773205
567 4 10.2100001 -14.3800001 20.6800003 0 0 0 0 12 0 0 0 0 11.0793705
576 5 -15.3699999 6.6339998 -17.1100006 0 0 0 0 12 0 0 0 0 11.7934551
580 2 19.1900005 -17.1200008 -10.8900004 0 0 0 1 10 3 0 0 0 11.8602458
585 4 14.4899998 -9.7209997 -11.8299999 0 0 0 2 8 4 0 0 0 12.2567568
603 5 -6.573 -19.4099999 -0.5496 0 0 0 1 10 2 0 0 0 11.4815102
620 4 2.52 15.6800003 8.026 0 0 0 1 10 2 0 0 0 12.170104
622 5 4.184 -5.4629998 5.4029999 0 0 0 0 12 2 0 0 0 12.1254463
642 4 -3.5650001 2.151 -20.0200005 0 0 0 4 8 3 0 0 0 12.6821175
643 5 17.2800007 -0.3113 -17.5499993 0 0 1 4 5 3 0 0 0 12.1459112
653 4 3.3480001 -17.4400006 3.4600001 0 0 0 0 12 4 0 0 0 13.9037524
654 4 3.961 -9.2959995 -0.6418 0 0 0 2 10 2 0 0 0 11.9605514
656 4 9.658 -14.4799996 15.1800003 0 0 0 1 10 3 0 0 0 12.7044697
666 4 -6.934 -10.9200002 -0.3342 0 0 1 1 9 3 0 0 0 11.6021443
673 2 11.6000004 5.3670001 12.7299996 0 0 1 0 11 1 0 0 0 11.8383398
679 4 10.6400004 12.8599998 17.8099995 0 0 0 0 12 0 0 0 0 11.410183
683 5 -4.8239999 10.87 18.8400002 0 0 1 1 9 3 0 0 0 12.4794779
687 5 17.7099991 -10.6400004 19.7999993 0 0 0 1 10 2 0 0 0 11.5547972
694 5 -14.7299996 15.6099997 5.013 0 0 2 3 4 7 0 0 0 12.7569914
697 4 -17.3199997 17.8099995 19.4300003 0 0 0 1 10 5 0 0 0 13.1305094
700 5 -19.0799999 -13.5500002 -9.5080004 0 0 2 0 9 3 1 1 0 12.8581744
706 5 -17.5599995 -1.122 1.372 0 0 0 3 5 4 1 0 0 12.3012886
716 4 2.691 3.7890001 4.2690001 0 0 0 2 10 1 0 0 0 11.5255013
717 4 9.8109999 -20.5599995 1.932 0 0 1 1 9 5 0 0 0 12.832819
728 5 7.2600002 -0.1073 3.4860001 0 0 1 3 5 5 0 0 0 12.1556664
745 4 4.2989998 -15.9799996 -17.5100003 0 0 1 1 7 5 0 0 0 12.2391987
761 5 -3.425 11.9300004 -12.4600001 0 0 0 2 8 4 0 0 0 12.3302536
770 4 -15.4399996 -19.6800003 18.8400002 0 0 0 0 12 2 0 0 0 12.4777651
775 2 0.5096 -14.3900004 21.4899998 0 0 0 2 10 0 0 0 0 11.6617317
781 4 -3.533 -20.5499993 -11.7299996 0 0 0 3 6 6 0 0 0 13.6351071
787 2 -17.3799992 -12.1499996 14.5200005 0 0 0 0 12 0 0 0 0 11.0199413
798 5 -6.8249998 20.7399998 -3.8150001 0 0 1 0 11 3 0 0 0 12.2493792
806 4 -5.6570001 3.7790001 16.6499996 0 0 0 2 8 4 0 0 0 13.0542421
831 4 -18.7000008 -12.6800003 17.0699997 0 0 0 3 8 4 0 0 0 12.27141
841 5 -10.75 21.3899994 -11.0799999 0 0 1 3 5 5 0 0 0 12.2962103
843 2 5.691 -4.1589999 -8.3219996 0 0 0 2 8 2 0 0 0 11.6687823
864 2 7.9390002 -4.1170001 0.9367 0 0 0 3 8 1 0 0 0 11.0224209
897 5 8.606 -4.947 10.7799998 0 0 0 2 8 2 0 0 0 11.6248608
917 5 12.3400002 -13.8900004 20.1599999 0 0 0 0 12 0 0 0 0 11.3598223
947 5 -16.0400009 15.0699997 -11.8599998 0 0 0 1 10 2 0 0 0 12.5683289
949 2 15.9099998 3.6329999 21.1700001 0 0 0 1 10 2 0 0 0 11.3389969
952 2 13.0600004 0.1115 0.8933 0 0 0 0 12 2 0 0 0 12.9702312
961 2 2.5079999 -21.0499992 -4.923 0 0 0 3 6 3 0 0 0 11.3592768
980 2 0.2413 20.0300007 16.8400002 0 0 0 0 12 0 0 0 0 11.1071062
990 4 8.0039997 -14.6199999 -20.4400006 0 0 0 0 12 2 0 0 0 12.5442648
996 5 17.0799999 -9.5880003 15.9799996 0 0 0 0 12 0 0 0 0 11.3801155
997 2 -18.5400009 14.6800003 -0.06427 0 0 0 2 8 2 0 0 0 11.2636948
999 4 2.974 9.3900004 -9.5749998 0 0 0 3 8 2 0 0 0 11.9119044
1009 5 9.8850002 10.7100001 18.0900002 0 0 0 0 12 0 0 0 0 11.4184961
1023 2 19.8400002 -3.1359999 -15.9899998 0 0 0 4 8 1 0 0 0 11.6587334
1027 4 -3.1240001 -11.6499996 17.2099991 0 0 0 2 9 3 1 0 0 12.565218
1034 4 14.87 6.7529998 -14.2200003 0 0 0 1 10 2 0 0 0 11.8403092
1039 5 11.4300003 10.3599997 -21.1599999 0 0 0 3 8 2 0 0 0 11.921034
1040 1 10.5200005 -14.9200002 -20.6499996 0 0 0 0 12 0 0 0 0 11.0186625
1053 4 -14.2700005 -0.6783 0.1836 0 0 0 0 12 2 0 0 0 12.1345062
1068 5 -2.662 4.145 -2.6300001 0 0 0 0 12 2 0 0 0 12.7759066
1070 4 -19.8999996 -9.9569998 -17.9500008 0 0 0 1 10 3 0 0 0 12.1439676
1087 4 -11.79 16.9599992 -0.02092 0 0 0 4 6 4 0 0 0 13.0558395
1089 4 -0.7707 -8.4619999 4.0170002 0 0 0 1 12 2 0 0 0 13.0570469
1091 5 2.0569999 -17.1399994 7.9190002 0 0 0 1 10 2 0 0 0 12.1561575
1094 5 12.0500002 2.0810001 19.1399994 0 0 1 0 9 3 0 0 0 11.3858109
1101 4 -4.3709998 -17.5599995 9.9280006 0 0 1 1 9 3 0 0 0 11.8034678
1111 4 -10.1599999 -18.8899994 20.4799996 0 0 0 0 12 3 0 0 0 13.4336853
1113 4 15.5600004 4.2849999 18.7399998 0 0 0 2 8 4 0 0 0 11.4750443
1127 2 -4.5310002 14.6000004 -3.1140001 0 0 0 2 8 2 0 0 0 11.861579
1129 2 18.2800007 19.4200001 19.9400006 0 0 0 0 12 0 0 0 0 11.3175116
1143 5 -3.135 10.7200003 -0.2012 0 0 0 1 12 1 0 0 0 12.7651758
1147 4 -9.8500004 1.397 -10.6099997 0 0 0 3 6 5 0 0 0 12.0186119
1152 2 -8.2399998 -13.04 -7.6859999 0 0 1 1 9 4 0 0 0 12.7383528
1158 2 4.599 12.9300004 13.1800003 0 0 0 0 12 0 0 0 0 11.7242365
1161 4 12.3199997 -1.828 -3.0840001 0 0 0 0 12 3 0 0 0 12.8529388
1171 5 1.811 -1.435 14.0299997 0 0 0 2 8 2 0 0 0 10.8679104
1175 4 7.6739998 16.0799999 15.9200002 0 0 0 0 12 3 0 0 0 12.1161289
1179 2 -18.2600002 -20.6499996 -2.319 0 0 0 2 8 2 0 0 0 11.6428976
1185 2 11.2799997 -4.7210002 -21.4300003 0 0 0 0 12 0 0 0 0 11.7537766
1190 2 -5.8010001 -16.4500008 -15.8900004 0 0 0 2 6 4 0 0 0 11.0772877
1191 4 -12.3900004 20.1100006 -12.5 0 0 0 3 8 2 0 0 0 11.9247132
1196 2 14.5500002 21.2800007 -18.8199997 0 0 0 3 6 3 0 0 0 11.2175245
1206 1 -16.3600006 19.3899994 10.5 0 0 0 3 8 1 0 0 0 11.3033133
1207 5 12.0699997 17.6700001 18.2999992 0 0 0 2 10 0 0 0 0 11.559124
1208 4 16.3199997 17.5599995 -5.006 0 0 0 1 10 2 0 0 0 12.4655447
1212 4 12.0100002 -3.286 11.2100001 0 0 0 4 4 6 0 0 0 12.963048
1214 5 19.7099991 4.5539999 15.9300004 0 0 0 2 10 0 0 0 0 11.3970518
1216 1 10.9799996 21.0200005 -13.5699997 0 0 0 3 5 4 1 0 0 12.0240021
1217 5 -6.4460001 10.2799997 3.5380001 0 0 0 2 8 5 0 0 0 12.8495722
1226 4 12.1599999 18.7199993 -16.1800003 0 0 0 2 10 2 0 0 0 12.6705895
1232 4 -15.9200002 5.942 -8.5699997 0 0 0 0 12 3 0 0 0 13.0453177
1246 4 11.2100001 10.5900002 -10.79 0 0 0 3 7 5 1 0 0 13.0345564
1249 2 -5.0450001 -8.5489998 21.1399994 0 0 0 2 8 1 0 0 0 11.241375
1250 2 -5.1890001 10.5600004 6.2210002 0 0 0 2 8 4 0 0 0 12.8673658
1252 4 -11.6499996 -17.6399994 -19.1700001 0 0 0 1 12 1 0 0 0 12.3019486
1258 4 -16.75 17.1100006 11.3299999 0 0 0 1 10 3 0 0 0 12.5805369
1261 4 8.316 -2.0120001 -0.4836 0 0 0 1 10 3 0 0 0 12.14151
1269 5 -11.0799999 -18.8400002 -6.6479998 0 0 1 1 9 4 0 0 0 12.3263598
1270 2 1.352 5.514 0.418 0 0 0 1 10 2 0 0 0 11.5930205
1305 5 -0.3177 16.3099995 13.9700004 0 0 0 2 8 4 0 0 0 12.4978934
1306 5 -2.9860002 15.9200002 -8.816 0 0 0 1 10 3 0 0 0 11.986848
1318 5 1.42 -3.3 -13.0900002 0 0 0 3 8 2 0 0 0 12.0476646
1325 4 18.2900009 21.1800003 4.0749998 0 0 0 1 10 2 0 0 0 12.2881355
1328 2 6.5040002 13.3100004 -5.1989999 0 0 0 0 12 0 0 0 0 11.6994772
1335 5 -1.964 -0.7918 20.4699993 0 0 0 1 10 2 0 0 0 12.2545633
1337 4 19.2399998 -13.6800003 -7.923 0 0 2 3 3 6 1 0 0 11.7739592
1340 4 15.8900004 14.5500002 -0.326 0 0 1 1 11 2 0 0 0 12.7096167
1352 4 -14.0799999 -20.8899994 17.4200001 0 0 0 2 8 5 0 0 0 12.6105929
1357 5 19.7600003 -9.8450004 -4.9780002 0 0 0 0 12 3 0 0 0 12.8558036
1371 4 18.5599995 8.7379999 -1.5160001 0 0 1 0 11 1 0 0 0 11.597517
1374 4 19.3600006 -7.3909998 1.629 0 0 0 1 10 3 0 0 0 12.0969057
1386 2 9.2650004 0.6721 4.7919998 0 0 0 4 4 6 0 0 0 11.831542
1387 3 -16.6599999 10.1700001 21.2299996 0 0 0 4 8 2 0 0 0 11.6862059
1388 5 14.8500004 -3.487 -7.296 0 0 0 0 12 0 0 0 0 11.21208
1393 4 6.4660001 -7.0209999 4.949 0 0 0 1 10 2 0 0 0 12.0639734
1400 2 -18.6000004 -6.026 21.5100003 0 0 0 2 8 0 2 0 0 12.2372141
1415 4 5.2849999 -14.1599999 -2.1500001 0 0 0 1 10 5 0 0 0 13.2003059
1419 4 15.9200002 -18.0799999 -14.2399998 0 0 1 3 7 2 0 0 0 12.0768242
1431 4 -15.5 -8.0620003 2.4489999 0 0 0 0 12 4 0 0 0 13.1431093
1433 5 4.1989999 -5.5050001 15.1999998 0 0 0 4 4 6 0 0 0 12.2366972
1444 4 -3.164 0.994 10.7799998 0 0 0 0 12 3 0 0 0 13.4530373
1447 4 7.3020001 -20.5300007 14.8000002 0 0 0 1 10 4 0 0 0 13.3945665
1450 1 19.8199997 5.263 -6.2880001 0 0 1 2 7 2 2 0 0 11.7650805
1452 4 -6.2340002 -8.9379998 -19.5400009 0 0 0 1 10 3 0 0 0 12.1085482
1469 2 7.1659999 -17.6700001 -1.676 0 0 0 3 10 1 0 0 0 11.7172051
1471 5 -13.5600004 -20.1399994 -10.2200003 0 0 0 2 8 3 0 0 0 11.8880816
1487 4 5.8579998 -16.6900006 -8.9720002 0 0 0 2 8 5 0 0 0 12.7072869
1504 5 11.3999996 4.6539998 -16.8899994 0 0 0 3 6 5 0 0 0 12.3808689
1516 2 17.7399998 17.9099998 -2.87 0 0 0 3 8 1 0 0 0 11.2477455
1525 2 -19.9099998 -17.6700001 -11.0699997 0 0 0 2 8 4 0 0 0 12.0910673
1533 2 10.6000004 0.6264 -6.033 0 0 0 0 12 0 0 0 0 11.4250946
1534 4 8.5459996 15.0600004 0.9806 0 0 0 3 7 4 1 0 0 12.6117802
1543 1 -14.0600004 -16.5300007 5.4070001 0 0 0 1 10 2 0 0 0 11.6704493
1548 4 14.7700005 -16.6599999 16.5799999 0 0 0 3 8 4 0 0 0 12.894188
1550 4 -0.2764 -14.6300001 -12.8299999 0 0 0 2 10 3 0 0 0 12.9880266
1561 4 -12.4300003 4.5770002 4.2870002 0 0 0 3 6 4 0 0 0 12.1384516
1566 1 10.1000004 0.8707 -8.4709997 0 0 0 0 12 3 0 0 0 12.6227341
1581 2 5.4660001 8.4280005 -3.84 0 0 0 0 12 0 0 0 0 11.3035841
1584 2 20.3299999 18.4099999 19.2399998 0 0 0 0 11 1 0 0 0 11.3339853
1585 3 -4.776 -19.5 14.7299996 0 0 0 0 12 0 0 0 0 11.0586367
1595 5 4.4860001 0.6673 -12.54 0 0 0 3 6 4 0 0 0 12.2880087
1605 5 9.467 -5.9530002 0.0483 0 0 0 2 10 1 0 0 0 12.01542
1618 4 1.0599999 -6.7100001 21.0699997 0 0 0 0 12 3 0 0 0 13.4419461
1622 4 9.2419996 13.7299996 -1.7410001 0 0 0 0 12 3 0 0 0 13.4516554
1625 4 10.8199997 -7.105 8.1660004 0 0 1 3 7 4 0 0 0 12.8772098
1630 4 3.922 -16.7900009 12.5600004 0 0 0 2 8 5 0 0 0 12.9710684
1632 4 1.868 -5.6770001 -13.3599997 0 0 0 2 8 4 0 0 0 12.3836403
1637 4 -20.2399998 -18.0599995 11.96 0 0 0 0 12 2 0 0 0 12.2607956
1644 4 6.7459998 11.7299996 13.9099998 0 0 0 0 12 3 0 0 0 13.2328959
1648 4 -18.5699997 8.0190001 -4.507 0 0 1 2 7 5 0 0 0 13.1507292
1667 4 -3.7100001 8.0799999 -8.8900004 0 0 0 2 8 4 0 0 0 12.2947302
1672 4 12.6400004 -19.2800007 -20.2800007 0 0 0 4 6 4 0 0 0 12.8629972
1687 5 17.2800007 -0.7497 14.4700003 0 0 0 1 10 2 0 0 0 11.8692894
1694 2 19.1700001 -1.3020001 3.267 0 0 0 0 12 0 0 0 0 10.6846142
1700 5 12.8299999 11.54 20.6499996 0 0 0 2 8 3 0 0 0 11.5349531
1702 2 -19.3899994 -6.605 12.3400002 0 0 2 2 8 1 0 0 0 11.5114756
1705 1 0.9649 -15.1000004 -0.1415 0 0 0 1 10 3 0 0 0 11.697424
1707 4 17.8999996 4.4720001 -12.1300001 0 0 0 3 6 4 0 0 0 11.9451838
1712 2 17.3199997 -14.4200001 -20.6100006 0 0 1 0 9 3 0 0 0 11.0906611
1714 4 19.0499992 0.3896 16.0799999 0 0 0 1 10 3 0 0 0 12.6102572
1724 2 -1.1 0.1676 -12.7799998 0 0 1 3 5 4 0 0 0 11.2786818
1730 5 -1.7560001 -2.5999999 18.5499993 0 0 0 2 10 3 0 0 0 13.0147371
1733 1 -3.763 -15.4200001 19.0900002 0 0 0 0 12 0 0 0 0 11.4200392
1737 4 15.9700004 -20.5799999 -0.5518 0 0 0 0 12 0 0 0 0 11.3785067
1743 4 -2.6400001 -18.3099995 0.5759 0 0 0 1 10 4 0 0 0 12.9720554
1745 4 -11.6000004 -21.3500004 16.4500008 0 0 0 1 10 2 0 0 0 11.2712317
1750 4 2.312 3.747 -1.1339999 0 0 0 3 6 4 0 0 0 12.2902737
1751 4 1.309 -12.5100003 -3.286 0 0 0 1 10 3 0 0 0 12.9061642
1772 2 -5.9299998 21.1399994 -19.9799996 0 0 0 0 12 0 0 0 0 10.6208229
1773 5 13.9099998 1.6180001 21.2600002 0 0 0 3 7 4 1 0 0 12.8543644
1792 1 -17.7800007 13.3000002 -19.9899998 0 0 0 0 12 0 0 0 0 11.602788
1796 2 13.9099998 -8.4849997 -20.7900009 0 0 0 0 12 0 0 0 0 11.3676186
1803 2 17.1100006 -4.6539998 -6.9640002 0 0 1 0 9 3 0 0 0 11.3651829
1813 4 -12.7600003 -2.3380001 -8.5520001 0 0 0 1 10 4 0 0 0 12.1413765
1834 4 19.0300007 17.2600002 21.2299996 0 0 1 3 4 6 1 0 0 12.9814836
1837 4 -14.1899996 11.29 -19.1900005 0 0 0 2 10 4 0 0 0 13.0585279
1838 2 6.916 17.6499996 -2.777 0 0 0 2 8 2 0 0 0 11.0163393
1849 5 0.1426 -7.8990002 -12.8599998 0 0 0 2 8 4 0 0 0 12.0120068
1852 4 -19.0200005 -13.5799999 1.849 0 0 0 1 10 2 0 0 0 11.563344
1853 2 19.7600003 21.1200008 -12.4899998 0 0 0 0 12 0 0 0 0 12.1966248
1854 4 18.0900002 -7.2470002 8.2959995 0 0 0 0 12 0 0 0 0 11.433301
1860 2 -6.4660001 -5.2230001 -16.7099991 0 0 0 1 10 2 0 0 0 11.883853
1865 2 -14.1099997 -8.3999996 14.6000004 0 0 0 2 8 2 0 0 0 10.9846898
1868 4 -12.0200005 5.803 6.7270003 0 0 0 1 10 4 0 0 0 13.137064
1873 4 17.3199997 -19.7299996 -8.3839998 0 0 0 0 12 2 0 0 0 11.9923802
1880 5 10.4499998 -19.5300007 20.1700001 0 0 0 1 10 2 0 0 0 11.8323021
1890 4 -8.6949997 -21.1000004 7.6220002 0 0 1 1 9 4 0 0 0 12.3326063
1893 2 12.6899996 -11.0900002 0.8773 0 0 0 0 12 0 0 0 0 11.6544457
1898 5 -11.6099997 17.2399998 21.1000004 0 0 0 0 12 0 0 0 0 11.6926804
1911 4 18.5799999 -13.54 5.5879998 0 0 1 3 6 3 1 0 0 11.7742644
1921 4 14.0 15.7399998 4.1950002 0 0 0 2 10 2 0 0 0 12.3847351
1925 2 17.0200005 -19.9500008 -15.4600001 0 0 0 2 8 2 0 0 0 11.3314848
1926 4 -1.7150001 7.23 -8.0249996 0 0 0 0 12 2 0 0 0 12.2274504
1928 4 -0.9637 5.6820002 1.329 0 0 0 1 10 3 0 0 0 12.5738507
1934 4 -2.79 16.6000004 -6.3629999 0 0 1 2 7 2 0 0 0 11.6094332
1935 4 7.941 -1.958 5.2839999 0 0 0 1 12 1 0 0 0 12.5417223
1938 4 -2.642 -3.1730001 -9.5850001 0 0 1 3 4 3 1 1 0 12.075141
1943 5 -7.3429999 20.1599999 -18.3700009 0 0 0 3 7 3 1 0 0 12.0267296
1947 5 -4.4840002 0.7453 17.2399998 0 0 1 1 8 3 1 0 0 12.5681629
1948 4 -2.6770001 -4.73 -11.4200001 0 0 0 0 11 2 1 0 0 12.2317982
1954 5 -6.592 -10.6899996 14.1099997 0 0 0 1 10 2 0 0 0 11.9976274
1955 4 -19.0300007 -6.5539999 -20.4599991 0 0 0 3 7 3 1 0 0 11.7942305
1986 4 -3.2620001 9.7559996 12.0799999 0 0 0 4 5 4 0 0 0 11.9462272
1993 5 -9.6339998 -8.2749996 -17.1599999 0 0 1 1 8 3 1 0 0 12.1800385
1996 4 -4.4429999 15.0500002 7.0380001 0 0 0 1 10 2 0 0 0 11.5994234
1998 2 -0.8509 3.2049999 7.2560001 0 0 0 2 8 4 0 0 0 12.3105631
2001 4 10.8900004 -5.7010002 5.277 0 0 0 2 8 5 0 0 0 13.2204218
2006 5 -10.6499996 -10.7799998 -20.2299996 0 0 2 2 5 6 1 0 0 12.6399975
2009 4 -8.7810002 -18.3799992 -1.49 0 0 0 0 12 2 0 0 0 12.5649452
2020 2 15.5600004 -3.3020001 4.0320001 0 0 0 4 6 4 0 0 0 12.1042337
2022 5 19.5100003 -12.3800001 19.4200001 0 0 0 0 12 2 0 0 0 12.1492939
2027 4 -1.944 -4.421 14.0200005 0 0 0 2 8 4 0 0 0 11.4717484
2028 2 -7.204 6.6279998 0.9654 0 0 0 1 10 2 0 0 0 11.687295
2045 4 -19.3799992 -3.0150001 13.8900004 0 0 0 4 4 6 0 0 0 11.8563272
2050 2 -11.6800003 -20.3099995 -15.8599998 0 0 0 1 10 2 0 0 0 11.255538
2052 5 -13.0200005 19.4899998 2.973 0 0 0 1 12 1 0 0 0 13.0330982
2055 4 9.9090004 -4.553 -10.2799997 0 0 1 1 9 3 0 0 0 12.9893886
2056 5 17.2800007 11.3299999 9.7229996 0 0 0 2 8 4 0 0 0 13.0116711
2062 2 9.3030005 15.2600002 -15.3999996 0 0 0 3 6 4 0 0 0 11.5061045
2073 4 -1.0 -14.4899998 -19.4699993 0 0 0 1 12 2 0 0 0 11.9135256
2081 5 -13.7700005 -14.9300004 1.384 0 0 0 0 12 2 0 0 0 11.7222853
2082 2 17.8799992 15.3999996 11.5 0 0 1 1 9 2 0 0 0 11.7587652
2083 4 0.4314 -19.6599999 -13.6099997 0 0 0 3 7 2 1 0 0 11.8443336
2087 5 -9.3100004 -9.0120001 -6.7410002 0 0 0 1 10 2 0 0 0 11.7975474
2093 5 -1.148 -15.5600004 11.6599999 0 0 0 0 12 0 0 0 0 11.5311814
2095 4 0.7206 -10.0799999 -20.1700001 0 0 0 0 12 3 0 0 0 13.4712105
2096 5 -16.1800003 -5.4180002 12.8299999 0 0 1 3 5 5 0 0 0 12.4314385
2107 5 -15.8900004 15.1999998 -7.0159998 0 0 1 1 9 5 0 0 0 14.0088501
2143 2 7.2399998 2.873 16.9400006 0 0 2 2 5 4 1 1 0 12.4034214
2154 4 18.0599995 14.1300001 -1.782 0 0 0 2 8 4 0 0 0 12.6032944
2160 2 12.9300004 8.764 2.6229999 0 0 0 3 6 4 0 0 0 11.9600364
2167 5 17.6599999 13.9099998 9.3149996 0 0 2 0 10 5 0 0 0 14.2877646
2176 5 9.1459999 12.8199997 0.7761 0 0 0 4 7 2 1 0 0 12.0739069
2178 4 -8.573 -20.1499996 -5.8270002 0 0 0 0 12 3 0 0 0 13.2064209
2181 4 -8.1009998 8.3140001 15.6099997 0 0 0 0 12 2 0 0 0 12.5513888
2185 2 -12.6199999 -20.8700008 -7.0180001 0 0 0 4 6 3 0 0 0 11.5245753
2187 2 -3.0680001 9.323 18.2000008 0 0 0 1 10 2 0 0 0 11.1428289
2197 2 20.3099995 16.7700005 5.9759998 0 0 0 2 8 1 0 0 0 11.2915096
2207 5 16.3099995 -9.4020004 -7.9759998 0 0 2 2 4 6 0 0 0 12.5780964
2212 4 -9.2819996 -5.7069998 -17.2000008 0 0 0 3 8 4 0 0 0 12.7209683
2241 4 6.52 -6.0209999 0.9075 0 0 1 1 11 2 0 0 0 12.538456
2242 2 -19.9300004 -11.2799997 20.3199997 0 0 1 3 5 5 0 0 0 11.5754462
2274 1 -4.7810002 -19.8999996 0.7912 0 0 0 3 6 4 0 0 0 11.1479025
2290 4 -1.5800001 -20.7900009 12.8500004 0 0 0 2 8 4 0 0 0 11.9596444
2291 2 -11.96 16.2800007 -14.8299999 0 0 0 2 8 4 0 0 0 11.6450634
2295 1 8.9440002 -2.714 18.0400009 0 0 0 4 6 3 0 0 0 11.8368178
2300 5 -19.2999992 -9.8590002 -11.8900004 0 0 0 1 10 2 0 0 0 12.3329029
2315 4 17.6599999 -0.07661 -21.4899998 0 0 0 4 8 1 0 0 0 11.6741495
2324 1 14.79 -10.25 10.3699999 0 0 0 4 4 5 0 0 0 11.8022032
2325 4 -14.1999998 -6.1399999 -6.6929999 0 0 1 2 7 3 0 0 0 12.0877123
2333 2 8.3900004 20.9699994 19.5499993 0 0 0 1 10 2 0 0 0 11.2110615
2334 5 -0.3433 8.1239996 14.8000002 0 0 0 5 4 4 0 0 0 12.0766554
2342 3 2.372 6.2179999 -15.7600003 0 0 1 1 8 3 1 0 0 12.7471533
2346 4 -14.3400002 -1.826 4.356 0 0 0 1 10 5 0 0 0 12.90932
2377 4 8.1689997 -20.5300007 21.0499992 0 0 0 0 12 0 0 0 0 11.2403956
2388 4 -4.2030001 6.8260002 -2.2750001 0 0 0 0 12 4 0 0 0 13.5463057
2389 2 -12.8800002 -16.1200008 -17.7299996 0 0 0 0 12 0 0 0 0 11.9052726
2400 2 -12.3800001 0.1229 20.1900005 0 0 0 3 6 3 0 0 0 11.1535025
2409 5 -6.204 21.0900002 19.7000008 0 0 0 1 10 2 0 0 0 11.4872513
2414 1 2.02 7.0689998 15.1999998 0 0 0 4 8 1 0 0 0 12.7861939
2428 4 -6.4260001 14.5799999 13.8299999 0 0 1 1 8 2 1 0 0 11.9539662
2437 2 -10.7200003 10.1999998 18.5200005 0 0 1 2 7 3 0 0 0 11.0980415
2438 1 12.1000004 -10.3699999 -1.2460001 0 0 0 0 12 0 0 0 0 10.7841826
2440 4 13.2799997 -12.5799999 -1.2840001 0 0 0 3 6 6 0 0 0 13.4163618
2465 5 -0.4281 -10.1999998 8.1009998 0 0 0 4 4 6 0 0 0 11.9969234
2476 1 14.0799999 -21.9400006 19.2800007 0 0 1 0 11 1 0 0 0 11.1400061
2480 4 13.6300001 11.1400003 -20.3099995 0 0 0 2 9 3 1 0 0 12.706234
2490 4 -19.5499993 1.507 -19.75 0 0 0 3 6 5 0 0 0 12.1018047
2497 4 -19.1000004 16.9400006 1.006 0 0 1 2 7 3 0 0 0 11.5881291
2502 4 -5.0159998 -10.9200002 -1.8 0 0 0 2 8 3 0 0 0 11.5340958
2504 2 -7.849 -9.684 -14.4700003 0 0 1 0 9 3 0 0 0 11.2927752
2509 4 -8.6029997 17.4500008 -21.3899994 0 0 0 2 8 5 0 0 0 12.7821551
2511 5 -5.2950001 6.4720001 -4.7189999 0 0 0 0 12 0 0 0 0 11.3800316
2519 4 9.856 -9.2399998 17.2099991 0 0 0 1 8 4 0 0 0 12.3490868
2520 4 5.152 -19.7099991 -5.9710002 0 0 0 1 10 4 0 0 0 12.4694166
2521 2 6.573 4.948 13.6199999 0 0 0 3 6 5 0 0 0 11.7681732
2524 4 -17.7900009 4.112 -2.2479999 0 0 0 0 12 2 0 0 0 12.88297
2526 2 -5.4060001 15.5 18.2900009 0 0 0 3 6 2 0 0 0 11.3684826
2534 5 -6.0580001 8.889 -17.4300003 0 0 1 2 7 5 0 0 0 12.3913946
2535 5 -4.0580001 -5.1090002 3.905 0 0 0 2 10 4 0 0 0 13.5539961
2577 3 0.3099 -3.7390001 10.4600001 0 0 0 0 12 4 0 0 0 13.4537697
2582 2 3.3050001 13.6499996 -11.5 0 0 0 2 10 1 0 0 0 11.7663784
2590 4 -5.947 10.79 11.3299999 0 0 0 1 12 1 0 0 0 13.0468493
2592 3 -12.4600001 14.8999996 -20.8099995 0 0 0 3 6 5 0 0 0 11.5014448
2594 2 5.5640002 2.78 -17.2299996 0 0 1 2 6 3 1 0 0 11.9527036
2595 5 -15.6199999 -15.6400004 2.9960002 0 0 0 1 10 2 0 0 0 11.4522448
2600 1 12.3699999 17.8500004 10.5299998 0 0 0 3 6 4 0 0 0 11.8311253
2608 5 5.625 -10.5600004 10.0900002 0 0 0 4 6 4 0 0 0 12.5481282
2613 5 -9.0 -10.4799996 20.2399998 0 0 0 4 6 5 0 0 0 12.662921
2615 2 11.0799999 -21.0100002 6.7379999 0 0 0 2 8 2 0 0 0 11.2684784
2623 3 -14.6000004 1.471 -20.3400002 0 0 0 2 10 1 0 0 0 11.9764624
2644 2 -6.6599999 21.1299992 0.6274 0 0 0 2 7 2 1 0 0 11.5868035
2648 2 4.158 -5.8280001 -14.04 0 0 0 0 12 0 0 0 0 10.9793472
2651 4 16.6100006 -20.4300003 9.908 0 0 0 1 10 2 0 0 0 12.1481762
2659 4 18.8400002 -3.6070001 -8.7989998 0 0 0 0 12 2 0 0 0 12.551384
2664 5 -20.0300007 -16.1000004 5.6630001 0 0 0 2 10 1 0 0 0 12.0146389
2672 2 -7.184 -15.0 10.8900004 0 0 0 5 2 6 0 0 0 11.824255
2680 4 19.4300003 -7.434 18.6499996 0 0 1 2 7 2 0 0 0 11.3381195
2692 4 -13.5900002 -7.5890003 -4.941 0 0 0 4 6 2 0 0 0 10.7828646
2697 1 -14.5 17.9300004 -3.188 0 0 0 2 8 4 0 0 0 11.7625542
2706 4 15.3199997 3.895 -12.5900002 0 0 0 3 6 6 0 0 0 12.9357968
2715 4 8.316 -5.368 17.9799996 0 0 0 1 10 4 0 0 0 12.3910828
2719 4 3.4649999 -8.7069998 -11.2200003 0 0 0 2 8 4 0 0 0 12.8872796
2741 5 14.0600004 12.8500004 1.347 0 0 0 2 10 0 0 0 0 10.912282
2771 5 10.1700001 -18.7099991 10.2200003 0 0 0 1 10 2 0 0 0 11.8232918
2773 2 11.6499996 -18.0799999 -15.6499996 0 0 0 0 12 0 0 0 0 10.842555
2784 5 0.208 -20.8500004 2.2720001 0 0 0 1 10 2 0 0 0 12.4429903
2789 5 -17.1800003 -19.7900009 -22.1200008 0 0 0 3 8 2 0 0 0 12.1763687
2803 5 -7.1370001 -14.9799996 -8.8540002 0 0 0 2 10 1 0 0 0 12.637765
2805 4 15.1300001 11.2299996 -2.5940001 0 0 0 3 6 6 0 0 0 13.0249586
2813 4 -6.0809999 -7.1110001 -10.3000002 0 0 0 1 10 4 0 0 0 13.264801
2823 4 4.2249999 -21.7000008 20.1000004 0 0 0 1 10 3 0 0 0 12.7734556
2830 4 -3.73 21.5100003 10.9899998 0 0 0 4 4 6 0 0 0 12.5927315
2840 2 -4.3070002 18.9500008 3.74 0 0 0 4 6 4 0 0 0 12.8989706
2848 4 -1.842 -8.467 6.4879999 0 0 0 2 8 5 0 0 0 12.2846785
2850 4 -2.273 3.5050001 10.8900004 0 0 0 0 12 0 0 0 0 11.7087279
2860 1 5.5209999 -1.283 -18.5499993 0 0 2 4 4 2 2 0 0 11.702487
2864 4 -3.9230002 17.25 21.0699997 0 0 0 2 8 0 2 0 0 11.2223444
2871 5 -7.3670001 15.4399996 -13.29 0 0 0 2 9 2 1 0 0 12.833149
2878 2 3.2809999 -7.54 8.8620006 0 0 0 2 8 4 0 0 0 12.4502011
2889 2 -19.4400006 5.3410001 -15.5600004 0 0 0 2 8 2 0 0 0 11.4092436
2900 4 4.5 4.1919999 -21.3199997 0 0 0 2 10 1 0 0 0 11.7246447
2902 2 -19.4200001 -11.4099999 5.9460002 0 0 0 0 12 0 0 0 0 10.9723454
2906 4 -15.54 17.8999996 -20.5300007 0 0 0 3 8 4 0 0 0 12.8384352
2911 4 2.8110001 18.3999996 -12.3599997 0 0 0 0 12 2 0 0 0 11.8744154
2929 4 -10.7299996 -13.8299999 -14.4200001 0 0 0 2 8 4 0 0 0 12.3456946
2933 4 -15.0 -22.2099991 -17.3999996 0 0 0 3 7 5 1 0 0 13.1762266
2942 4 -0.5297 -19.1700001 14.4600001 0 0 1 2 7 4 0 0 0 11.7285309
2961 4 3.501 -10.87 -9.75 0 0 1 1 9 3 0 0 0 11.6282387
2963 2 -18.0900002 -14.9200002 10.3900004 0 0 0 0 12 0 0 0 0 11.2740278
2993 4 16.0699997 21.3299999 -17.0100002 0 0 0 1 10 4 0 0 0 12.406004
2994 4 -2.806 -9.6339998 -0.7914 0 0 0 0 12 3 0 0 0 12.397233
2995 2 9.8579998 -2.355 15.2399998 0 0 1 2 7 3 0 0 0 11.870759
2997 2 -14.1499996 -8.0889998 -21.2600002 0 0 0 1 10 2 0 0 0 11.5281019
2999 2 19.8099995 19.8700008 0.5582 0 0 0 2 8 2 0 0 0 10.9176446
3019 4 20.2900009 16.8299999 -8.8020001 0 0 0 1 12 3 0 0 0 13.977028
3020 5 17.6399994 6.132 -19.25 0 0 0 3 7 4 1 0 0 12.2428913
3021 5 -0.7687 -10.6599999 0.4881 0 0 0 2 8 5 0 0 0 12.3521204
3024 5 -1.4980001 7.4850002 -21.1299992 0 0 0 3 8 4 0 0 0 12.4720707
3025 2 -18.1399994 5.8470002 1.5880001 0 0 0 1 10 2 0 0 0 12.3301048
3048 4 4.6539998 10.5 14.3699999 0 0 0 0 12 3 0 0 0 13.2837162
3056 4 16.0799999 -15.7200003 -8.4099999 0 0 0 0 12 3 0 0 0 12.6490546
3064 2 19.7700005 -14.5299998 -20.5699997 0 0 0 1 10 2 0 0 0 11.8850242
3066 2 -16.1399994 5.3309999 -12.8400002 0 0 0 0 12 0 0 0 0 11.7292891
3070 4 15.4399996 4.4089999 14.7100001 0 0 0 1 12 2 0 0 0 12.5015364
3072 4 -10.9099998 -4.6149998 -18.6900006 0 0 0 1 10 4 0 0 0 12.4820128
3083 4 -10.2100001 -10.29 -8.9580002 0 0 1 2 7 4 0 0 0 12.8344984
3109 5 -18.6399994 15.3800001 18.1000004 0 0 1 2 7 4 2 0 0 12.3678703
3110 2 7.2560001 16.8700008 2.099 0 0 0 3 6 4 0 0 0 11.5708781
3119 5 15.1800003 10.87 13.8400002 0 0 1 0 11 3 0 0 0 12.7013054
3123 5 -19.6800003 -18.7800007 19.8099995 0 0 1 4 5 5 0 0 0 12.5470572
3126 2 -11.5100003 -1.113 18.2399998 0 0 2 2 5 6 1 0 0 13.6974154
3129 2 3.5209999 14.8000002 -7.0939999 0 0 1 2 7 2 0 0 0 10.8883476
3137 2 6.2290001 -3.596 -19.0599995 0 0 1 2 6 2 1 0 0 11.851387
3142 2 -7.033 13.3199997 -17.0300007 0 0 0 1 12 1 0 0 0 11.9741678
3157 5 -16.4200001 15.3999996 -14.75 0 0 1 3 6 2 2 0 1 12.6513272
3169 5 -1.74 18.3600006 7.982 0 0 0 2 8 4 0 0 0 12.0448847
3174 4 -2.5810001 -3.7260001 16.3899994 0 0 0 3 7 2 1 0 0 12.0658302
3190 2 2.112 13.4499998 8.7440005 0 0 0 0 12 0 0 0 0 11.3121147
3193 2 18.7900009 2.51 9.3879995 0 0 0 0 12 0 0 0 0 11.6943503
3204 1 -18.5599995 16.2099991 12.8000002 0 0 1 2 7 4 0 0 0 11.6050949
3219 4 -2.684 6.7150002 18.6800003 0 0 1 4 3 4 2 0 0 12.2349119
3231 5 13.5 18.5799999 3.1240001 0 0 0 0 12 2 0 0 0 12.857338
3238 5 6.737 -21.7399998 19.0 0 0 0 1 10 4 0 0 0 12.5682373
3240 1 -11.1999998 20.3700009 -3.5899999 0 0 0 0 12 0 0 0 0 11.0025845
3242 2 0.57 0.2419 12.5900002 0 0 0 0 12 0 0 0 0 11.3625527
3248 4 -15.4399996 -6.0430002 6.757 0 0 0 0 12 3 0 0 0 13.4720125
3253 5 10.1400003 4.4159999 10.7299996 0 0 1 1 9 4 0 0 0 12.5979586
3257 4 5.3280001 -15.1099997 -21.1900005 0 0 0 2 7 4 1 0 0 12.087327
3260 4 -17.9699994 -16.7399998 3.902 0 0 0 2 8 3 0 0 0 11.6782828
3274 2 -0.3936 15.2399998 16.5599995 0 0 1 2 6 3 1 0 0 11.9455194
3278 4 18.5900002 -8.5369997 -18.6299992 0 0 1 0 9 3 0 0 0 11.7562657
3282 5 6.9850002 14.1599999 20.3299999 0 0 2 0 8 2 2 0 0 12.1198654
3283 4 -13.2700005 17.2700005 -21.9400006 0 0 0 3 6 4 0 0 0 12.138279
3298 5 -1.959 -0.4741 8.3549996 0 0 2 0 8 2 2 0 0 12.1486864
3303 5 -2.9860002 -8.5270005 14.1800003 0 0 0 1 10 2 0 0 0 11.9966994