ITEM: TIMESTEP
0
ITEM: NUMBER OF ATOMS
50688
ITEM: BOX BOUNDS xy xz yz pp pp pp
-20.3679009 68.1446686 8.2317591
-22.2159996 65.355896 0.0
-22.2159996 65.355896 0.0
ITEM: ATOMS id type x y z VoronoiIndex1 VoronoiIndex2 VoronoiIndex3 VoronoiIndex4 VoronoiIndex5 VoronoiIndex6 VoronoiIndex7 VoronoiIndex8 VoronoiIndex9 AtomicVolume
9 1 -8.8190003 -13.0200005 3.4730001 0 0 0 0 12 0 0 0 0 10.7389889
23 4 15.3299999 20.9899998 -0.5678 0 0 0 4 6 1 4 0 0 13.8289538
25 2 7.6789999 18.3600006 18.2700005 0 0 0 3 6 4 0 0 0 11.4738131
35 2 21.0599995 14.7600003 -13.3800001 0 0 0 3 6 4 1 0 0 12.1151743
42 2 21.7399998 15.6999998 -9.632 0 0 0 3 6 5 0 0 0 12.753048
57 5 6.4050002 -5.0599999 -19.4699993 0 0 0 2 10 1 0 0 0 12.5007229
71 2 3.0039999 16.4599991 -14.04 0 0 0 2 8 3 0 0 0 11.6012221
80 5 -1.193 20.8199997 -16.2099991 0 0 0 3 7 4 1 0 0 13.1704731
81 4 14.87 -3.665 -9.2399998 0 0 0 0 12 0 0 0 0 10.7956066
82 5 -13.3000002 -15.6199999 -21.2600002 0 0 0 1 10 2 0 0 0 12.1627674
91 2 2.467 17.4699993 -10.0100002 0 0 1 1 8 3 1 0 0 11.966053
101 1 -7.6869998 -19.6100006 -4.2030001 0 0 0 2 10 0 0 0 0 11.3330765
105 4 2.7430001 11.6899996 -16.1299992 0 0 0 2 8 2 0 0 0 11.145607
110 5 -6.4600001 -18.4899998 2.8299999 0 0 0 1 12 2 0 0 0 13.3030424
112 2 11.9200002 -4.3000002 15.1599999 0 0 0 2 8 3 0 0 0 12.5689802
128 5 -13.6400004 -12.9499998 7.1500001 0 0 0 3 7 3 1 1 0 12.9566956
141 5 4.026 6.8000002 -9.3590002 0 0 0 3 6 4 0 0 0 12.6986113
147 5 12.6099997 -3.0539999 11.2100001 0 0 1 1 9 2 0 0 0 11.5855055
157 4 0.1671 20.6900006 13.3699999 0 0 0 2 8 4 0 0 0 12.6345387
159 4 15.6999998 -3.2179999 14.9799996 0 0 0 2 8 2 0 0 0 11.1122503
168 5 4.9580002 -8.8470002 -15.04 0 0 1 1 9 3 0 0 0 12.1949558
171 2 -1.028 6.4970002 -10.1599999 0 0 0 0 12 0 0 0 0 11.6081915
174 4 -6.6609998 14.5100003 11.5 0 0 0 0 12 0 0 0 0 11.3813362
184 2 14.2399998 -1.992 12.7799998 0 0 1 2 7 3 0 0 0 11.2149668
186 5 13.8999996 11.8800002 -15.8199997 0 0 0 3 6 4 0 0 0 11.8336573
196 5 11.5200005 -8.0369997 -1.972 0 0 1 1 9 3 0 0 0 11.7446471
214 2 1.425 14.6999998 -18.1100006 0 0 0 3 6 4 0 0 0 11.6521645
217 2 -14.5600004 -7.1100001 19.3500004 0 0 1 2 7 3 2 0 0 12.2438936
220 2 -18.6399994 -20.1299992 -10.3299999 0 0 0 2 8 2 0 0 0 11.2079992
243 4 3.5250001 0.5623001 14.2200003 0 0 0 3 6 5 0 0 0 11.3514567
244 5 12.3500004 -12.8100004 18.8600006 0 0 0 1 10 4 0 0 0 12.6483078
245 1 -8.2939997 2.997 -21.6599999 0 0 0 3 6 4 0 0 0 12.141366
247 2 11.4399996 13.1800003 -4.902 0 0 0 1 10 2 0 0 0 11.92484
254 2 -7.5700002 18.1700001 -7.2140002 0 0 0 0 11 1 0 0 0 12.22785
275 4 16.0799999 -0.7756 11.79 0 0 0 3 6 4 0 0 0 12.4228039
288 5 -10.2700005 13.1099997 21.5400009 0 0 1 3 6 3 1 0 0 12.3888016
291 4 -15.7799998 12.8900004 -13.7399998 0 0 0 2 10 3 0 0 0 12.2975159
295 4 -3.1770001 2.4990001 -9.6949997 0 0 1 2 9 3 0 0 0 12.3873625
299 5 -0.1247 18.2600002 -19.6700001 0 0 1 1 9 3 0 0 0 12.0725203
300 2 19.3600006 -8.6540003 1.549 0 0 0 4 4 5 0 0 0 11.6404104
313 5 0.2662 -14.6499996 3.767 0 0 2 1 8 2 2 1 0 13.1184321
314 5 -15.1000004 -21.6100006 3.638 0 0 0 1 10 5 0 0 0 13.3443852
327 4 -1.304 -3.467 15.2299996 0 0 0 2 8 5 0 0 0 13.0066957
335 1 -8.5640002 16.9300004 -15.1999998 0 0 0 2 8 3 0 0 0 11.5695124
348 4 -8.6560002 2.086 11.7600003 0 0 0 1 10 2 0 0 0 11.989049
360 4 11.5500002 -21.4300003 -7.4770003 0 0 0 3 7 5 1 0 0 13.7578793
364 4 -8.1140003 4.2820001 -15.3400002 0 0 0 3 8 3 0 0 0 13.964447
387 4 16.5900002 -11.6400004 0.7331 0 0 0 3 7 4 1 0 0 12.7868157
397 1 -7.415 0.2574 19.2600002 0 0 0 2 8 2 0 0 0 11.7926502
401 4 -14.3199997 12.6199999 11.4499998 0 0 0 3 9 3 1 0 0 12.9539928
410 4 8.868 -4.6570001 7.8109999 0 0 0 1 10 3 0 0 0 12.5898743
412 1 -5.737 12.5 -7.27 0 0 0 1 10 2 0 0 0 11.2530193
415 2 -6.8870002 1.489 -13.0699997 0 0 0 2 8 3 0 0 0 11.9555216
419 2 6.547 -10.4300003 -11.3100004 0 0 1 3 5 4 0 0 0 11.3908854
420 5 10.8000002 -10.29 -10.6400004 0 0 1 5 1 6 0 0 0 12.1164198
432 5 4.5 8.5640002 8.1280003 0 0 0 1 10 3 0 0 0 12.2955322
438 4 -12.2200003 -19.9599992 16.3500004 0 0 0 1 10 3 0 0 0 13.5105906
439 4 -7.1799998 19.0499992 -16.3400002 0 0 0 4 4 6 0 0 0 12.8372059
442 4 5.9980002 16.5699997 -18.4500008 0 0 0 0 12 2 0 0 0 12.4517355
453 4 1.2740001 0.6562 7.849 0 0 0 1 12 1 0 0 0 12.9104272
459 4 -9.4189997 0.5882 -21.25 0 0 0 1 10 4 0 0 0 12.7667513
465 3 20.6299992 -10.4099999 -15.4899998 0 0 1 0 9 3 0 0 0 11.4821654
477 5 -12.4700003 -4.941 -3.878 0 0 0 5 4 5 0 0 0 12.3664894
485 4 7.923 4.0749998 -15.3699999 0 0 0 1 10 3 0 0 0 12.3069391
515 5 0.4403 -14.8199997 16.9099998 0 0 0 1 10 4 0 0 0 12.1680899
520 5 6.3509998 -17.0699997 11.4899998 0 0 0 2 10 2 0 0 0 12.3731966
533 4 11.3199997 4.5939999 -4.7430001 0 0 0 0 12 4 0 0 0 13.14993
537 2 17.3700009 8.3280001 -9.5410004 0 0 0 2 8 2 0 0 0 11.0559368
539 2 -6.8460002 7.4720001 -21.8600006 0 0 0 2 8 2 0 0 0 11.0659828
540 5 -7.6659999 -17.8500004 0.6504 0 0 0 0 12 0 0 0 0 11.1262102
550 4 9.0930004 -10.6599999 12.1700001 0 0 0 1 10 3 0 0 0 12.4492979
562 2 4.5520001 -13.2600002 -21.8299999 0 0 0 0 12 0 0 0 0 11.2292757
564 4 14.8199997 -1.857 17.2000008 0 0 2 3 5 6 1 0 0 12.7978716
567 4 7.9990002 -14.3699999 20.6800003 0 0 0 0 12 0 0 0 0 11.5535069
574 5 17.8700008 -16.6700001 -12.7600003 0 0 0 3 6 5 0 0 0 12.487216
576 5 -16.2999992 6.6680002 -16.8500004 0 0 0 0 12 0 0 0 0 11.5200672
580 2 17.5 -15.6099997 -10.6400004 0 0 1 3 5 4 0 0 0 11.3744984
585 4 12.75 -9.3479996 -11.6899996 0 0 0 4 8 2 0 0 0 12.3596754
603 5 -9.0030003 -19.5599995 -0.4591 0 0 0 3 8 2 0 0 0 11.7947779
620 4 2.0339999 16.0499992 8.1389999 0 0 0 3 6 4 0 0 0 12.2797985
622 5 2.52 -5.02 5.4629998 0 0 0 0 12 2 0 0 0 12.5807343
642 4 -4.4229999 2.303 -20.2099991 0 0 0 2 10 3 0 0 0 12.6931334
643 5 15.79 -0.2201 -17.6399994 0 0 1 2 7 3 0 0 0 11.9400378
650 2 18.3799992 -12.9799996 17.1100006 0 0 0 0 12 0 0 0 0 11.1926956
653 4 0.8571 -17.1499996 3.4990001 0 0 0 0 12 4 0 0 0 13.4582882
654 4 2.0239999 -8.7559996 -0.4728 0 0 1 2 9 3 0 0 0 12.7209721
656 4 7.2969999 -14.4899998 15.1099997 0 0 0 0 12 2 0 0 0 12.962409
665 4 -7.4980002 -7.7620001 -22.2099991 0 0 0 3 6 5 0 0 0 12.0095091
666 4 -9.1339998 -11.1700001 -0.5662 0 0 0 0 12 3 0 0 0 13.1256657
671 2 19.4500008 -0.842 17.2700005 0 0 1 2 9 1 0 0 0 11.5434551
673 2 10.5200005 5.4159999 12.6300001 0 0 0 0 12 0 0 0 0 11.7305861
679 4 10.0200005 13.1099997 17.4500008 0 0 0 0 12 0 0 0 0 11.2732515
683 5 -5.5520001 11.0600004 18.8400002 0 0 0 3 7 4 1 0 0 12.8336172
687 5 15.5100003 -10.54 19.7800007 0 0 1 3 7 2 2 0 0 12.2367163
694 5 -15.4399996 15.54 5.3109999 0 0 0 1 10 4 0 0 0 13.2217589
716 4 1.77 4.184 4.4559999 0 0 1 4 5 3 0 0 0 12.0289507
717 4 7.3709998 -19.9899998 1.89 0 0 2 0 10 4 0 0 0 12.5675898
728 5 5.96 -0.1358 3.952 0 0 0 1 12 2 0 0 0 12.9015188
740 2 21.8099995 4.329 17.6299992 0 0 0 4 6 3 0 0 0 11.5391016
745 4 1.7430001 -16.2800007 -17.5200005 0 0 1 2 7 3 0 0 0 12.4002113
761 5 -4.1760001 11.79 -12.7799998 0 0 0 4 4 6 0 0 0 13.5723171
770 4 -17.9699994 -19.5499993 19.2099991 0 0 0 1 10 3 0 0 0 12.4993592
775 2 -1.9170002 -14.4700003 21.4899998 0 0 0 0 12 0 0 0 0 11.3617077
776 4 19.9599992 6.5980001 4.954 0 0 0 1 10 2 0 0 0 12.1692267
781 4 -6.0370002 -20.2999992 -11.2700005 0 0 0 3 8 3 0 0 0 13.3671465
798 5 -6.8080001 21.0900002 -4.0170002 0 0 0 1 10 2 0 0 0 11.4532261
806 4 -6.7839999 3.931 16.8999996 0 0 0 4 4 6 0 0 0 11.9039508
841 5 -10.5200005 21.1100006 -11.5200005 0 0 0 3 6 4 0 0 0 12.7727242
843 2 3.886 -3.7030001 -8.1289997 0 0 1 3 7 3 0 0 0 12.0792608
846 3 19.3500004 -14.7299996 -14.4099999 0 0 0 3 6 4 0 0 0 12.029768
864 2 6.3280001 -3.823 1.041 0 0 1 2 6 3 1 0 0 11.3986015
897 5 6.718 -4.7290001 11.1700001 0 0 0 1 10 2 0 0 0 11.2277756
905 4 20.6100006 -3.931 -2.944 0 0 0 1 10 3 0 0 0 12.1495199
917 5 10.2399998 -13.7399998 20.0200005 0 0 0 0 12 0 0 0 0 11.8293123
947 5 -16.7900009 14.8999996 -11.7200003 0 0 0 1 10 1 1 0 0 13.260212
949 2 14.6999998 3.4920001 21.0900002 0 0 0 3 10 0 0 0 0 11.3351517
952 2 11.8100004 0.4243 0.8958 0 0 0 0 12 2 0 0 0 12.9101734
961 2 -0.4147 -20.4400006 -6.422 0 0 0 3 6 4 0 0 0 11.3558493
980 2 0.005848 20.1200008 17.1499996 0 0 0 0 12 0 0 0 0 11.0302696
990 4 5.6799999 -14.8199997 -20.3600006 0 0 0 0 12 0 0 0 0 12.1135969
996 5 14.5 -9.2360001 15.7200003 0 0 0 3 8 3 0 0 0 11.5741368
999 4 2.2620001 9.0909996 -9.6960001 0 0 0 1 10 5 0 0 0 12.8939906
1009 5 9.1000004 10.8500004 17.8299999 0 0 0 0 12 0 0 0 0 11.2773771
1023 2 18.25 -3.1889999 -16.1299992 0 0 0 2 10 2 0 0 0 12.0185719
1027 4 -4.9580002 -11.5 17.7099991 0 0 0 4 8 3 0 0 0 12.800333
1034 4 14.1499996 6.973 -14.1999998 0 0 0 0 12 0 0 0 0 11.3839207
1039 5 10.5900002 10.1599999 -21.0400009 0 0 1 3 4 5 1 0 0 11.9824162
1040 1 9.5220003 -15.2200003 -20.8999996 0 0 0 3 6 2 2 0 0 12.5362263
1053 4 -15.4499998 -0.8634 0.2928 0 0 0 0 12 2 0 0 0 11.840476
1063 5 18.5200005 -20.0499992 -14.6899996 0 0 0 1 10 2 0 0 0 12.3539124
1067 3 19.0200005 -6.7600003 -19.4300003 0 0 0 1 10 4 0 0 0 13.1545992
1068 5 -3.6470001 5.0009999 -2.033 0 0 0 2 8 2 0 0 0 11.7061682
1087 4 -12.6400004 16.6700001 -0.2343 0 0 1 3 9 3 0 0 0 13.7577276
1089 4 -2.5810001 -8.0430002 4.0760002 0 0 1 2 7 5 0 0 0 12.9617386
1091 5 -0.09497 -17.0100002 8.1459999 0 0 0 2 8 3 0 0 0 12.2116051
1094 5 10.4899998 2.434 18.9899998 0 0 0 4 4 5 0 0 0 11.4035635
1101 4 -6.8930002 -17.4500008 9.9280006 0 0 2 2 5 4 1 0 0 11.7409201
1111 4 -12.5500002 -19.0100002 20.5400009 0 0 0 2 8 5 0 0 0 13.4575768
1113 4 14.2700005 4.3169999 18.8199997 0 0 1 1 9 3 0 0 0 11.860795
1119 4 18.7999993 -6.9899998 20.0100002 0 0 0 0 12 3 0 0 0 13.1138887
1127 2 -5.1440001 14.9200002 -2.7620001 0 0 0 3 8 3 0 0 0 11.9997378
1129 2 18.2600002 19.7299996 19.9500008 0 0 0 0 12 0 0 0 0 11.5371466
1143 5 -4.2820001 11.0299997 0.01354 0 0 0 3 6 6 0 0 0 12.6058207
1147 4 -11.1599999 0.742 -10.9700004 0 0 0 2 8 4 0 0 0 11.8501568
1152 2 -10.6499996 -12.3699999 -8.7100001 0 0 1 2 6 2 1 0 0 11.0926819
1158 2 3.9260002 13.2200003 13.1899996 0 0 0 0 12 0 0 0 0 11.0474939
1161 4 10.9700004 -1.578 -3.1889999 0 0 0 0 12 3 0 0 0 13.2521734
1167 4 21.2700005 -4.7519999 -0.55 0 0 0 0 12 0 0 0 0 11.5502358
1171 5 -0.6459 -1.171 14.4399996 0 0 0 2 8 5 0 0 0 12.4877892
1175 4 7.1849999 16.5300007 15.9899998 0 0 0 0 12 3 0 0 0 13.3209057
1185 2 9.969 -4.553 -21.5400009 0 0 0 0 12 0 0 0 0 11.2756415
1190 2 -8.2709999 -16.2000008 -15.8500004 0 0 0 2 8 2 0 0 0 11.5075035
1191 4 -12.8400002 19.9899998 -12.5100003 0 0 0 4 4 6 0 0 0 12.7399254
1196 2 14.0100002 21.2199993 -18.9699994 0 0 0 3 6 3 0 0 0 11.5041857
1206 1 -16.4400006 19.1100006 10.1999998 0 0 2 1 7 3 1 0 0 11.8073998
1207 5 11.6800003 17.7299996 18.4500008 0 0 0 1 10 2 0 0 0 12.0060444
1208 4 15.6999998 17.6200009 -4.7360001 0 0 0 4 8 3 0 0 0 12.3525219
1212 4 10.3599997 -3.5420001 11.3900004 0 0 0 2 8 2 2 0 0 12.52349
1214 5 18.3799992 4.329 15.7700005 0 0 0 2 7 2 1 0 0 11.7268458
1216 1 10.4399996 21.0 -13.75 0 0 0 2 8 2 0 0 0 10.944523
1217 5 -7.639 9.8669996 3.2920001 0 0 0 2 10 0 0 0 0 11.0716782
1226 4 11.6599999 18.6499996 -16.3400002 0 0 0 2 8 4 0 0 0 11.9569912
1232 4 -16.9300004 5.7779999 -8.5790005 0 0 0 0 12 3 0 0 0 13.1838284
1246 4 10.5 10.87 -10.8999996 0 0 0 3 9 3 1 0 0 12.8858062
1249 2 -6.8460002 -8.8479996 21.1900005 0 0 0 2 8 2 0 0 0 11.8993158
1250 2 -5.5980001 10.7399998 6.559 0 0 0 2 8 4 0 0 0 12.6046038
1252 4 -14.0299997 -17.4500008 -19.1700001 0 0 0 0 12 2 0 0 0 12.2675457
1261 4 6.6929999 -1.633 -0.5474 0 0 0 2 10 2 0 0 0 12.6241532
1269 5 -13.4399996 -19.1100006 -6.6290002 0 0 1 1 8 3 1 0 0 11.8293581
1270 2 0.7186 5.6209998 0.3643 0 0 0 2 8 4 0 0 0 12.2753658
1295 4 -1.344 -22.0499992 -4.4159999 0 0 1 3 5 5 0 0 0 11.9090816
1305 5 -0.7134 16.5400009 14.3100004 0 0 1 1 9 3 0 0 0 11.9842958
1306 5 -3.4430001 15.6700001 -8.7259999 0 0 0 2 8 4 0 0 0 12.4670201
1318 5 -0.0841 -3.0179999 -12.9399996 0 0 0 3 6 4 0 0 0 12.019639
1325 4 17.2000008 21.0400009 4.5570002 0 0 0 1 10 2 0 0 0 11.981454
1328 2 5.9510002 13.4300003 -5.883 0 0 1 2 8 1 1 0 0 12.1203909
1335 5 -3.5450001 -0.8787 20.4300003 0 0 0 1 10 2 0 0 0 12.6355791
1337 4 17.3400002 -13.6099997 -7.355 0 0 0 5 3 4 1 0 0 11.6539431
1340 4 15.4600001 14.6000004 -0.3153 0 0 0 2 8 4 0 0 0 12.7675743
1352 4 -16.5200005 -20.8099995 17.4500008 0 0 0 1 10 5 0 0 0 13.5852986
1357 5 17.7800007 -9.6789999 -4.9260002 0 0 1 0 11 3 0 0 0 12.4737816
1371 4 17.7999993 8.6149998 -1.438 0 0 0 0 12 0 0 0 0 11.7288666
1374 4 17.6299992 -7.1900001 1.5 0 0 1 1 9 4 0 0 0 12.6259632
1386 2 8.052 1.073 4.6409998 0 0 0 2 8 2 0 0 0 11.4038973
1388 5 13.5 -3.3800001 -7.2399998 0 0 0 2 10 0 0 0 0 11.5119229
1393 4 4.5689998 -6.7529998 4.8979998 0 0 1 1 11 0 0 0 0 12.1270962
1415 4 3.1540001 -13.6599999 -2.01 0 0 0 1 10 5 0 0 0 13.0147972
1419 4 13.7600003 -18.1700001 -13.6499996 0 0 0 0 12 2 0 0 0 12.6085453
1427 5 20.2399998 -16.6399994 -2.868 0 0 1 1 7 5 0 0 0 12.1014557
1431 4 -17.3500004 -8.3039999 2.5409999 0 0 0 0 12 4 0 0 0 13.1921949
1433 5 2.355 -5.54 15.2200003 0 0 0 4 6 3 0 0 0 11.988783
1444 4 -4.27 0.873 11.0500002 0 0 0 1 10 5 0 0 0 13.6712342
1447 4 4.7030001 -20.25 14.8999996 0 0 0 3 10 1 0 0 0 13.172699
1450 1 18.9099998 5.2449999 -6.329 0 0 1 4 3 5 0 0 0 12.0509624
1452 4 -8.0059996 -8.7910004 -19.5200005 0 0 0 1 10 3 0 0 0 12.6887484
1469 2 4.6399999 -17.3400002 -1.676 0 0 0 3 8 2 0 0 0 11.3699703
1471 5 -16.2099991 -20.2600002 -10.1999998 0 0 1 2 6 3 1 0 0 11.9076692
1487 4 3.2019999 -16.3199997 -8.7749996 0 0 1 3 7 3 0 0 0 12.67169
1504 5 10.4600001 4.8239999 -16.6700001 0 0 0 3 6 4 0 0 0 12.0817137
1516 2 17.2299996 18.1200008 -2.873 0 0 0 0 12 0 0 0 0 11.2254839
1533 2 9.4350004 1.113 -6.0409999 0 0 0 1 10 2 0 0 0 12.0555925
1534 4 8.3430004 15.2700005 0.8338 0 0 0 2 8 4 0 0 0 12.6747427
1543 1 -16.2000008 -16.7199993 5.4829998 0 0 0 3 8 2 0 0 0 11.2613983
1548 4 12.2399998 -16.5 16.4300003 0 0 0 2 8 4 0 0 0 13.1771269
1550 4 -2.299 -14.4600001 -12.8400002 0 0 0 4 4 7 0 0 0 12.6558628
1561 4 -13.1199999 3.922 4.0999999 0 0 0 4 6 5 0 0 0 13.723052
1566 1 8.8210001 1.071 -8.507 0 0 0 1 10 4 0 0 0 12.46068
1581 2 4.6919999 8.7589998 -3.984 0 0 0 1 10 2 0 0 0 11.6059227
1584 2 20.2700005 18.7099991 19.1499996 0 0 0 0 12 0 0 0 0 10.814374
1585 3 -7.2270002 -19.25 14.75 0 0 0 0 12 0 0 0 0 11.3153563
1595 5 3.635 0.9816 -12.4300003 0 0 0 2 8 3 0 0 0 12.528657
1605 5 7.7989998 -5.533 0.09985 0 0 1 2 7 2 2 0 0 11.943779
1618 4 -0.593 -6.4749999 21.5200005 0 0 0 3 7 3 1 0 0 12.0691347
1622 4 8.5970001 14.1300001 -1.617 0 0 0 1 10 5 0 0 0 13.8308316
1625 4 9.0340004 -7.0359998 8.5509997 0 0 0 1 12 2 0 0 0 12.907301
1630 4 1.612 -17.0300007 12.6499996 0 0 0 2 8 5 0 0 0 12.7834969
1632 4 0.2499 -5.468 -13.5100003 0 0 0 2 8 4 0 0 0 12.4901705
1644 4 6.2529998 12.4799996 13.9499998 0 0 1 1 9 4 0 0 0 13.3396378
1661 5 21.2099991 2.27 -19.8199997 0 0 0 1 10 3 0 0 0 12.6922045
1667 4 -4.1339998 8.6260004 -9.1429997 0 0 1 0 11 1 0 0 0 12.1941919
1672 4 9.7360001 -19.4300003 -20.2700005 0 0 0 2 8 4 0 0 0 12.1196594
1687 5 15.6599999 -1.0039999 14.5799999 0 0 0 2 8 4 0 0 0 11.6077633
1694 2 17.6900006 -1.159 3.355 0 0 0 0 12 0 0 0 0 11.0572825
1699 4 18.6700001 -7.9250002 8.4119997 0 0 0 2 8 4 0 0 0 12.0838966
1700 5 12.1099997 11.8299999 20.4200001 0 0 0 2 10 1 0 0 0 12.2932987
1705 1 -0.9147 -14.7200003 -0.5612 0 0 0 4 6 4 0 0 0 12.1100721
1707 4 17.2700005 4.48 -12.1700001 0 0 0 2 8 4 0 0 0 11.8754158
1712 2 14.8299999 -14.2700005 -20.2900009 0 0 1 3 5 5 0 0 0 12.3395958
1714 4 17.5599995 0.292 16.0699997 0 0 1 0 11 1 0 0 0 11.5530977
1724 2 -2.6960001 0.2428 -12.7200003 0 0 1 2 7 3 0 0 0 11.4085903
1730 5 -3.3480001 -2.569 18.5799999 0 0 0 0 12 3 0 0 0 13.703845
1733 1 -5.955 -15.3900004 19.0100002 0 0 0 0 12 0 0 0 0 11.1486397
1737 4 13.3800001 -20.2999992 -0.5957001 0 0 0 0 12 0 0 0 0 11.2787571
1743 4 -5.1209998 -18.2900009 0.6018 0 0 0 0 12 2 0 0 0 12.9338418
1745 4 -14.1400003 -21.5699997 16.7900009 0 0 0 2 10 1 0 0 0 12.1665192
1750 4 1.263 3.78 -1.388 0 0 0 3 8 2 0 0 0 11.6703196
1751 4 -0.7577001 -12.2399998 -2.638 0 0 3 1 6 3 1 0 0 11.9406948
1772 2 -6.0679998 21.1399994 -19.8600006 0 0 0 0 12 0 0 0 0 10.601697
1796 2 12.3400002 -8.4060001 -20.6800003 0 0 0 3 8 2 0 0 0 12.1636849
1803 2 15.6199999 -4.2719998 -7.1220002 0 0 0 0 12 0 0 0 0 11.0462313
1805 4 20.7700005 16.4899998 -18.2999992 0 0 0 0 12 0 0 0 0 11.3513432
1813 4 -14.75 -3.211 -8.3389998 0 0 0 1 10 2 0 0 0 11.6424656
1834 4 18.9899998 17.3700009 21.0799999 0 0 0 0 12 3 0 0 0 14.1439791
1837 4 -15.0200005 11.0799999 -18.9400006 0 0 0 0 12 4 0 0 0 13.8944988
1838 2 6.5640002 17.8099995 -2.8150001 0 0 0 1 10 2 0 0 0 10.8849926
1847 4 18.2600002 -15.9499998 -18.1100006 0 0 1 3 7 4 0 0 0 12.970626
1849 5 -1.581 -7.9050002 -12.7700005 0 0 0 1 10 2 0 0 0 11.7490721
1853 2 19.5499993 20.9799996 -12.6400004 0 0 0 0 12 0 0 0 0 11.5920067
1854 4 16.3199997 -7.0209999 8.2539997 0 0 0 0 12 0 0 0 0 11.768198
1860 2 -7.9499998 -5.1750002 -16.7000008 0 0 0 1 10 2 0 0 0 12.1445255
1865 2 -16.1599999 -8.797 14.7700005 0 0 0 3 6 4 0 0 0 11.2916174
1868 4 -13.0699997 5.467 6.6620002 0 0 0 1 10 4 0 0 0 13.542511
1873 4 13.96 -19.6599999 -8.2580004 0 0 1 0 11 1 0 0 0 11.60425
1880 5 7.901 -19.5599995 20.2399998 0 0 0 1 10 2 0 0 0 11.5124674
1890 4 -10.8999996 -20.9300004 7.7839999 0 0 0 1 10 2 0 0 0 11.6834383
1893 2 10.6300001 -11.0299997 0.9903 0 0 0 0 12 0 0 0 0 11.1528463
1898 5 -12.0799999 17.1800003 20.7999993 0 0 0 0 12 0 0 0 0 11.2286902
1911 4 16.3600006 -13.3900004 5.751 0 0 0 3 6 4 0 0 0 11.8262863
1921 4 13.54 15.8900004 4.2360001 0 0 0 2 8 3 0 0 0 12.0341272
1925 2 14.1099997 -20.1000004 -14.9099998 0 0 0 1 10 2 0 0 0 12.5097027
1926 4 -2.454 7.474 -7.909 0 0 0 1 12 1 0 0 0 12.518548
1928 4 -1.3710001 5.3660002 1.4500001 0 0 0 1 10 4 0 0 0 12.5792933
1934 4 -3.4530001 16.8500004 -6.4689999 0 0 0 4 8 2 0 0 0 12.2643995
1935 4 6.046 -2.04 5.7389999 0 0 0 0 12 0 0 0 0 11.452796
1938 4 -4.1220002 -3.0929999 -9.8669996 0 0 0 1 10 2 0 0 0 12.0322342
1943 5 -7.9499998 20.3199997 -18.2999992 0 0 0 3 8 3 0 0 0 12.7235289
1947 5 -6.3759999 0.8764 17.2399998 0 0 0 2 8 4 0 0 0 12.5495701
1948 4 -4.1129999 -4.8140002 -11.5500002 0 0 0 0 12 2 0 0 0 11.6217318
1954 5 -8.7089997 -10.6700001 14.2200003 0 0 1 3 4 5 1 0 0 11.868453
1986 4 -4.1009998 9.7180004 12.0100002 0 0 0 1 10 3 0 0 0 12.891491
1993 5 -11.5900002 -8.0570002 -17.2600002 0 0 1 1 8 3 1 0 0 12.6834088
1996 4 -4.9060002 14.6099997 6.903 0 0 0 2 10 1 0 0 0 11.8050652
1998 2 -1.899 3.3870001 7.5219999 0 0 0 1 10 2 0 0 0 11.4724198
2001 4 9.2860003 -5.8340001 5.777 0 0 2 2 8 2 2 0 0 12.2778635
2006 5 -12.5500002 -10.8900004 -20.1599999 0 0 0 5 5 4 1 0 0 12.374362
2009 4 -11.3199997 -18.3199997 -1.5 0 0 0 0 12 2 0 0 0 12.2947636
2020 2 13.8100004 -3.2190001 4.0430002 0 0 2 1 5 4 1 0 0 11.8230238
2022 5 17.2399998 -12.3500004 19.3600006 0 0 0 2 8 4 0 0 0 12.2892103
2027 4 -3.5569999 -4.329 14.2600002 0 0 3 1 7 3 0 0 0 11.8078499
2028 2 -8.4209996 6.5760002 1.259 0 0 1 2 7 3 0 0 0 10.9045316
2050 2 -14.2700005 -20.0400009 -15.8999996 0 0 0 1 10 2 0 0 0 11.135581
2052 5 -13.3000002 19.2399998 3.0179999 0 0 0 0 12 2 0 0 0 12.3114815
2055 4 8.1990004 -3.849 -10.4099999 0 0 0 1 10 4 0 0 0 13.2517147
2056 5 16.5200005 11.3400002 9.7290001 0 0 0 2 8 4 0 0 0 12.5616808
2062 2 8.672 15.29 -15.4200001 0 0 0 4 4 4 0 0 0 11.7249985
2073 4 -3.5610001 -14.6099997 -19.6900006 0 0 2 1 8 4 0 0 0 12.4192982
2081 5 -15.96 -14.9099998 1.4700001 0 0 0 0 12 2 0 0 0 12.3096953
2082 2 17.4300003 15.6999998 11.5799999 0 0 0 1 10 2 0 0 0 11.6886759
2083 4 -2.352 -19.5400009 -13.96 0 0 1 1 9 4 0 0 0 12.4567528
2087 5 -11.1999998 -8.8719998 -6.6129999 0 0 0 4 6 3 0 0 0 11.9433832
2089 1 19.3600006 -13.75 -18.9699994 0 0 0 5 6 2 0 0 0 12.7092791
2093 5 -3.4849999 -15.5600004 11.4499998 0 0 0 0 11 1 0 0 0 11.9400206
2095 4 -1.091 -10.2700005 -19.8400002 0 0 0 1 10 5 0 0 0 13.484808
2096 5 -18.1000004 -5.6129999 12.9099998 0 0 1 2 7 3 0 0 0 11.1005011
2107 5 -16.0499992 15.0 -7.48 0 0 0 1 10 2 0 0 0 12.9740296
2143 2 5.955 2.763 16.8700008 0 0 0 3 7 2 3 0 0 12.5676565
2154 4 17.6000004 14.2399998 -1.8220001 0 0 0 3 6 4 0 0 0 12.588686
2160 2 12.0200005 9.0059996 2.8210001 0 0 0 3 5 3 1 0 0 11.5996542
2167 5 17.3899994 13.87 9.2519999 0 0 0 4 6 7 0 0 0 13.5634785
2176 5 8.2840004 12.9200002 0.9335 0 0 0 2 8 2 0 0 0 11.6475458
2178 4 -11.3900004 -20.3099995 -5.6690002 0 0 0 1 12 2 0 0 0 13.3783827
2181 4 -9.0740004 8.3509998 15.75 0 0 0 0 12 2 0 0 0 12.3245535
2185 2 -15.2299996 -20.9200002 -6.935 0 0 0 3 5 3 1 0 0 11.1479025
2187 2 -3.922 9.5450001 18.1499996 0 0 0 1 10 2 0 0 0 11.6581078
2197 2 19.8700008 17.0 5.711 0 0 0 2 8 1 0 0 0 11.5729895
2207 5 14.29 -8.6409998 -7.7989998 0 0 0 4 8 0 0 0 0 11.8647118
2212 4 -11.1300001 -5.1589999 -17.1299992 0 0 0 3 8 5 0 0 0 14.2679491
2241 4 4.7100001 -5.6680002 0.9189 0 0 0 2 8 5 0 0 0 12.7061167
2274 1 -7.0409999 -20.0699997 0.7976 0 0 0 3 6 4 0 0 0 11.3536472
2290 4 -4.079 -20.7000008 12.8500004 0 0 1 2 7 5 0 0 0 12.2152043
2291 2 -12.7799998 15.9899998 -14.7100001 0 0 1 2 9 2 0 0 0 11.8014984
2295 1 6.7329998 -1.607 18.0900002 0 0 1 0 11 1 0 0 0 11.6513434
2315 4 16.3700009 0.0751 -21.5100003 0 0 0 3 6 4 0 0 0 11.4993696
2324 1 12.5600004 -9.9569998 10.1700001 0 0 0 4 4 5 0 0 0 12.2572212
2325 4 -16.3799992 -6.7950001 -6.764 0 0 0 2 8 4 0 0 0 11.2239094
2333 2 8.1379995 21.3099995 19.8500004 0 0 0 1 10 2 0 0 0 11.5088291
2334 5 -1.106 8.3319998 14.7299996 0 0 0 6 5 3 1 0 0 13.617055
2341 4 21.2800007 9.0620003 -10.1199999 0 0 0 2 8 2 2 0 0 12.2308836
2342 3 1.271 6.4120002 -16.0100002 0 0 0 2 10 1 0 0 0 11.4166985
2346 4 -16.1800003 -2.494 4.547 0 0 1 1 9 3 0 0 0 12.1710291
2356 3 18.9400006 -1.895 -9.9870006 0 0 0 2 10 2 0 0 0 11.5740891
2377 4 5.54 -20.3099995 21.0599995 0 0 0 0 12 0 0 0 0 11.2034798
2388 4 -4.8010001 7.3379998 -2.1259999 0 0 0 1 10 3 0 0 0 12.4668408
2389 2 -15.4099999 -15.6800003 -17.5 0 0 0 1 10 2 0 0 0 11.7002001
2400 2 -13.6000004 -0.5344 20.3199997 0 0 0 2 8 4 0 0 0 11.7963743
2409 5 -6.546 21.0900002 19.7700005 0 0 0 1 10 2 0 0 0 11.8994762
2411 4 17.3799992 -18.7199993 -3.175 0 0 0 2 8 2 0 0 0 11.2346449
2414 1 1.3150001 7.1329999 15.5900002 0 0 0 4 8 1 0 0 0 11.835022
2428 4 -7.7620001 13.9099998 13.5799999 0 0 0 0 12 0 0 0 0 11.4437819
2437 2 -11.6300001 10.0699997 18.6100006 0 0 0 3 6 4 0 0 0 11.3466864
2438 1 9.993 -9.9659996 -1.036 0 0 0 0 12 0 0 0 0 10.3982697
2440 4 11.2200003 -12.2100001 -1.011 0 0 0 3 6 6 0 0 0 12.7627344
2465 5 -2.322 -10.0299997 7.8369999 0 0 1 1 7 5 0 0 0 12.2304821
2476 1 11.5299998 -22.1000004 19.3600006 0 0 0 3 6 4 0 0 0 11.0765171
2480 4 12.9799996 11.25 -20.2900009 0 0 1 0 11 4 0 0 0 12.8003712
2502 4 -7.0139999 -10.8199997 -2.033 0 0 0 4 4 4 0 0 0 11.9657746
2504 2 -9.6230002 -9.3050003 -14.3500004 0 0 0 0 12 0 0 0 0 11.7115517
2509 4 -9.2700005 17.5300007 -21.5599995 0 0 1 3 9 0 2 0 0 12.3740912
2511 5 -6.513 6.1399999 -4.0549998 0 0 1 4 2 4 1 1 0 12.4194622
2519 4 7.8540002 -9.0389996 17.4099999 0 0 0 1 10 2 0 0 0 11.8094464
2520 4 2.7200001 -19.0 -5.7259999 0 0 1 4 4 6 1 0 0 13.0854874
2521 2 5.5520001 5.2179999 13.3699999 0 0 0 1 10 3 0 0 0 12.373497
2526 2 -6.0939999 15.6000004 18.0900002 0 0 0 4 4 5 0 0 0 11.7634754
2534 5 -7.0640001 8.7729998 -17.5300007 0 0 0 4 4 6 0 0 0 12.1508904
2535 5 -6.2129998 -5.2729998 3.847 0 0 0 2 8 6 0 0 0 13.257123
2565 4 -7.5370002 9.6929999 -22.1499996 0 0 0 2 10 2 0 0 0 12.100441
2577 3 -1.263 -3.458 10.6199999 0 0 0 0 12 4 0 0 0 13.3089619
2582 2 2.7420001 13.79 -11.6599999 0 0 0 1 10 2 0 0 0 11.753604
2588 2 21.6700001 13.3599997 -10.4700003 0 0 2 0 8 4 0 0 0 11.3688765
2590 4 -7.1240001 10.5799999 11.5600004 0 0 0 0 12 2 0 0 0 12.8994704
2592 3 -13.1700001 14.6999998 -20.5499993 0 0 0 4 6 3 0 0 0 11.4089775
2594 2 4.2020001 3.102 -17.1700001 0 0 0 2 8 3 0 0 0 11.7901402
2595 5 -17.9500008 -15.7100001 3.069 0 0 0 1 10 2 0 0 0 11.5328379
2600 1 12.1199999 18.2700005 10.5600004 0 0 0 3 4 5 0 0 0 12.0064516
2608 5 3.671 -10.3900004 10.1199999 0 0 0 2 8 4 0 0 0 12.4556933
2613 5 -11.04 -10.4600001 20.4200001 0 0 0 5 6 4 0 0 0 13.2411032
2615 2 8.1899996 -20.7199993 6.849 0 0 0 3 6 4 0 0 0 11.59268
2623 3 -15.9899998 1.8150001 -20.3299999 0 0 0 5 4 5 0 0 0 13.0421543
2648 2 2.48 -5.6799999 -14.1400003 0 0 0 0 12 0 0 0 0 10.980835
2651 4 14.1400003 -20.5499993 10.0799999 0 0 0 2 10 3 0 0 0 12.9772024
2659 4 17.2199993 -3.253 -8.797 0 0 0 1 10 2 0 0 0 12.0632105
2672 2 -9.3529997 -14.6999998 11.1800003 0 0 1 3 5 5 0 0 0 11.0289841
2677 4 21.2199993 19.0200005 6.0599999 0 0 0 1 10 2 0 0 0 12.0262795
2680 4 16.8999996 -7.1160002 18.4500008 0 0 0 3 6 4 0 0 0 12.1733151
2692 4 -15.7600003 -8.0439997 -4.8579998 0 0 0 3 6 4 0 0 0 11.0556278
2697 1 -14.4499998 17.7399998 -2.7780001 0 0 0 4 6 2 1 0 0 13.1400919
2706 4 14.6199999 3.8940002 -12.6000004 0 0 0 1 10 2 0 0 0 12.3286705
2715 4 6.264 -5.3179999 18.1299992 0 0 0 2 8 4 0 0 0 12.1785822
2719 4 2.003 -8.3149996 -10.9700004 0 0 0 0 12 0 0 0 0 11.9730454
2723 4 22.2600002 10.0600004 2.7850001 0 0 0 2 10 2 2 0 0 13.3865214
2741 5 13.1199999 12.8500004 1.4500001 0 0 0 2 8 2 0 0 0 11.0359087
2771 5 7.862 -18.2299996 10.1499996 0 0 0 1 11 0 0 0 0 11.8230467
2773 2 9.8219996 -18.1900005 -15.4399996 0 0 0 1 10 2 0 0 0 11.4386091
2784 5 -1.691 -21.1000004 1.87 0 0 0 2 8 5 0 0 0 12.6530161
2789 5 -20.0599995 -19.7999993 -22.0799999 0 0 1 4 5 4 0 0 0 11.7589121
2803 5 -9.4289999 -14.8199997 -8.5299998 0 0 0 2 10 2 0 0 0 12.8301068
2805 4 14.4300003 11.1099997 -2.5380001 0 0 0 2 8 5 0 0 0 13.0287733
2813 4 -7.9530002 -6.9260002 -10.4899998 0 0 0 1 10 4 0 0 0 13.8306113
2823 4 1.5060001 -21.7700005 20.0699997 0 0 0 1 10 3 0 0 0 12.6910792
2830 4 -3.753 21.2099991 11.0299997 0 0 0 3 7 4 1 0 0 13.3956213
2840 2 -4.9850002 18.7700005 3.8840002 0 0 0 2 8 3 0 0 0 11.4492293
2848 4 -3.777 -8.0959997 6.5720001 0 0 0 0 12 2 0 0 0 12.4216366
2850 4 -3.4760001 3.3970001 11.3299999 0 0 0 0 12 0 0 0 0 11.571127
2860 1 4.0700002 -1.217 -18.6000004 0 0 0 3 8 3 0 0 0 11.9677534
2862 3 19.1599999 -20.2299996 -10.6099997 0 0 0 1 10 4 0 0 0 12.887125
2864 4 -4.3759999 17.3700009 21.1599999 0 0 0 1 10 2 0 0 0 11.509018
2871 5 -8.0749998 15.1099997 -13.0600004 0 0 0 3 6 2 2 0 0 11.8235312
2878 2 1.35 -7.4050002 8.7320004 0 0 1 2 7 3 0 0 0 11.9918786
2900 4 3.4260001 4.2470002 -21.6700001 0 0 0 1 10 2 0 0 0 11.4969025
2906 4 -16.2900009 17.6700001 -20.3199997 0 0 0 3 8 4 0 0 0 12.7833185
2911 4 2.4560001 18.4599991 -12.3299999 0 0 0 0 12 2 0 0 0 11.9853868
2929 4 -13.1599999 -13.6599999 -14.0200005 0 0 0 3 10 2 0 0 0 12.8470764
2933 4 -17.9400006 -22.0799999 -17.5 0 0 0 2 10 3 0 0 0 12.8254166
2942 4 -3.063 -19.0699997 14.3800001 0 0 2 1 8 1 2 0 0 12.0644245
2961 4 1.776 -10.5500002 -9.6009999 0 0 0 1 12 3 0 0 0 13.5517273
2993 4 15.6899996 21.2700005 -17.1299992 0 0 0 1 10 4 0 0 0 13.2473536
2994 4 -4.857 -9.3710003 -1.058 0 0 0 0 12 3 0 0 0 12.8080969
2995 2 7.6640001 -2.1719999 15.5100003 0 0 1 1 9 3 0 0 0 12.3513537
2997 2 -16.0499992 -8.1920004 -21.4300003 0 0 0 2 10 1 0 0 0 12.0564566
2999 2 19.2600002 21.2600002 1.084 0 0 1 2 7 2 0 0 0 11.6914826
3019 4 19.5 16.5799999 -8.9469996 0 0 0 1 10 5 0 0 0 13.5080405
3020 5 16.8500004 5.8850002 -19.2800007 0 0 0 3 8 2 0 0 0 12.5474882
3021 5 -2.816 -10.6000004 0.599 0 0 0 2 8 2 2 0 0 12.3543596
3024 5 -2.4790001 7.4229999 -21.2700005 0 0 0 3 8 4 0 0 0 12.9775964
3048 4 3.949 10.8500004 14.2299996 0 0 0 1 12 2 0 0 0 13.536849
3056 4 13.6400004 -15.5 -8.0419998 0 0 1 0 11 3 0 0 0 12.5410948
3064 2 17.25 -14.6599999 -20.3700009 0 0 1 1 8 3 1 0 0 12.0112486
3066 2 -16.8400002 5.2140002 -12.6700001 0 0 0 2 8 2 0 0 0 11.6309634
3070 4 14.2600002 4.7160001 14.3100004 0 0 0 2 8 4 0 0 0 12.0429754
3072 4 -12.7200003 -4.665 -19.0599995 0 0 0 1 10 2 0 0 0 11.9587212
3083 4 -12.0500002 -10.4099999 -8.882 0 0 0 2 10 2 0 0 0 12.1066608
3101 5 21.5400009 1.4730001 -6.0310001 0 0 1 4 2 5 1 0 0 12.2690344
3110 2 6.6279998 16.6299992 1.805 0 0 0 3 6 4 0 0 0 11.8531656
3119 5 14.6700001 11.1899996 14.0100002 0 0 1 1 9 3 0 0 0 12.192584
3126 2 -13.8299999 -1.236 18.0300007 0 0 2 2 5 3 1 0 0 11.8519478
3129 2 2.8440002 14.8800002 -7.2969999 0 0 0 2 8 2 0 0 0 11.3774223
3137 2 4.6040001 -3.4519999 -19.0900002 0 0 0 2 8 2 0 0 0 11.8133564
3142 2 -8.0229998 12.9700004 -17.0100002 0 0 1 1 9 2 0 0 0 11.5398817
3164 2 18.5599995 -15.5900002 0.02996 0 0 1 2 7 3 2 0 0 12.5717364
3169 5 -2.0639999 17.6000004 7.9099998 0 0 0 3 6 4 0 0 0 11.994937
3174 4 -4.4889999 -3.8110001 16.5799999 0 0 0 3 7 2 1 0 0 12.6793413
3190 2 1.377 13.8100004 8.8979998 0 0 0 0 12 0 0 0 0 11.3333702
3193 2 17.8500004 2.414 8.6040001 0 0 0 1 10 2 0 0 0 12.0099268
3219 4 -3.6329999 6.8189998 18.9099998 0 0 1 3 5 6 0 0 0 12.5436135
3223 4 19.7099991 -15.3900004 -20.7099991 0 0 0 0 11 2 1 0 0 13.4320145
3231 5 13.0799999 18.6000004 3.421 0 0 0 1 12 2 0 0 0 12.8294792
3238 5 4.0890002 -21.8299999 19.0799999 0 0 0 1 10 4 0 0 0 13.2273054
3240 1 -11.6199999 20.2000008 -3.4389999 0 0 0 0 12 0 0 0 0 10.7750836
3242 2 -1.847 0.2669 12.8599998 0 0 0 2 7 1 1 0 0 11.1149635
3248 4 -17.3299999 -6.2930002 6.8070002 0 0 0 0 12 3 0 0 0 13.1448536
3253 5 8.9969998 4.481 10.6499996 0 0 0 1 10 4 0 0 0 13.2283354
3257 4 3.2420001 -15.6000004 -21.2299996 0 0 0 1 12 2 0 0 0 12.9396192
3274 2 -0.4661 15.2799997 16.7999993 0 0 0 2 8 4 0 0 0 11.9841386
3278 4 16.9099998 -7.962 -18.7399998 0 0 0 1 10 2 0 0 0 11.8803636
3282 5 6.6830001 14.3500004 20.3999996 0 0 1 0 9 3 0 0 0 12.1603012
3283 4 -14.0100002 16.9699994 -21.8500004 0 0 0 4 6 3 0 0 0 11.6066818
3298 5 -3.5980001 -0.3249 8.7889996 0 0 1 1 9 3 0 0 0 12.1142368
3303 5 -4.8249998 -8.3240004 14.29 0 0 0 1 10 2 0 0 0 11.8388644
3313 2 -1.392 -8.6090002 6.2849999 0 0 0 2 8 2 0 0 0 11.5933543
3317 5 15.1000004 4.2020001 1.179 0 0 0 0 12 0 0 0 0 11.5914965
3323 5 13.1700001 14.0600004 -16.2399998 0 0 1 2 9 2 0 0 0 11.7454357
3338 5 1.419 -5.7340002 -19.1599999 0 0 0 3 6 4 0 0 0 11.6397066
3344 4 -16.1800003 7.4660001 -0.8893 0 0 0 1 10 2 0 0 0 11.7136469
3351 1 -9.158 17.8099995 10.4499998 0 0 2 1 7 1 1 1 0 11.4709492
3355 5 -11.5 16.8500004 -8.962 0 0 0 1 10 2 0 0 0 11.9917918
3361 5 -10.3299999 8.1219997 10.9399996 0 0 1 2 7 5 0 0 0 12.429822