ITEM: TIMESTEP
0
ITEM: NUMBER OF ATOMS
16384
ITEM: BOX BOUNDS pp pp pp
0.0000000000000000e+00 5.9671280488946401e+01
0.0000000000000000e+00 5.9671280488946401e+01
0.0000000000000000e+00 5.9671280488946401e+01
ITEM: ATOMS id type x y z
1 4 0 0 0
2 4 1.87953 1.87953 0
8193 2 0 0 0
8194 2 1.87953 1.87953 0
8195 2 1.87953 0 1.87953
8196 2 0 1.87953 1.87953
3 4 5.63858 1.87953 0
4 4 5.63858 0 1.87953
5 4 3.75906 1.87953 1.87953
8197 2 5.63858 0 1.87953
6 4 9.39764 0 1.87953
7 4 7.51811 1.87953 1.87953
8198 2 7.51811 0 0
8199 2 9.39764 1.87953 0
8 4 13.1567 1.87953 0
9 4 13.1567 0 1.87953
10 4 11.2772 1.87953 1.87953
8200 2 13.1567 1.87953 0
11 4 15.0362 0 0
12 4 15.0362 1.87953 1.87953
8201 2 16.9157 0 1.87953
8203 2 18.7953 1.87953 1.87953
13 4 22.5543 0 0
8202 2 20.6748 0 1.87953
8204 2 22.5543 0 0
8206 2 22.5543 1.87953 1.87953
14 4 26.3134 0 0
16 4 26.3134 1.87953 1.87953
8205 2 24.4339 1.87953 0
8207 2 26.3134 0 0
15 4 28.1929 0 1.87953
8208 2 28.1929 0 1.87953
17 4 30.0724 0 0
18 4 31.952 1.87953 0
19 4 31.952 0 1.87953
8209 2 31.952 1.87953 0
20 4 35.711 1.87953 0
21 4 35.711 0 1.87953
8210 2 35.711 1.87953 0
8211 2 35.711 0 1.87953
8212 2 33.8315 1.87953 1.87953
22 4 39.4701 1.87953 0
8213 2 37.5906 0 0
8214 2 39.4701 0 1.87953
8215 2 37.5906 1.87953 1.87953
23 4 41.3496 0 0
8217 2 41.3496 1.87953 1.87953
24 4 43.2291 1.87953 0
8216 2 43.2291 1.87953 0
8218 2 45.1087 0 0
8220 2 45.1087 1.87953 1.87953
25 4 46.9882 1.87953 0
8219 2 46.9882 1.87953 0
8221 2 48.8677 0 0
8223 2 48.8677 1.87953 1.87953
26 4 50.7472 1.87953 0
27 4 52.6268 0 0
29 4 52.6268 1.87953 1.87953
8222 2 50.7472 0 1.87953
28 4 54.5063 0 1.87953
8224 2 54.5063 0 1.87953
30 4 56.3858 0 0
31 4 58.2654 1.87953 0
8225 2 56.3858 0 0
32 4 1.87953 3.75906 1.87953
33 4 0 5.63858 1.87953
8226 2 0 3.75906 0
8227 2 1.87953 5.63858 0
34 4 5.63858 3.75906 1.87953
35 4 3.75906 5.63858 1.87953
8228 2 5.63858 3.75906 1.87953
36 4 7.51811 3.75906 0
37 4 9.39764 5.63858 0
38 4 9.39764 3.75906 1.87953
39 4 7.51811 5.63858 1.87953
8229 2 7.51811 3.75906 0
8230 2 9.39764 5.63858 0
40 4 13.1567 5.63858 0
41 4 13.1567 3.75906 1.87953
42 4 11.2772 5.63858 1.87953
43 4 15.0362 3.75906 0
45 4 15.0362 5.63858 1.87953
8231 2 15.0362 3.75906 0
44 4 16.9157 5.63858 0
47 4 18.7953 5.63858 1.87953
8232 2 16.9157 3.75906 1.87953
46 4 20.6748 3.75906 1.87953
48 4 22.5543 3.75906 0
51 4 22.5543 5.63858 1.87953
8233 2 20.6748 5.63858 0
49 4 24.4339 5.63858 0
50 4 24.4339 3.75906 1.87953
52 4 26.3134 5.63858 1.87953
8234 2 24.4339 5.63858 0
8235 2 24.4339 3.75906 1.87953
8236 2 26.3134 3.75906 0
8237 2 26.3134 5.63858 1.87953
53 4 30.0724 3.75906 0
54 4 31.952 5.63858 0
55 4 31.952 3.75906 1.87953
56 4 30.0724 5.63858 1.87953
8238 2 30.0724 3.75906 0
8239 2 31.952 5.63858 0
57 4 33.8315 3.75906 0
58 4 35.711 5.63858 0
59 4 33.8315 5.63858 1.87953
8240 2 35.711 3.75906 1.87953
8241 2 33.8315 5.63858 1.87953
60 4 39.4701 3.75906 1.87953
61 4 37.5906 5.63858 1.87953
8242 2 39.4701 3.75906 1.87953
8243 2 41.3496 3.75906 0
62 4 43.2291 3.75906 1.87953
63 4 45.1087 3.75906 0
8244 2 43.2291 5.63858 0
8245 2 45.1087 3.75906 0
64 4 46.9882 5.63858 0
65 4 46.9882 3.75906 1.87953
8246 2 46.9882 3.75906 1.87953
8247 2 48.8677 3.75906 0
8250 2 48.8677 5.63858 1.87953
66 4 50.7472 5.63858 0
67 4 50.7472 3.75906 1.87953
68 4 52.6268 3.75906 0
8248 2 50.7472 5.63858 0
8249 2 50.7472 3.75906 1.87953
8251 2 52.6268 3.75906 0
69 4 54.5063 5.63858 0
70 4 56.3858 3.75906 0
71 4 58.2654 5.63858 0
72 4 56.3858 5.63858 1.87953
8252 2 56.3858 3.75906 0
8253 2 58.2654 5.63858 0
8254 2 58.2654 3.75906 1.87953
8255 2 56.3858 5.63858 1.87953
73 4 1.87953 7.51811 1.87953
8256 2 1.87953 7.51811 1.87953
8257 2 0 9.39764 1.87953
74 4 5.63858 7.51811 1.87953
75 4 3.75906 9.39764 1.87953
8258 2 3.75906 7.51811 0
8259 2 5.63858 9.39764 0
8260 2 7.51811 7.51811 0
8261 2 9.39764 7.51811 1.87953
8262 2 7.51811 9.39764 1.87953
76 4 11.2772 7.51811 0
77 4 13.1567 7.51811 1.87953
8263 2 11.2772 7.51811 0
8264 2 11.2772 9.39764 1.87953
8265 2 15.0362 7.51811 0
78 4 16.9157 7.51811 1.87953
8266 2 16.9157 9.39764 0
8267 2 16.9157 7.51811 1.87953
8268 2 18.7953 7.51811 0
79 4 20.6748 9.39764 0
80 4 20.6748 7.51811 1.87953
81 4 22.5543 7.51811 0
8269 2 20.6748 9.39764 0
8270 2 20.6748 7.51811 1.87953
8272 2 22.5543 9.39764 1.87953
82 4 24.4339 7.51811 1.87953
83 4 26.3134 9.39764 1.87953
8271 2 24.4339 9.39764 0
8273 2 26.3134 9.39764 1.87953
84 4 31.952 7.51811 1.87953
8274 2 30.0724 7.51811 0
8275 2 31.952 9.39764 0
8276 2 30.0724 9.39764 1.87953
85 4 35.711 9.39764 0
86 4 33.8315 9.39764 1.87953
8277 2 33.8315 7.51811 0
8278 2 35.711 9.39764 0
8279 2 35.711 7.51811 1.87953
8280 2 33.8315 9.39764 1.87953
87 4 39.4701 7.51811 1.87953
88 4 37.5906 9.39764 1.87953
8281 2 37.5906 7.51811 0
8282 2 39.4701 9.39764 0
8283 2 39.4701 7.51811 1.87953
90 4 41.3496 9.39764 1.87953
89 4 43.2291 7.51811 1.87953
92 4 45.1087 9.39764 1.87953
8284 2 43.2291 9.39764 0
8285 2 45.1087 7.51811 0
91 4 46.9882 9.39764 0
93 4 48.8677 9.39764 1.87953
8288 2 48.8677 9.39764 1.87953
94 4 52.6268 7.51811 0
8286 2 50.7472 9.39764 0
8287 2 50.7472 7.51811 1.87953
8289 2 52.6268 7.51811 0
8291 2 52.6268 9.39764 1.87953
8290 2 54.5063 9.39764 0
95 4 56.3858 7.51811 0
96 4 58.2654 9.39764 0
97 4 56.3858 9.39764 1.87953
8292 2 56.3858 7.51811 0
8293 2 58.2654 9.39764 0
8294 2 56.3858 9.39764 1.87953
98 4 1.87953 13.1567 0
99 4 1.87953 11.2772 1.87953
100 4 0 13.1567 1.87953
8295 2 0 11.2772 0
101 4 3.75906 11.2772 0
102 4 5.63858 13.1567 0
103 4 5.63858 11.2772 1.87953
8296 2 3.75906 11.2772 0
8297 2 5.63858 13.1567 0
8298 2 5.63858 11.2772 1.87953
104 4 7.51811 11.2772 0
105 4 9.39764 11.2772 1.87953
8299 2 7.51811 11.2772 0
8300 2 9.39764 13.1567 0
106 4 13.1567 13.1567 0
107 4 13.1567 11.2772 1.87953
8301 2 11.2772 11.2772 0
8302 2 13.1567 13.1567 0
8303 2 11.2772 13.1567 1.87953
108 4 18.7953 11.2772 0
8304 2 16.9157 13.1567 0
8305 2 16.9157 11.2772 1.87953
109 4 20.6748 13.1567 0
110 4 20.6748 11.2772 1.87953
111 4 22.5543 11.2772 0
113 4 22.5543 13.1567 1.87953
8306 2 20.6748 13.1567 0
8308 2 22.5543 13.1567 1.87953
112 4 24.4339 11.2772 1.87953
114 4 26.3134 11.2772 0
117 4 26.3134 13.1567 1.87953
8307 2 24.4339 13.1567 0
8309 2 26.3134 11.2772 0
8311 2 26.3134 13.1567 1.87953
115 4 28.1929 13.1567 0
116 4 28.1929 11.2772 1.87953
8310 2 28.1929 11.2772 1.87953
118 4 30.0724 13.1567 1.87953
8312 2 30.0724 11.2772 0
8313 2 31.952 13.1567 0
119 4 33.8315 11.2772 0
120 4 35.711 13.1567 0
121 4 35.711 11.2772 1.87953
122 4 33.8315 13.1567 1.87953
8314 2 33.8315 11.2772 0
8315 2 35.711 11.2772 1.87953
123 4 37.5906 11.2772 0
124 4 39.4701 11.2772 1.87953
8316 2 37.5906 11.2772 0
8317 2 41.3496 11.2772 0
8318 2 41.3496 13.1567 1.87953
127 4 45.1087 13.1567 1.87953
125 4 46.9882 13.1567 0
126 4 46.9882 11.2772 1.87953
128 4 48.8677 11.2772 0
8320 2 48.8677 13.1567 1.87953
129 4 50.7472 11.2772 1.87953
130 4 52.6268 11.2772 0
8319 2 50.7472 11.2772 1.87953
8321 2 52.6268 11.2772 0
8322 2 52.6268 13.1567 1.87953
131 4 58.2654 13.1567 0
8323 2 56.3858 11.2772 0
8324 2 58.2654 13.1567 0
8325 2 56.3858 13.1567 1.87953
8327 2 1.87953 15.0362 1.87953
8329 2 3.75906 15.0362 0
8331 2 5.63858 15.0362 1.87953
134 4 9.39764 15.0362 1.87953
8333 2 7.51811 15.0362 0
137 4 18.7953 15.0362 0
8338 2 16.9157 15.0362 1.87953
8340 2 18.7953 15.0362 0
139 4 22.5543 15.0362 0
8341 2 20.6748 15.0362 1.87953
8344 2 24.4339 15.0362 1.87953
143 4 31.952 15.0362 1.87953
146 4 35.711 15.0362 1.87953
8349 2 35.711 15.0362 1.87953
148 4 37.5906 15.0362 0
8353 2 41.3496 15.0362 0
152 4 45.1087 15.0362 0
8354 2 43.2291 15.0362 1.87953
8356 2 45.1087 15.0362 0
155 4 48.8677 15.0362 0
8357 2 46.9882 15.0362 1.87953
156 4 50.7472 15.0362 1.87953
158 4 52.6268 15.0362 0
8359 2 50.7472 15.0362 1.87953
8362 2 56.3858 15.0362 0
8364 2 58.2654 15.0362 1.87953
132 4 1.87953 16.9157 0
160 4 0 18.7953 0
162 4 1.87953 18.7953 1.87953
8326 2 1.87953 16.9157 0
8328 2 0 16.9157 1.87953
8366 2 0 18.7953 0
8368 2 1.87953 18.7953 1.87953
133 4 5.63858 16.9157 0
164 4 3.75906 18.7953 0
165 4 5.63858 18.7953 1.87953
8330 2 5.63858 16.9157 0
8332 2 3.75906 16.9157 1.87953
8370 2 3.75906 18.7953 0
8372 2 5.63858 18.7953 1.87953
167 4 9.39764 18.7953 1.87953
8334 2 9.39764 16.9157 0
8335 2 7.51811 16.9157 1.87953
8374 2 7.51811 18.7953 0
135 4 11.2772 16.9157 1.87953
169 4 13.1567 18.7953 1.87953
8336 2 13.1567 16.9157 0
8377 2 13.1567 18.7953 1.87953
136 4 15.0362 16.9157 1.87953
171 4 15.0362 18.7953 0
8339 2 15.0362 16.9157 1.87953
8378 2 15.0362 18.7953 0
173 4 16.9157 18.7953 1.87953
175 4 18.7953 18.7953 0
8337 2 16.9157 16.9157 0
8342 2 18.7953 16.9157 1.87953
8380 2 16.9157 18.7953 1.87953
138 4 20.6748 16.9157 0
177 4 22.5543 18.7953 0
8345 2 22.5543 16.9157 1.87953
8383 2 20.6748 18.7953 1.87953
140 4 24.4339 16.9157 0
142 4 26.3134 16.9157 1.87953
8343 2 24.4339 16.9157 0
8346 2 26.3134 16.9157 1.87953
8385 2 24.4339 18.7953 1.87953
8386 2 26.3134 18.7953 0
141 4 28.1929 16.9157 0
144 4 30.0724 16.9157 1.87953
8347 2 31.952 16.9157 0
8348 2 30.0724 16.9157 1.87953
145 4 35.711 16.9157 0
147 4 33.8315 16.9157 1.87953
180 4 33.8315 18.7953 0
8350 2 33.8315 16.9157 1.87953
8390 2 35.711 18.7953 1.87953
149 4 39.4701 16.9157 0
150 4 37.5906 16.9157 1.87953
183 4 37.5906 18.7953 0
8351 2 39.4701 16.9157 0
8352 2 37.5906 16.9157 1.87953
8391 2 37.5906 18.7953 0
8393 2 39.4701 18.7953 1.87953
184 4 41.3496 18.7953 0
8355 2 41.3496 16.9157 1.87953
151 4 43.2291 16.9157 0
154 4 45.1087 16.9157 1.87953
8358 2 45.1087 16.9157 1.87953
8395 2 45.1087 18.7953 0
153 4 46.9882 16.9157 0
157 4 48.8677 16.9157 1.87953
186 4 46.9882 18.7953 1.87953
8360 2 48.8677 16.9157 1.87953
8396 2 46.9882 18.7953 1.87953
8398 2 48.8677 18.7953 0
188 4 50.7472 18.7953 1.87953
8399 2 50.7472 18.7953 1.87953
8401 2 52.6268 18.7953 0
8361 2 54.5063 16.9157 0
159 4 56.3858 16.9157 1.87953
192 4 58.2654 18.7953 1.87953
8363 2 58.2654 16.9157 0
8365 2 56.3858 16.9157 1.87953
161 4 1.87953 20.6748 0
163 4 0 20.6748 1.87953
194 4 1.87953 22.5543 1.87953
8367 2 1.87953 20.6748 0
8369 2 0 20.6748 1.87953
196 4 3.75906 22.5543 0
8371 2 5.63858 20.6748 0
8373 2 3.75906 20.6748 1.87953
8404 2 3.75906 22.5543 0
166 4 9.39764 20.6748 0
168 4 7.51811 20.6748 1.87953
198 4 7.51811 22.5543 0
200 4 9.39764 22.5543 1.87953
8375 2 9.39764 20.6748 0
8406 2 7.51811 22.5543 0
170 4 11.2772 20.6748 1.87953
202 4 11.2772 22.5543 0
204 4 13.1567 22.5543 1.87953
8376 2 13.1567 20.6748 0
8408 2 11.2772 22.5543 0
174 4 15.0362 20.6748 1.87953
8381 2 15.0362 20.6748 1.87953
8410 2 15.0362 22.5543 0
172 4 16.9157 20.6748 0
176 4 18.7953 20.6748 1.87953
206 4 16.9157 22.5543 1.87953
8379 2 16.9157 20.6748 0
8413 2 18.7953 22.5543 0
209 4 22.5543 22.5543 0
8382 2 20.6748 20.6748 0
8414 2 20.6748 22.5543 1.87953
178 4 24.4339 20.6748 0
8384 2 24.4339 20.6748 0
8416 2 24.4339 22.5543 1.87953
8417 2 26.3134 22.5543 0
179 4 28.1929 20.6748 0
8387 2 28.1929 20.6748 0
8418 2 28.1929 22.5543 1.87953
212 4 30.0724 22.5543 0
214 4 31.952 22.5543 1.87953
8388 2 30.0724 20.6748 1.87953
8419 2 30.0724 22.5543 0
8420 2 31.952 22.5543 1.87953
181 4 35.711 20.6748 0
182 4 33.8315 20.6748 1.87953
217 4 35.711 22.5543 1.87953
8389 2 35.711 20.6748 0
8421 2 33.8315 22.5543 0
8423 2 35.711 22.5543 1.87953
218 4 37.5906 22.5543 0
219 4 39.4701 22.5543 1.87953
8392 2 39.4701 20.6748 0
8424 2 37.5906 22.5543 0
185 4 41.3496 20.6748 1.87953
220 4 41.3496 22.5543 0
8394 2 41.3496 20.6748 1.87953
8397 2 45.1087 20.6748 1.87953
189 4 48.8677 20.6748 1.87953
223 4 46.9882 22.5543 1.87953
224 4 48.8677 22.5543 0
8400 2 48.8677 20.6748 1.87953
187 4 50.7472 20.6748 0
226 4 52.6268 22.5543 0
8429 2 50.7472 22.5543 1.87953
190 4 54.5063 20.6748 0
8402 2 54.5063 20.6748 0
191 4 58.2654 20.6748 0
8403 2 58.2654 20.6748 0
193 4 1.87953 24.4339 0
195 4 0 24.4339 1.87953
230 4 0 26.3134 0
232 4 1.87953 26.3134 1.87953
8431 2 0 26.3134 0
8433 2 1.87953 26.3134 1.87953
197 4 5.63858 24.4339 0
235 4 5.63858 26.3134 1.87953
8405 2 3.75906 24.4339 1.87953
8436 2 5.63858 26.3134 1.87953
199 4 9.39764 24.4339 0
201 4 7.51811 24.4339 1.87953
237 4 9.39764 26.3134 1.87953
8407 2 9.39764 24.4339 0
8437 2 7.51811 26.3134 0
8439 2 9.39764 26.3134 1.87953
203 4 13.1567 24.4339 0
239 4 11.2772 26.3134 0
240 4 13.1567 26.3134 1.87953
8409 2 11.2772 24.4339 1.87953
8412 2 15.0362 24.4339 1.87953
205 4 16.9157 24.4339 0
208 4 18.7953 24.4339 1.87953
243 4 16.9157 26.3134 1.87953
8411 2 16.9157 24.4339 0
8441 2 16.9157 26.3134 1.87953
207 4 20.6748 24.4339 0
245 4 22.5543 26.3134 0
8443 2 20.6748 26.3134 1.87953
210 4 24.4339 24.4339 0
246 4 24.4339 26.3134 1.87953
8415 2 24.4339 24.4339 0
8445 2 24.4339 26.3134 1.87953
8446 2 26.3134 26.3134 0
211 4 28.1929 24.4339 0
248 4 28.1929 26.3134 1.87953
213 4 31.952 24.4339 0
215 4 30.0724 24.4339 1.87953
8447 2 30.0724 26.3134 0
216 4 35.711 24.4339 0
251 4 33.8315 26.3134 0
8422 2 35.711 24.4339 0
8449 2 33.8315 26.3134 0
8450 2 35.711 26.3134 1.87953
252 4 37.5906 26.3134 0
253 4 39.4701 26.3134 1.87953
8425 2 39.4701 24.4339 0
8451 2 37.5906 26.3134 0
8453 2 39.4701 26.3134 1.87953
8427 2 41.3496 24.4339 1.87953
8454 2 41.3496 26.3134 0
221 4 43.2291 24.4339 0
8426 2 43.2291 24.4339 0
8428 2 45.1087 24.4339 1.87953
8456 2 45.1087 26.3134 0
222 4 46.9882 24.4339 0
225 4 48.8677 24.4339 1.87953
256 4 46.9882 26.3134 1.87953
228 4 52.6268 24.4339 1.87953
227 4 54.5063 24.4339 0
8430 2 54.5063 24.4339 0
229 4 58.2654 24.4339 0
259 4 58.2654 26.3134 1.87953
231 4 1.87953 28.1929 0
233 4 0 28.1929 1.87953
8432 2 1.87953 28.1929 0
8434 2 0 28.1929 1.87953
234 4 5.63858 28.1929 0
236 4 3.75906 28.1929 1.87953
8435 2 5.63858 28.1929 0
238 4 7.51811 28.1929 1.87953
8438 2 9.39764 28.1929 0
8440 2 7.51811 28.1929 1.87953
241 4 11.2772 28.1929 1.87953
244 4 15.0362 28.1929 1.87953
242 4 16.9157 28.1929 0
8442 2 20.6748 28.1929 0
249 4 26.3134 28.1929 1.87953
8444 2 24.4339 28.1929 0
247 4 28.1929 28.1929 0
250 4 30.0724 28.1929 1.87953
8448 2 31.952 28.1929 0
8452 2 39.4701 28.1929 0
8455 2 41.3496 28.1929 1.87953
254 4 43.2291 28.1929 0
8458 2 45.1087 28.1929 1.87953
255 4 46.9882 28.1929 0
257 4 48.8677 28.1929 1.87953
8457 2 46.9882 28.1929 0
8459 2 50.7472 28.1929 0
8461 2 52.6268 28.1929 1.87953
258 4 54.5063 28.1929 0
8460 2 54.5063 28.1929 0
8462 2 58.2654 28.1929 0
260 4 0 30.0724 0
261 4 1.87953 31.952 0
262 4 0 31.952 1.87953
8463 2 1.87953 31.952 0
8464 2 1.87953 30.0724 1.87953
8465 2 0 31.952 1.87953
263 4 3.75906 30.0724 0
264 4 5.63858 31.952 0
265 4 5.63858 30.0724 1.87953
266 4 3.75906 31.952 1.87953
8466 2 3.75906 30.0724 0
267 4 7.51811 30.0724 0
268 4 9.39764 30.0724 1.87953
8467 2 7.51811 30.0724 0
8468 2 9.39764 31.952 0
8469 2 9.39764 30.0724 1.87953
269 4 11.2772 30.0724 0
270 4 13.1567 31.952 0
271 4 11.2772 31.952 1.87953
8470 2 11.2772 30.0724 0
272 4 15.0362 31.952 1.87953
8472 2 15.0362 31.952 1.87953
275 4 18.7953 31.952 1.87953
8471 2 16.9157 30.0724 1.87953
273 4 20.6748 31.952 0
274 4 20.6748 30.0724 1.87953
277 4 22.5543 31.952 1.87953
8473 2 20.6748 31.952 0
8474 2 22.5543 30.0724 0
276 4 24.4339 30.0724 1.87953
278 4 26.3134 30.0724 0
279 4 26.3134 31.952 1.87953
280 4 30.0724 30.0724 0
281 4 31.952 30.0724 1.87953
8475 2 30.0724 30.0724 0
8476 2 31.952 31.952 0
8477 2 31.952 30.0724 1.87953
282 4 33.8315 30.0724 0
283 4 35.711 31.952 0
284 4 35.711 30.0724 1.87953
8478 2 33.8315 30.0724 0
8479 2 35.711 31.952 0
285 4 37.5906 31.952 1.87953
8480 2 37.5906 30.0724 0
8481 2 39.4701 31.952 0
8482 2 39.4701 30.0724 1.87953
8483 2 37.5906 31.952 1.87953
286 4 41.3496 30.0724 0
8485 2 41.3496 31.952 1.87953
287 4 43.2291 31.952 0
290 4 45.1087 31.952 1.87953
8484 2 43.2291 30.0724 1.87953
288 4 46.9882 31.952 0
289 4 46.9882 30.0724 1.87953
8486 2 46.9882 31.952 0
8487 2 46.9882 30.0724 1.87953
8490 2 48.8677 31.952 1.87953
8488 2 50.7472 31.952 0
8489 2 50.7472 30.0724 1.87953
8491 2 52.6268 30.0724 0
291 4 54.5063 30.0724 1.87953
8492 2 54.5063 31.952 0
292 4 58.2654 30.0724 1.87953
293 4 56.3858 31.952 1.87953
8493 2 58.2654 30.0724 1.87953
8494 2 56.3858 31.952 1.87953
294 4 1.87953 35.711 0
8495 2 0 33.8315 0
8496 2 1.87953 35.711 0
295 4 3.75906 33.8315 0
296 4 5.63858 35.711 0
8497 2 5.63858 35.711 0
8498 2 5.63858 33.8315 1.87953
297 4 9.39764 33.8315 1.87953
8499 2 7.51811 33.8315 0
8500 2 7.51811 35.711 1.87953
298 4 13.1567 35.711 0
299 4 13.1567 33.8315 1.87953
300 4 11.2772 35.711 1.87953
8501 2 13.1567 35.711 0
8502 2 13.1567 33.8315 1.87953
8503 2 11.2772 35.711 1.87953
301 4 15.0362 33.8315 0
8504 2 15.0362 33.8315 0
8507 2 15.0362 35.711 1.87953
302 4 16.9157 33.8315 1.87953
304 4 18.7953 35.711 1.87953
8505 2 16.9157 35.711 0
8506 2 16.9157 33.8315 1.87953
8508 2 18.7953 33.8315 0
303 4 20.6748 35.711 0
8509 2 20.6748 35.711 0
8510 2 22.5543 33.8315 0
8512 2 22.5543 35.711 1.87953
305 4 24.4339 35.711 0
306 4 24.4339 33.8315 1.87953
8511 2 24.4339 35.711 0
8513 2 26.3134 33.8315 0
307 4 28.1929 35.711 0
308 4 30.0724 33.8315 0
309 4 31.952 35.711 0
8514 2 31.952 35.711 0
8515 2 31.952 33.8315 1.87953
8516 2 30.0724 35.711 1.87953
8517 2 35.711 35.711 0
8518 2 33.8315 35.711 1.87953
310 4 39.4701 35.711 0
311 4 39.4701 33.8315 1.87953
312 4 37.5906 35.711 1.87953
8519 2 37.5906 33.8315 0
8520 2 39.4701 33.8315 1.87953
8521 2 37.5906 35.711 1.87953
313 4 43.2291 35.711 0
314 4 45.1087 33.8315 0
8522 2 43.2291 35.711 0
8523 2 45.1087 33.8315 0
315 4 46.9882 35.711 0
316 4 48.8677 33.8315 0
319 4 48.8677 35.711 1.87953
317 4 50.7472 35.711 0
318 4 50.7472 33.8315 1.87953
320 4 52.6268 33.8315 0
8524 2 50.7472 35.711 0
8525 2 52.6268 33.8315 0
8526 2 54.5063 33.8315 1.87953
321 4 58.2654 35.711 0
8527 2 58.2654 35.711 0
322 4 1.87953 39.4701 0
323 4 1.87953 37.5906 1.87953
8528 2 0 37.5906 0
8529 2 0 39.4701 1.87953
324 4 3.75906 37.5906 0
325 4 5.63858 37.5906 1.87953
8530 2 5.63858 39.4701 0
8531 2 3.75906 39.4701 1.87953
326 4 9.39764 37.5906 1.87953
327 4 7.51811 39.4701 1.87953
8532 2 7.51811 37.5906 0
8533 2 9.39764 39.4701 0
328 4 13.1567 37.5906 1.87953
8534 2 13.1567 39.4701 0
329 4 15.0362 37.5906 0
331 4 15.0362 39.4701 1.87953
330 4 16.9157 39.4701 0
332 4 18.7953 37.5906 0
8535 2 16.9157 39.4701 0
8536 2 16.9157 37.5906 1.87953
8537 2 18.7953 37.5906 0
8539 2 18.7953 39.4701 1.87953
333 4 20.6748 39.4701 0
334 4 22.5543 37.5906 0
336 4 22.5543 39.4701 1.87953
8538 2 20.6748 37.5906 1.87953
8540 2 22.5543 37.5906 0
8543 2 22.5543 39.4701 1.87953
335 4 24.4339 39.4701 0
8541 2 24.4339 39.4701 0
8542 2 24.4339 37.5906 1.87953
337 4 28.1929 39.4701 0
338 4 28.1929 37.5906 1.87953
8544 2 28.1929 39.4701 0
8545 2 28.1929 37.5906 1.87953
339 4 30.0724 37.5906 0
340 4 31.952 39.4701 0
341 4 31.952 37.5906 1.87953
342 4 30.0724 39.4701 1.87953
8546 2 30.0724 37.5906 0
8547 2 31.952 39.4701 0
8548 2 31.952 37.5906 1.87953
8549 2 30.0724 39.4701 1.87953
343 4 33.8315 37.5906 0
344 4 35.711 39.4701 0
345 4 35.711 37.5906 1.87953
8550 2 35.711 37.5906 1.87953
8551 2 33.8315 39.4701 1.87953
346 4 37.5906 37.5906 0
8552 2 39.4701 37.5906 1.87953
8553 2 37.5906 39.4701 1.87953
347 4 41.3496 37.5906 0
348 4 45.1087 37.5906 0
350 4 45.1087 39.4701 1.87953
8555 2 45.1087 39.4701 1.87953
349 4 46.9882 37.5906 1.87953
8554 2 46.9882 39.4701 0
8556 2 48.8677 37.5906 0
351 4 50.7472 39.4701 0
352 4 52.6268 37.5906 0
8557 2 50.7472 37.5906 1.87953
353 4 54.5063 39.4701 0
354 4 54.5063 37.5906 1.87953
8558 2 54.5063 39.4701 0
355 4 58.2654 39.4701 0
356 4 56.3858 39.4701 1.87953
8559 2 58.2654 39.4701 0
8560 2 56.3858 39.4701 1.87953
357 4 0 41.3496 0
359 4 1.87953 41.3496 1.87953
8561 2 0 41.3496 0
8562 2 1.87953 41.3496 1.87953
361 4 3.75906 41.3496 0
8563 2 3.75906 41.3496 0
8564 2 5.63858 41.3496 1.87953
363 4 7.51811 41.3496 0
364 4 9.39764 41.3496 1.87953
8565 2 7.51811 41.3496 0
8566 2 9.39764 41.3496 1.87953
365 4 11.2772 41.3496 0
366 4 13.1567 41.3496 1.87953
8569 2 13.1567 41.3496 1.87953
368 4 16.9157 41.3496 1.87953
8570 2 16.9157 41.3496 1.87953
370 4 20.6748 41.3496 1.87953
372 4 24.4339 41.3496 1.87953
374 4 26.3134 41.3496 0
8573 2 24.4339 41.3496 1.87953
8575 2 26.3134 41.3496 0
376 4 28.1929 41.3496 1.87953
8576 2 28.1929 41.3496 1.87953
378 4 30.0724 41.3496 0
379 4 31.952 41.3496 1.87953
380 4 33.8315 41.3496 0
381 4 35.711 41.3496 1.87953
8578 2 33.8315 41.3496 0
383 4 39.4701 41.3496 1.87953
385 4 43.2291 41.3496 1.87953
8581 2 43.2291 41.3496 1.87953
387 4 48.8677 41.3496 0
390 4 52.6268 41.3496 0
8582 2 50.7472 41.3496 1.87953
391 4 54.5063 41.3496 1.87953
8584 2 54.5063 41.3496 1.87953
8586 2 58.2654 41.3496 1.87953
358 4 1.87953 43.2291 0
360 4 0 43.2291 1.87953
362 4 3.75906 43.2291 1.87953
395 4 3.75906 45.1087 0
8591 2 5.63858 45.1087 1.87953
397 4 7.51811 45.1087 0
399 4 9.39764 45.1087 1.87953
8567 2 7.51811 43.2291 1.87953
8593 2 7.51811 45.1087 0
8595 2 9.39764 45.1087 1.87953
367 4 11.2772 43.2291 1.87953
401 4 13.1567 45.1087 1.87953
8568 2 13.1567 43.2291 0
402 4 15.0362 45.1087 0
371 4 18.7953 43.2291 1.87953
8572 2 18.7953 43.2291 1.87953
8597 2 16.9157 45.1087 1.87953
8598 2 18.7953 45.1087 0
369 4 20.6748 43.2291 0
373 4 22.5543 43.2291 1.87953
406 4 22.5543 45.1087 0
8571 2 20.6748 43.2291 0
8574 2 22.5543 43.2291 1.87953
8599 2 20.6748 45.1087 1.87953
8600 2 22.5543 45.1087 0
377 4 26.3134 43.2291 1.87953
407 4 26.3134 45.1087 0
8577 2 26.3134 43.2291 1.87953
8601 2 24.4339 45.1087 1.87953
8602 2 26.3134 45.1087 0
375 4 28.1929 43.2291 0
8605 2 31.952 45.1087 1.87953
408 4 35.711 45.1087 1.87953
8579 2 33.8315 43.2291 1.87953
8607 2 33.8315 45.1087 0
8608 2 35.711 45.1087 1.87953
382 4 39.4701 43.2291 0
410 4 37.5906 45.1087 0
412 4 39.4701 45.1087 1.87953
8580 2 39.4701 43.2291 0
8610 2 37.5906 45.1087 0
8612 2 39.4701 45.1087 1.87953
413 4 41.3496 45.1087 0
8614 2 41.3496 45.1087 0
384 4 43.2291 43.2291 0
386 4 45.1087 43.2291 1.87953
415 4 43.2291 45.1087 1.87953
8615 2 43.2291 45.1087 1.87953
8616 2 45.1087 45.1087 0
389 4 48.8677 43.2291 1.87953
418 4 48.8677 45.1087 0
8617 2 46.9882 45.1087 1.87953
8618 2 48.8677 45.1087 0
388 4 50.7472 43.2291 0
419 4 50.7472 45.1087 1.87953
420 4 52.6268 45.1087 0
8585 2 52.6268 43.2291 1.87953
8583 2 54.5063 43.2291 0
392 4 58.2654 43.2291 0
393 4 56.3858 43.2291 1.87953
422 4 56.3858 45.1087 0
8587 2 56.3858 43.2291 1.87953
8622 2 56.3858 45.1087 0
394 4 0 46.9882 1.87953
8588 2 1.87953 46.9882 0
8589 2 0 46.9882 1.87953
8623 2 0 48.8677 0
8624 2 1.87953 48.8677 1.87953
396 4 3.75906 46.9882 1.87953
426 4 3.75906 48.8677 0
8590 2 5.63858 46.9882 0
8592 2 3.75906 46.9882 1.87953
8625 2 5.63858 48.8677 1.87953
398 4 9.39764 46.9882 0
400 4 7.51811 46.9882 1.87953
8594 2 9.39764 46.9882 0
8627 2 7.51811 48.8677 0
8628 2 9.39764 48.8677 1.87953
429 4 11.2772 48.8677 0
8596 2 13.1567 46.9882 0
8631 2 13.1567 48.8677 1.87953
404 4 15.0362 46.9882 1.87953
432 4 15.0362 48.8677 0
403 4 16.9157 46.9882 0
405 4 18.7953 46.9882 1.87953
435 4 18.7953 48.8677 0
436 4 22.5543 48.8677 0
8635 2 20.6748 48.8677 1.87953
8636 2 22.5543 48.8677 0
438 4 24.4339 48.8677 1.87953
8603 2 26.3134 46.9882 1.87953
440 4 28.1929 48.8677 1.87953
8638 2 28.1929 48.8677 1.87953
441 4 30.0724 48.8677 0
8604 2 31.952 46.9882 0
8606 2 30.0724 46.9882 1.87953
409 4 33.8315 46.9882 1.87953
443 4 35.711 48.8677 1.87953
8609 2 33.8315 46.9882 1.87953
8641 2 35.711 48.8677 1.87953
411 4 39.4701 46.9882 0
445 4 37.5906 48.8677 0
8611 2 39.4701 46.9882 0
8613 2 37.5906 46.9882 1.87953
448 4 41.3496 48.8677 0
8644 2 41.3496 48.8677 0
414 4 43.2291 46.9882 0
417 4 45.1087 46.9882 1.87953
449 4 43.2291 48.8677 1.87953
450 4 45.1087 48.8677 0
416 4 46.9882 46.9882 0
452 4 46.9882 48.8677 1.87953
454 4 48.8677 48.8677 0
8620 2 48.8677 46.9882 1.87953
8647 2 46.9882 48.8677 1.87953
8649 2 48.8677 48.8677 0
456 4 50.7472 48.8677 1.87953
8619 2 50.7472 46.9882 0
8621 2 52.6268 46.9882 1.87953
8651 2 50.7472 48.8677 1.87953
8652 2 52.6268 48.8677 0
421 4 54.5063 46.9882 0
457 4 54.5063 48.8677 1.87953
423 4 58.2654 46.9882 0
424 4 56.3858 46.9882 1.87953
459 4 56.3858 48.8677 0
460 4 58.2654 48.8677 1.87953
8655 2 56.3858 48.8677 0
8657 2 58.2654 48.8677 1.87953
425 4 0 50.7472 1.87953
8658 2 0 52.6268 0
8660 2 1.87953 52.6268 1.87953
427 4 3.75906 50.7472 1.87953
8626 2 3.75906 50.7472 1.87953
428 4 9.39764 50.7472 0
463 4 9.39764 52.6268 1.87953
8629 2 7.51811 50.7472 1.87953
8662 2 7.51811 52.6268 0
430 4 13.1567 50.7472 0
431 4 11.2772 50.7472 1.87953
464 4 11.2772 52.6268 0
8630 2 13.1567 50.7472 0
8632 2 11.2772 50.7472 1.87953
8665 2 11.2772 52.6268 0
8667 2 13.1567 52.6268 1.87953
434 4 15.0362 50.7472 1.87953
465 4 15.0362 52.6268 0
8634 2 15.0362 50.7472 1.87953
8668 2 15.0362 52.6268 0
433 4 16.9157 50.7472 0
467 4 18.7953 52.6268 0
8633 2 16.9157 50.7472 0
8669 2 18.7953 52.6268 0
468 4 20.6748 52.6268 1.87953
8671 2 22.5543 52.6268 0
437 4 24.4339 50.7472 0
470 4 24.4339 52.6268 1.87953
471 4 26.3134 52.6268 0
8637 2 24.4339 50.7472 0
8639 2 26.3134 50.7472 1.87953
439 4 28.1929 50.7472 0
473 4 28.1929 52.6268 1.87953
8673 2 28.1929 52.6268 1.87953
475 4 31.952 52.6268 1.87953
8640 2 30.0724 50.7472 1.87953
8674 2 30.0724 52.6268 0
442 4 35.711 50.7472 0
444 4 33.8315 50.7472 1.87953
477 4 35.711 52.6268 1.87953
8676 2 33.8315 52.6268 0
8677 2 35.711 52.6268 1.87953
446 4 39.4701 50.7472 0
447 4 37.5906 50.7472 1.87953
478 4 37.5906 52.6268 0
479 4 39.4701 52.6268 1.87953
8642 2 39.4701 50.7472 0
8643 2 37.5906 50.7472 1.87953
8680 2 39.4701 52.6268 1.87953
8646 2 41.3496 50.7472 1.87953
453 4 45.1087 50.7472 1.87953
481 4 43.2291 52.6268 1.87953
483 4 45.1087 52.6268 0
8645 2 43.2291 50.7472 0
8648 2 45.1087 50.7472 1.87953
451 4 46.9882 50.7472 0
484 4 46.9882 52.6268 1.87953
8684 2 48.8677 52.6268 0
455 4 50.7472 50.7472 0
458 4 52.6268 50.7472 1.87953
8650 2 50.7472 50.7472 0
8654 2 52.6268 50.7472 1.87953
8687 2 52.6268 52.6268 0
488 4 54.5063 52.6268 1.87953
8653 2 54.5063 50.7472 0
489 4 56.3858 52.6268 0
491 4 58.2654 52.6268 1.87953
8656 2 58.2654 50.7472 0
8659 2 1.87953 54.5063 0
461 4 5.63858 54.5063 0
8661 2 3.75906 54.5063 1.87953
462 4 9.39764 54.5063 0
8663 2 9.39764 54.5063 0
8664 2 7.51811 54.5063 1.87953
8666 2 13.1567 54.5063 0
466 4 15.0362 54.5063 1.87953
469 4 18.7953 54.5063 1.87953
8670 2 20.6748 54.5063 0
8672 2 22.5543 54.5063 1.87953
474 4 26.3134 54.5063 1.87953
472 4 28.1929 54.5063 0
8675 2 31.952 54.5063 0
476 4 35.711 54.5063 0
8678 2 33.8315 54.5063 1.87953
8679 2 39.4701 54.5063 0
8681 2 37.5906 54.5063 1.87953
482 4 41.3496 54.5063 1.87953
8682 2 41.3496 54.5063 1.87953
480 4 43.2291 54.5063 0
8683 2 45.1087 54.5063 1.87953
486 4 48.8677 54.5063 1.87953
8686 2 48.8677 54.5063 1.87953
485 4 50.7472 54.5063 0
8685 2 50.7472 54.5063 0
487 4 54.5063 54.5063 0
8688 2 54.5063 54.5063 0
490 4 58.2654 54.5063 0
492 4 1.87953 58.2654 0
8689 2 0 56.3858 0
8690 2 1.87953 58.2654 0
8691 2 0 58.2654 1.87953
493 4 3.75906 56.3858 0
494 4 5.63858 58.2654 0
495 4 3.75906 58.2654 1.87953
8692 2 3.75906 56.3858 0
8693 2 5.63858 56.3858 1.87953
8694 2 3.75906 58.2654 1.87953
496 4 7.51811 56.3858 0
497 4 9.39764 56.3858 1.87953
8695 2 9.39764 58.2654 0
8696 2 7.51811 58.2654 1.87953
498 4 13.1567 58.2654 0
8697 2 11.2772 56.3858 0
8698 2 13.1567 56.3858 1.87953
8699 2 15.0362 56.3858 0
8702 2 15.0362 58.2654 1.87953
501 4 18.7953 58.2654 1.87953
8700 2 16.9157 58.2654 0
8701 2 16.9157 56.3858 1.87953
8703 2 18.7953 56.3858 0
499 4 20.6748 58.2654 0
500 4 20.6748 56.3858 1.87953
502 4 22.5543 56.3858 0
8706 2 22.5543 58.2654 1.87953
503 4 26.3134 56.3858 0
8704 2 24.4339 58.2654 0
8705 2 24.4339 56.3858 1.87953
8707 2 26.3134 56.3858 0
8709 2 26.3134 58.2654 1.87953
504 4 28.1929 58.2654 0
505 4 28.1929 56.3858 1.87953
8708 2 28.1929 56.3858 1.87953
506 4 31.952 58.2654 0
507 4 31.952 56.3858 1.87953
508 4 30.0724 58.2654 1.87953
8710 2 31.952 58.2654 0
8711 2 30.0724 58.2654 1.87953
509 4 33.8315 56.3858 0
510 4 35.711 58.2654 0
511 4 35.711 56.3858 1.87953
8712 2 33.8315 56.3858 0
8713 2 35.711 56.3858 1.87953
8714 2 33.8315 58.2654 1.87953
512 4 37.5906 56.3858 0
8715 2 37.5906 56.3858 0
8716 2 39.4701 58.2654 0
8717 2 39.4701 56.3858 1.87953
8718 2 37.5906 58.2654 1.87953
513 4 41.3496 56.3858 0
8719 2 41.3496 56.3858 0
514 4 43.2291 56.3858 1.87953
516 4 45.1087 58.2654 1.87953
8720 2 43.2291 58.2654 0
515 4 46.9882 56.3858 1.87953
517 4 48.8677 56.3858 0
519 4 48.8677 58.2654 1.87953
8721 2 46.9882 56.3858 1.87953
8722 2 48.8677 56.3858 0
8725 2 48.8677 58.2654 1.87953
518 4 50.7472 56.3858 1.87953
8723 2 50.7472 58.2654 0
8724 2 50.7472 56.3858 1.87953
8726 2 54.5063 58.2654 0
8727 2 54.5063 56.3858 1.87953
520 4 58.2654 58.2654 0
521 4 58.2654 56.3858 1.87953
8728 2 58.2654 58.2654 0
8729 2 58.2654 56.3858 1.87953
8730 2 1.87953 1.87953 3.75906
8731 2 0 1.87953 5.63858
522 4 5.63858 0 5.63858
523 4 3.75906 1.87953 5.63858
8732 2 5.63858 1.87953 3.75906
8733 2 5.63858 0 5.63858
8734 2 3.75906 1.87953 5.63858
524 4 9.39764 0 5.63858
8735 2 7.51811 0 3.75906
8736 2 9.39764 0 5.63858
8737 2 7.51811 1.87953 5.63858
525 4 13.1567 1.87953 3.75906
526 4 13.1567 0 5.63858
527 4 11.2772 1.87953 5.63858
8738 2 13.1567 0 5.63858
8739 2 11.2772 1.87953 5.63858
528 4 15.0362 0 3.75906
8740 2 15.0362 0 3.75906
8741 2 15.0362 1.87953 5.63858
529 4 16.9157 0 5.63858
531 4 18.7953 1.87953 5.63858
8742 2 18.7953 1.87953 5.63858
530 4 20.6748 0 5.63858
8743 2 22.5543 0 3.75906
8745 2 22.5543 1.87953 5.63858
532 4 24.4339 1.87953 3.75906
533 4 24.4339 0 5.63858
534 4 26.3134 0 3.75906
535 4 26.3134 1.87953 5.63858
8744 2 24.4339 1.87953 3.75906
8746 2 26.3134 0 3.75906
8747 2 28.1929 0 5.63858
536 4 30.0724 0 3.75906
537 4 31.952 1.87953 3.75906
538 4 31.952 0 5.63858
539 4 30.0724 1.87953 5.63858
8748 2 30.0724 0 3.75906
8749 2 30.0724 1.87953 5.63858
8750 2 35.711 1.87953 3.75906
8751 2 35.711 0 5.63858
8752 2 33.8315 1.87953 5.63858
540 4 37.5906 0 3.75906
8753 2 37.5906 1.87953 5.63858
541 4 41.3496 0 3.75906
542 4 43.2291 1.87953 3.75906
545 4 45.1087 1.87953 5.63858
8754 2 43.2291 1.87953 3.75906
8755 2 43.2291 0 5.63858
8756 2 45.1087 1.87953 5.63858
543 4 46.9882 1.87953 3.75906