ITEM: TIMESTEP
0
ITEM: NUMBER OF ATOMS
16384
ITEM: BOX BOUNDS pp pp pp
0.0000000000000000e+00 6.1771149597061701e+01
0.0000000000000000e+00 6.1771149597061701e+01
0.0000000000000000e+00 6.1771149597061701e+01
ITEM: ATOMS id type x y z
1 4 0 0 0
2 4 1.94567 1.94567 0
8193 2 0 0 0
8194 2 1.94567 1.94567 0
8195 2 1.94567 0 1.94567
8196 2 0 1.94567 1.94567
3 4 5.83701 1.94567 0
4 4 5.83701 0 1.94567
5 4 3.89134 1.94567 1.94567
8197 2 5.83701 0 1.94567
6 4 9.72835 0 1.94567
7 4 7.78268 1.94567 1.94567
8198 2 7.78268 0 0
8199 2 9.72835 1.94567 0
10 4 11.674 1.94567 1.94567
8 4 13.6197 1.94567 0
9 4 13.6197 0 1.94567
11 4 15.5654 0 0
12 4 15.5654 1.94567 1.94567
8200 2 13.6197 1.94567 0
8201 2 17.511 0 1.94567
8203 2 19.4567 1.94567 1.94567
8202 2 21.4024 0 1.94567
13 4 23.348 0 0
8204 2 23.348 0 0
8205 2 25.2937 1.94567 0
8206 2 23.348 1.94567 1.94567
14 4 27.2394 0 0
15 4 29.185 0 1.94567
16 4 27.2394 1.94567 1.94567
8207 2 27.2394 0 0
8208 2 29.185 0 1.94567
17 4 31.1307 0 0
18 4 33.0764 1.94567 0
19 4 33.0764 0 1.94567
8209 2 33.0764 1.94567 0
8212 2 35.022 1.94567 1.94567
20 4 36.9677 1.94567 0
21 4 36.9677 0 1.94567
8210 2 36.9677 1.94567 0
8211 2 36.9677 0 1.94567
8213 2 38.9134 0 0
8215 2 38.9134 1.94567 1.94567
22 4 40.8591 1.94567 0
8214 2 40.8591 0 1.94567
23 4 42.8047 0 0
24 4 44.7504 1.94567 0
8216 2 44.7504 1.94567 0
8217 2 42.8047 1.94567 1.94567
25 4 48.6417 1.94567 0
8218 2 46.6961 0 0
8219 2 48.6417 1.94567 0
8220 2 46.6961 1.94567 1.94567
8221 2 50.5874 0 0
8223 2 50.5874 1.94567 1.94567
26 4 52.5331 1.94567 0
27 4 54.4787 0 0
29 4 54.4787 1.94567 1.94567
8222 2 52.5331 0 1.94567
28 4 56.4244 0 1.94567
30 4 58.3701 0 0
8224 2 56.4244 0 1.94567
8225 2 58.3701 0 0
31 4 60.3157 1.94567 0
32 4 1.94567 3.89134 1.94567
33 4 0 5.83701 1.94567
8226 2 0 3.89134 0
8227 2 1.94567 5.83701 0
34 4 5.83701 3.89134 1.94567
35 4 3.89134 5.83701 1.94567
8228 2 5.83701 3.89134 1.94567
36 4 7.78268 3.89134 0
37 4 9.72835 5.83701 0
38 4 9.72835 3.89134 1.94567
39 4 7.78268 5.83701 1.94567
8229 2 7.78268 3.89134 0
8230 2 9.72835 5.83701 0
42 4 11.674 5.83701 1.94567
40 4 13.6197 5.83701 0
41 4 13.6197 3.89134 1.94567
43 4 15.5654 3.89134 0
45 4 15.5654 5.83701 1.94567
8231 2 15.5654 3.89134 0
44 4 17.511 5.83701 0
47 4 19.4567 5.83701 1.94567
8232 2 17.511 3.89134 1.94567
46 4 21.4024 3.89134 1.94567
8233 2 21.4024 5.83701 0
48 4 23.348 3.89134 0
49 4 25.2937 5.83701 0
50 4 25.2937 3.89134 1.94567
51 4 23.348 5.83701 1.94567
8234 2 25.2937 5.83701 0
8235 2 25.2937 3.89134 1.94567
52 4 27.2394 5.83701 1.94567
8236 2 27.2394 3.89134 0
8237 2 27.2394 5.83701 1.94567
53 4 31.1307 3.89134 0
56 4 31.1307 5.83701 1.94567
8238 2 31.1307 3.89134 0
54 4 33.0764 5.83701 0
55 4 33.0764 3.89134 1.94567
57 4 35.022 3.89134 0
59 4 35.022 5.83701 1.94567
8239 2 33.0764 5.83701 0
8241 2 35.022 5.83701 1.94567
58 4 36.9677 5.83701 0
61 4 38.9134 5.83701 1.94567
8240 2 36.9677 3.89134 1.94567
60 4 40.8591 3.89134 1.94567
8242 2 40.8591 3.89134 1.94567
62 4 44.7504 3.89134 1.94567
8243 2 42.8047 3.89134 0
8244 2 44.7504 5.83701 0
63 4 46.6961 3.89134 0
64 4 48.6417 5.83701 0
65 4 48.6417 3.89134 1.94567
8245 2 46.6961 3.89134 0
8246 2 48.6417 3.89134 1.94567
8247 2 50.5874 3.89134 0
8250 2 50.5874 5.83701 1.94567
66 4 52.5331 5.83701 0
67 4 52.5331 3.89134 1.94567
68 4 54.4787 3.89134 0
8248 2 52.5331 5.83701 0
8249 2 52.5331 3.89134 1.94567
8251 2 54.4787 3.89134 0
69 4 56.4244 5.83701 0
70 4 58.3701 3.89134 0
72 4 58.3701 5.83701 1.94567
8252 2 58.3701 3.89134 0
8255 2 58.3701 5.83701 1.94567
71 4 60.3157 5.83701 0
8253 2 60.3157 5.83701 0
8254 2 60.3157 3.89134 1.94567
73 4 1.94567 7.78268 1.94567
8256 2 1.94567 7.78268 1.94567
8257 2 0 9.72835 1.94567
74 4 5.83701 7.78268 1.94567
75 4 3.89134 9.72835 1.94567
8258 2 3.89134 7.78268 0
8259 2 5.83701 9.72835 0
8260 2 7.78268 7.78268 0
8261 2 9.72835 7.78268 1.94567
8262 2 7.78268 9.72835 1.94567
76 4 11.674 7.78268 0
8263 2 11.674 7.78268 0
8264 2 11.674 9.72835 1.94567
77 4 13.6197 7.78268 1.94567
8265 2 15.5654 7.78268 0
78 4 17.511 7.78268 1.94567
8266 2 17.511 9.72835 0
8267 2 17.511 7.78268 1.94567
8268 2 19.4567 7.78268 0
79 4 21.4024 9.72835 0
80 4 21.4024 7.78268 1.94567
8269 2 21.4024 9.72835 0
8270 2 21.4024 7.78268 1.94567
81 4 23.348 7.78268 0
82 4 25.2937 7.78268 1.94567
8271 2 25.2937 9.72835 0
8272 2 23.348 9.72835 1.94567
83 4 27.2394 9.72835 1.94567
8273 2 27.2394 9.72835 1.94567
8274 2 31.1307 7.78268 0
8276 2 31.1307 9.72835 1.94567
84 4 33.0764 7.78268 1.94567
86 4 35.022 9.72835 1.94567
8275 2 33.0764 9.72835 0
8277 2 35.022 7.78268 0
8280 2 35.022 9.72835 1.94567
85 4 36.9677 9.72835 0
88 4 38.9134 9.72835 1.94567
8278 2 36.9677 9.72835 0
8279 2 36.9677 7.78268 1.94567
8281 2 38.9134 7.78268 0
87 4 40.8591 7.78268 1.94567
8282 2 40.8591 9.72835 0
8283 2 40.8591 7.78268 1.94567
89 4 44.7504 7.78268 1.94567
90 4 42.8047 9.72835 1.94567
8284 2 44.7504 9.72835 0
91 4 48.6417 9.72835 0
92 4 46.6961 9.72835 1.94567
8285 2 46.6961 7.78268 0
93 4 50.5874 9.72835 1.94567
8288 2 50.5874 9.72835 1.94567
94 4 54.4787 7.78268 0
8286 2 52.5331 9.72835 0
8287 2 52.5331 7.78268 1.94567
8289 2 54.4787 7.78268 0
8291 2 54.4787 9.72835 1.94567
95 4 58.3701 7.78268 0
97 4 58.3701 9.72835 1.94567
8290 2 56.4244 9.72835 0
8292 2 58.3701 7.78268 0
8294 2 58.3701 9.72835 1.94567
96 4 60.3157 9.72835 0
8293 2 60.3157 9.72835 0
99 4 1.94567 11.674 1.94567
8295 2 0 11.674 0
101 4 3.89134 11.674 0
103 4 5.83701 11.674 1.94567
8296 2 3.89134 11.674 0
8298 2 5.83701 11.674 1.94567
104 4 7.78268 11.674 0
105 4 9.72835 11.674 1.94567
8299 2 7.78268 11.674 0
8301 2 11.674 11.674 0
107 4 13.6197 11.674 1.94567
108 4 19.4567 11.674 0
8305 2 17.511 11.674 1.94567
110 4 21.4024 11.674 1.94567
111 4 23.348 11.674 0
112 4 25.2937 11.674 1.94567
114 4 27.2394 11.674 0
116 4 29.185 11.674 1.94567
8309 2 27.2394 11.674 0
8310 2 29.185 11.674 1.94567
8312 2 31.1307 11.674 0
119 4 35.022 11.674 0
8314 2 35.022 11.674 0
121 4 36.9677 11.674 1.94567
123 4 38.9134 11.674 0
8315 2 36.9677 11.674 1.94567
8316 2 38.9134 11.674 0
124 4 40.8591 11.674 1.94567
8317 2 42.8047 11.674 0
126 4 48.6417 11.674 1.94567
128 4 50.5874 11.674 0
129 4 52.5331 11.674 1.94567
130 4 54.4787 11.674 0
8319 2 52.5331 11.674 1.94567
8321 2 54.4787 11.674 0
8323 2 58.3701 11.674 0
98 4 1.94567 13.6197 0
100 4 0 13.6197 1.94567
8327 2 1.94567 15.5654 1.94567
102 4 5.83701 13.6197 0
8297 2 5.83701 13.6197 0
8329 2 3.89134 15.5654 0
8331 2 5.83701 15.5654 1.94567
134 4 9.72835 15.5654 1.94567
8300 2 9.72835 13.6197 0
8333 2 7.78268 15.5654 0
8303 2 11.674 13.6197 1.94567
106 4 13.6197 13.6197 0
8302 2 13.6197 13.6197 0
137 4 19.4567 15.5654 0
8304 2 17.511 13.6197 0
8338 2 17.511 15.5654 1.94567
8340 2 19.4567 15.5654 0
109 4 21.4024 13.6197 0
8306 2 21.4024 13.6197 0
8341 2 21.4024 15.5654 1.94567
113 4 23.348 13.6197 1.94567
139 4 23.348 15.5654 0
8307 2 25.2937 13.6197 0
8308 2 23.348 13.6197 1.94567
8344 2 25.2937 15.5654 1.94567
115 4 29.185 13.6197 0
117 4 27.2394 13.6197 1.94567
8311 2 27.2394 13.6197 1.94567
118 4 31.1307 13.6197 1.94567
122 4 35.022 13.6197 1.94567
143 4 33.0764 15.5654 1.94567
8313 2 33.0764 13.6197 0
120 4 36.9677 13.6197 0
146 4 36.9677 15.5654 1.94567
148 4 38.9134 15.5654 0
8349 2 36.9677 15.5654 1.94567
8318 2 42.8047 13.6197 1.94567
8353 2 42.8047 15.5654 0
8354 2 44.7504 15.5654 1.94567
125 4 48.6417 13.6197 0
127 4 46.6961 13.6197 1.94567
152 4 46.6961 15.5654 0
8356 2 46.6961 15.5654 0
8357 2 48.6417 15.5654 1.94567
155 4 50.5874 15.5654 0
8320 2 50.5874 13.6197 1.94567
156 4 52.5331 15.5654 1.94567
158 4 54.4787 15.5654 0
8322 2 54.4787 13.6197 1.94567
8359 2 52.5331 15.5654 1.94567
8325 2 58.3701 13.6197 1.94567
8362 2 58.3701 15.5654 0
131 4 60.3157 13.6197 0
8324 2 60.3157 13.6197 0
8364 2 60.3157 15.5654 1.94567
132 4 1.94567 17.511 0
160 4 0 19.4567 0
162 4 1.94567 19.4567 1.94567
8326 2 1.94567 17.511 0
8328 2 0 17.511 1.94567
8366 2 0 19.4567 0
8368 2 1.94567 19.4567 1.94567
133 4 5.83701 17.511 0
164 4 3.89134 19.4567 0
165 4 5.83701 19.4567 1.94567
8330 2 5.83701 17.511 0
8332 2 3.89134 17.511 1.94567
8370 2 3.89134 19.4567 0
8372 2 5.83701 19.4567 1.94567
167 4 9.72835 19.4567 1.94567
8334 2 9.72835 17.511 0
8335 2 7.78268 17.511 1.94567
8374 2 7.78268 19.4567 0
135 4 11.674 17.511 1.94567
136 4 15.5654 17.511 1.94567
169 4 13.6197 19.4567 1.94567
171 4 15.5654 19.4567 0
8336 2 13.6197 17.511 0
8339 2 15.5654 17.511 1.94567
8377 2 13.6197 19.4567 1.94567
8378 2 15.5654 19.4567 0
173 4 17.511 19.4567 1.94567
175 4 19.4567 19.4567 0
8337 2 17.511 17.511 0
8342 2 19.4567 17.511 1.94567
8380 2 17.511 19.4567 1.94567
138 4 21.4024 17.511 0
8383 2 21.4024 19.4567 1.94567
140 4 25.2937 17.511 0
177 4 23.348 19.4567 0
8343 2 25.2937 17.511 0
8345 2 23.348 17.511 1.94567
8385 2 25.2937 19.4567 1.94567
141 4 29.185 17.511 0
142 4 27.2394 17.511 1.94567
8346 2 27.2394 17.511 1.94567
8386 2 27.2394 19.4567 0
144 4 31.1307 17.511 1.94567
8348 2 31.1307 17.511 1.94567
147 4 35.022 17.511 1.94567
180 4 35.022 19.4567 0
8347 2 33.0764 17.511 0
8350 2 35.022 17.511 1.94567
145 4 36.9677 17.511 0
150 4 38.9134 17.511 1.94567
183 4 38.9134 19.4567 0
8352 2 38.9134 17.511 1.94567
8390 2 36.9677 19.4567 1.94567
8391 2 38.9134 19.4567 0
149 4 40.8591 17.511 0
8351 2 40.8591 17.511 0
8393 2 40.8591 19.4567 1.94567
151 4 44.7504 17.511 0
184 4 42.8047 19.4567 0
8355 2 42.8047 17.511 1.94567
153 4 48.6417 17.511 0
154 4 46.6961 17.511 1.94567
186 4 48.6417 19.4567 1.94567
8358 2 46.6961 17.511 1.94567
8395 2 46.6961 19.4567 0
8396 2 48.6417 19.4567 1.94567
157 4 50.5874 17.511 1.94567
8360 2 50.5874 17.511 1.94567
8398 2 50.5874 19.4567 0
188 4 52.5331 19.4567 1.94567
8399 2 52.5331 19.4567 1.94567
8401 2 54.4787 19.4567 0
159 4 58.3701 17.511 1.94567
8361 2 56.4244 17.511 0
8365 2 58.3701 17.511 1.94567
192 4 60.3157 19.4567 1.94567
8363 2 60.3157 17.511 0
161 4 1.94567 21.4024 0
163 4 0 21.4024 1.94567
8367 2 1.94567 21.4024 0
8369 2 0 21.4024 1.94567
8371 2 5.83701 21.4024 0
8373 2 3.89134 21.4024 1.94567
166 4 9.72835 21.4024 0
168 4 7.78268 21.4024 1.94567
8375 2 9.72835 21.4024 0
170 4 11.674 21.4024 1.94567
174 4 15.5654 21.4024 1.94567
8376 2 13.6197 21.4024 0
8381 2 15.5654 21.4024 1.94567
172 4 17.511 21.4024 0
176 4 19.4567 21.4024 1.94567
8379 2 17.511 21.4024 0
8382 2 21.4024 21.4024 0
178 4 25.2937 21.4024 0
8384 2 25.2937 21.4024 0
179 4 29.185 21.4024 0
8387 2 29.185 21.4024 0
8388 2 31.1307 21.4024 1.94567
182 4 35.022 21.4024 1.94567
181 4 36.9677 21.4024 0
8389 2 36.9677 21.4024 0
8392 2 40.8591 21.4024 0
185 4 42.8047 21.4024 1.94567
8394 2 42.8047 21.4024 1.94567
8397 2 46.6961 21.4024 1.94567
189 4 50.5874 21.4024 1.94567
8400 2 50.5874 21.4024 1.94567
187 4 52.5331 21.4024 0
190 4 56.4244 21.4024 0
8402 2 56.4244 21.4024 0
191 4 60.3157 21.4024 0
8403 2 60.3157 21.4024 0
193 4 1.94567 25.2937 0
194 4 1.94567 23.348 1.94567
195 4 0 25.2937 1.94567
196 4 3.89134 23.348 0
197 4 5.83701 25.2937 0
8404 2 3.89134 23.348 0
8405 2 3.89134 25.2937 1.94567
198 4 7.78268 23.348 0
199 4 9.72835 25.2937 0
200 4 9.72835 23.348 1.94567
201 4 7.78268 25.2937 1.94567
8406 2 7.78268 23.348 0
8407 2 9.72835 25.2937 0
202 4 11.674 23.348 0
8408 2 11.674 23.348 0
8409 2 11.674 25.2937 1.94567
203 4 13.6197 25.2937 0
204 4 13.6197 23.348 1.94567
8410 2 15.5654 23.348 0
8412 2 15.5654 25.2937 1.94567
205 4 17.511 25.2937 0
206 4 17.511 23.348 1.94567
208 4 19.4567 25.2937 1.94567
8411 2 17.511 25.2937 0
8413 2 19.4567 23.348 0
207 4 21.4024 25.2937 0
8414 2 21.4024 23.348 1.94567
209 4 23.348 23.348 0
210 4 25.2937 25.2937 0
8415 2 25.2937 25.2937 0
8416 2 25.2937 23.348 1.94567
211 4 29.185 25.2937 0
8417 2 27.2394 23.348 0
8418 2 29.185 23.348 1.94567
212 4 31.1307 23.348 0
215 4 31.1307 25.2937 1.94567
8419 2 31.1307 23.348 0
213 4 33.0764 25.2937 0
214 4 33.0764 23.348 1.94567
8420 2 33.0764 23.348 1.94567
8421 2 35.022 23.348 0
216 4 36.9677 25.2937 0
217 4 36.9677 23.348 1.94567
218 4 38.9134 23.348 0
8422 2 36.9677 25.2937 0
8423 2 36.9677 23.348 1.94567
8424 2 38.9134 23.348 0
219 4 40.8591 23.348 1.94567
8425 2 40.8591 25.2937 0
220 4 42.8047 23.348 0
221 4 44.7504 25.2937 0
8426 2 44.7504 25.2937 0
8427 2 42.8047 25.2937 1.94567
222 4 48.6417 25.2937 0
223 4 48.6417 23.348 1.94567
8428 2 46.6961 25.2937 1.94567
224 4 50.5874 23.348 0
225 4 50.5874 25.2937 1.94567
226 4 54.4787 23.348 0
228 4 54.4787 25.2937 1.94567
8429 2 52.5331 23.348 1.94567
227 4 56.4244 25.2937 0
8430 2 56.4244 25.2937 0
229 4 60.3157 25.2937 0
230 4 0 27.2394 0
231 4 1.94567 29.185 0
232 4 1.94567 27.2394 1.94567
233 4 0 29.185 1.94567
8431 2 0 27.2394 0
8432 2 1.94567 29.185 0
8433 2 1.94567 27.2394 1.94567
8434 2 0 29.185 1.94567
234 4 5.83701 29.185 0
235 4 5.83701 27.2394 1.94567
236 4 3.89134 29.185 1.94567
8435 2 5.83701 29.185 0
8436 2 5.83701 27.2394 1.94567
237 4 9.72835 27.2394 1.94567
238 4 7.78268 29.185 1.94567
8437 2 7.78268 27.2394 0
8438 2 9.72835 29.185 0
8439 2 9.72835 27.2394 1.94567
8440 2 7.78268 29.185 1.94567
239 4 11.674 27.2394 0
241 4 11.674 29.185 1.94567
240 4 13.6197 27.2394 1.94567
244 4 15.5654 29.185 1.94567
242 4 17.511 29.185 0
243 4 17.511 27.2394 1.94567
8441 2 17.511 27.2394 1.94567
8442 2 21.4024 29.185 0
8443 2 21.4024 27.2394 1.94567
245 4 23.348 27.2394 0
246 4 25.2937 27.2394 1.94567
8444 2 25.2937 29.185 0
8445 2 25.2937 27.2394 1.94567
247 4 29.185 29.185 0
248 4 29.185 27.2394 1.94567
249 4 27.2394 29.185 1.94567
8446 2 27.2394 27.2394 0
250 4 31.1307 29.185 1.94567
8447 2 31.1307 27.2394 0
251 4 35.022 27.2394 0
8448 2 33.0764 29.185 0
8449 2 35.022 27.2394 0
252 4 38.9134 27.2394 0
8450 2 36.9677 27.2394 1.94567
8451 2 38.9134 27.2394 0
253 4 40.8591 27.2394 1.94567
8452 2 40.8591 29.185 0
8453 2 40.8591 27.2394 1.94567
254 4 44.7504 29.185 0
8454 2 42.8047 27.2394 0
8455 2 42.8047 29.185 1.94567
255 4 48.6417 29.185 0
256 4 48.6417 27.2394 1.94567
8456 2 46.6961 27.2394 0
8457 2 48.6417 29.185 0
8458 2 46.6961 29.185 1.94567
257 4 50.5874 29.185 1.94567
8459 2 52.5331 29.185 0
8461 2 54.4787 29.185 1.94567
258 4 56.4244 29.185 0
8460 2 56.4244 29.185 0
259 4 60.3157 27.2394 1.94567
8462 2 60.3157 29.185 0
260 4 0 31.1307 0
8464 2 1.94567 31.1307 1.94567
263 4 3.89134 31.1307 0
265 4 5.83701 31.1307 1.94567
8466 2 3.89134 31.1307 0
267 4 7.78268 31.1307 0
268 4 9.72835 31.1307 1.94567
8467 2 7.78268 31.1307 0
8469 2 9.72835 31.1307 1.94567
269 4 11.674 31.1307 0
8470 2 11.674 31.1307 0
8471 2 17.511 31.1307 1.94567
274 4 21.4024 31.1307 1.94567
276 4 25.2937 31.1307 1.94567
8474 2 23.348 31.1307 0
278 4 27.2394 31.1307 0
280 4 31.1307 31.1307 0
8475 2 31.1307 31.1307 0
281 4 33.0764 31.1307 1.94567
282 4 35.022 31.1307 0
8477 2 33.0764 31.1307 1.94567
8478 2 35.022 31.1307 0
284 4 36.9677 31.1307 1.94567
8480 2 38.9134 31.1307 0
8482 2 40.8591 31.1307 1.94567
286 4 42.8047 31.1307 0
8484 2 44.7504 31.1307 1.94567
289 4 48.6417 31.1307 1.94567
8487 2 48.6417 31.1307 1.94567
8489 2 52.5331 31.1307 1.94567
8491 2 54.4787 31.1307 0
291 4 56.4244 31.1307 1.94567
292 4 60.3157 31.1307 1.94567
8493 2 60.3157 31.1307 1.94567
261 4 1.94567 33.0764 0
262 4 0 33.0764 1.94567
8463 2 1.94567 33.0764 0
8465 2 0 33.0764 1.94567
8495 2 0 35.022 0
264 4 5.83701 33.0764 0
266 4 3.89134 33.0764 1.94567
295 4 3.89134 35.022 0
8498 2 5.83701 35.022 1.94567
297 4 9.72835 35.022 1.94567
8468 2 9.72835 33.0764 0
8499 2 7.78268 35.022 0
271 4 11.674 33.0764 1.94567
270 4 13.6197 33.0764 0
272 4 15.5654 33.0764 1.94567
299 4 13.6197 35.022 1.94567
301 4 15.5654 35.022 0
8472 2 15.5654 33.0764 1.94567
8502 2 13.6197 35.022 1.94567
8504 2 15.5654 35.022 0
275 4 19.4567 33.0764 1.94567
302 4 17.511 35.022 1.94567
8506 2 17.511 35.022 1.94567
8508 2 19.4567 35.022 0
273 4 21.4024 33.0764 0
8473 2 21.4024 33.0764 0
277 4 23.348 33.0764 1.94567
306 4 25.2937 35.022 1.94567
8510 2 23.348 35.022 0
279 4 27.2394 33.0764 1.94567
8513 2 27.2394 35.022 0
308 4 31.1307 35.022 0
8476 2 33.0764 33.0764 0
8515 2 33.0764 35.022 1.94567
283 4 36.9677 33.0764 0
285 4 38.9134 33.0764 1.94567
8479 2 36.9677 33.0764 0
8483 2 38.9134 33.0764 1.94567
8519 2 38.9134 35.022 0
311 4 40.8591 35.022 1.94567
8481 2 40.8591 33.0764 0
8520 2 40.8591 35.022 1.94567
287 4 44.7504 33.0764 0
8485 2 42.8047 33.0764 1.94567
288 4 48.6417 33.0764 0
290 4 46.6961 33.0764 1.94567
314 4 46.6961 35.022 0
8486 2 48.6417 33.0764 0
8523 2 46.6961 35.022 0
316 4 50.5874 35.022 0
8490 2 50.5874 33.0764 1.94567
318 4 52.5331 35.022 1.94567
320 4 54.4787 35.022 0
8488 2 52.5331 33.0764 0
8525 2 54.4787 35.022 0
293 4 58.3701 33.0764 1.94567
8492 2 56.4244 33.0764 0
8494 2 58.3701 33.0764 1.94567
8526 2 56.4244 35.022 1.94567
294 4 1.94567 36.9677 0
323 4 1.94567 38.9134 1.94567
8496 2 1.94567 36.9677 0
8528 2 0 38.9134 0
296 4 5.83701 36.9677 0
324 4 3.89134 38.9134 0
325 4 5.83701 38.9134 1.94567
8497 2 5.83701 36.9677 0
326 4 9.72835 38.9134 1.94567
8500 2 7.78268 36.9677 1.94567
8532 2 7.78268 38.9134 0
300 4 11.674 36.9677 1.94567
8503 2 11.674 36.9677 1.94567
298 4 13.6197 36.9677 0
328 4 13.6197 38.9134 1.94567
329 4 15.5654 38.9134 0
8501 2 13.6197 36.9677 0
8507 2 15.5654 36.9677 1.94567
304 4 19.4567 36.9677 1.94567
332 4 19.4567 38.9134 0
8505 2 17.511 36.9677 0
8536 2 17.511 38.9134 1.94567
8537 2 19.4567 38.9134 0
303 4 21.4024 36.9677 0
8509 2 21.4024 36.9677 0
8538 2 21.4024 38.9134 1.94567
305 4 25.2937 36.9677 0
334 4 23.348 38.9134 0
8511 2 25.2937 36.9677 0
8512 2 23.348 36.9677 1.94567
8540 2 23.348 38.9134 0
8542 2 25.2937 38.9134 1.94567
307 4 29.185 36.9677 0
338 4 29.185 38.9134 1.94567
8545 2 29.185 38.9134 1.94567
339 4 31.1307 38.9134 0
8516 2 31.1307 36.9677 1.94567
8546 2 31.1307 38.9134 0
309 4 33.0764 36.9677 0
341 4 33.0764 38.9134 1.94567
343 4 35.022 38.9134 0
8514 2 33.0764 36.9677 0
8518 2 35.022 36.9677 1.94567
8548 2 33.0764 38.9134 1.94567
312 4 38.9134 36.9677 1.94567
345 4 36.9677 38.9134 1.94567
346 4 38.9134 38.9134 0
8517 2 36.9677 36.9677 0
8521 2 38.9134 36.9677 1.94567
8550 2 36.9677 38.9134 1.94567
310 4 40.8591 36.9677 0
8552 2 40.8591 38.9134 1.94567
313 4 44.7504 36.9677 0
347 4 42.8047 38.9134 0
8522 2 44.7504 36.9677 0
315 4 48.6417 36.9677 0
348 4 46.6961 38.9134 0
349 4 48.6417 38.9134 1.94567
319 4 50.5874 36.9677 1.94567
8556 2 50.5874 38.9134 0
317 4 52.5331 36.9677 0
352 4 54.4787 38.9134 0
8524 2 52.5331 36.9677 0
8557 2 52.5331 38.9134 1.94567
354 4 56.4244 38.9134 1.94567
321 4 60.3157 36.9677 0
8527 2 60.3157 36.9677 0
322 4 1.94567 40.8591 0
8529 2 0 40.8591 1.94567
8530 2 5.83701 40.8591 0
8531 2 3.89134 40.8591 1.94567
327 4 7.78268 40.8591 1.94567
8533 2 9.72835 40.8591 0
331 4 15.5654 40.8591 1.94567
8534 2 13.6197 40.8591 0
330 4 17.511 40.8591 0
8535 2 17.511 40.8591 0
8539 2 19.4567 40.8591 1.94567
333 4 21.4024 40.8591 0
335 4 25.2937 40.8591 0
336 4 23.348 40.8591 1.94567
8541 2 25.2937 40.8591 0
8543 2 23.348 40.8591 1.94567
337 4 29.185 40.8591 0
8544 2 29.185 40.8591 0
342 4 31.1307 40.8591 1.94567
8549 2 31.1307 40.8591 1.94567
340 4 33.0764 40.8591 0
8547 2 33.0764 40.8591 0
8551 2 35.022 40.8591 1.94567
344 4 36.9677 40.8591 0
8553 2 38.9134 40.8591 1.94567
350 4 46.6961 40.8591 1.94567
8554 2 48.6417 40.8591 0
8555 2 46.6961 40.8591 1.94567
351 4 52.5331 40.8591 0
353 4 56.4244 40.8591 0
356 4 58.3701 40.8591 1.94567
8558 2 56.4244 40.8591 0
8560 2 58.3701 40.8591 1.94567
355 4 60.3157 40.8591 0
8559 2 60.3157 40.8591 0
357 4 0 42.8047 0
358 4 1.94567 44.7504 0
359 4 1.94567 42.8047 1.94567
360 4 0 44.7504 1.94567
8561 2 0 42.8047 0
8562 2 1.94567 42.8047 1.94567
361 4 3.89134 42.8047 0
362 4 3.89134 44.7504 1.94567
8563 2 3.89134 42.8047 0
8564 2 5.83701 42.8047 1.94567
363 4 7.78268 42.8047 0
364 4 9.72835 42.8047 1.94567
8565 2 7.78268 42.8047 0
8566 2 9.72835 42.8047 1.94567
8567 2 7.78268 44.7504 1.94567
365 4 11.674 42.8047 0
367 4 11.674 44.7504 1.94567
366 4 13.6197 42.8047 1.94567
8568 2 13.6197 44.7504 0
8569 2 13.6197 42.8047 1.94567
368 4 17.511 42.8047 1.94567
371 4 19.4567 44.7504 1.94567
8570 2 17.511 42.8047 1.94567
8572 2 19.4567 44.7504 1.94567
369 4 21.4024 44.7504 0
370 4 21.4024 42.8047 1.94567
8571 2 21.4024 44.7504 0
372 4 25.2937 42.8047 1.94567
373 4 23.348 44.7504 1.94567
8573 2 25.2937 42.8047 1.94567
8574 2 23.348 44.7504 1.94567
374 4 27.2394 42.8047 0
375 4 29.185 44.7504 0
376 4 29.185 42.8047 1.94567
377 4 27.2394 44.7504 1.94567
8575 2 27.2394 42.8047 0
8576 2 29.185 42.8047 1.94567
8577 2 27.2394 44.7504 1.94567
378 4 31.1307 42.8047 0
379 4 33.0764 42.8047 1.94567
380 4 35.022 42.8047 0
8578 2 35.022 42.8047 0
8579 2 35.022 44.7504 1.94567
381 4 36.9677 42.8047 1.94567
382 4 40.8591 44.7504 0
383 4 40.8591 42.8047 1.94567
8580 2 40.8591 44.7504 0
384 4 44.7504 44.7504 0
385 4 44.7504 42.8047 1.94567
8581 2 44.7504 42.8047 1.94567
386 4 46.6961 44.7504 1.94567
387 4 50.5874 42.8047 0
389 4 50.5874 44.7504 1.94567
388 4 52.5331 44.7504 0
390 4 54.4787 42.8047 0
8582 2 52.5331 42.8047 1.94567
8585 2 54.4787 44.7504 1.94567
391 4 56.4244 42.8047 1.94567
393 4 58.3701 44.7504 1.94567
8583 2 56.4244 44.7504 0
8584 2 56.4244 42.8047 1.94567
8587 2 58.3701 44.7504 1.94567
392 4 60.3157 44.7504 0
8586 2 60.3157 42.8047 1.94567
394 4 0 48.6417 1.94567
8588 2 1.94567 48.6417 0
8589 2 0 48.6417 1.94567
395 4 3.89134 46.6961 0
396 4 3.89134 48.6417 1.94567
8590 2 5.83701 48.6417 0
8591 2 5.83701 46.6961 1.94567
8592 2 3.89134 48.6417 1.94567
397 4 7.78268 46.6961 0
398 4 9.72835 48.6417 0
399 4 9.72835 46.6961 1.94567
400 4 7.78268 48.6417 1.94567
8593 2 7.78268 46.6961 0
8594 2 9.72835 48.6417 0
8595 2 9.72835 46.6961 1.94567
401 4 13.6197 46.6961 1.94567
402 4 15.5654 46.6961 0
404 4 15.5654 48.6417 1.94567
8596 2 13.6197 48.6417 0
403 4 17.511 48.6417 0
405 4 19.4567 48.6417 1.94567
8597 2 17.511 46.6961 1.94567
8598 2 19.4567 46.6961 0
8599 2 21.4024 46.6961 1.94567
406 4 23.348 46.6961 0
8600 2 23.348 46.6961 0
8601 2 25.2937 46.6961 1.94567
407 4 27.2394 46.6961 0
8602 2 27.2394 46.6961 0
8603 2 27.2394 48.6417 1.94567
8606 2 31.1307 48.6417 1.94567
409 4 35.022 48.6417 1.94567
8604 2 33.0764 48.6417 0
8605 2 33.0764 46.6961 1.94567
8607 2 35.022 46.6961 0
8609 2 35.022 48.6417 1.94567
408 4 36.9677 46.6961 1.94567
410 4 38.9134 46.6961 0
8608 2 36.9677 46.6961 1.94567
8610 2 38.9134 46.6961 0
8613 2 38.9134 48.6417 1.94567
411 4 40.8591 48.6417 0
412 4 40.8591 46.6961 1.94567
8611 2 40.8591 48.6417 0
8612 2 40.8591 46.6961 1.94567
413 4 42.8047 46.6961 0
414 4 44.7504 48.6417 0
415 4 44.7504 46.6961 1.94567
8614 2 42.8047 46.6961 0
8615 2 44.7504 46.6961 1.94567
416 4 48.6417 48.6417 0
417 4 46.6961 48.6417 1.94567
8616 2 46.6961 46.6961 0
8617 2 48.6417 46.6961 1.94567
418 4 50.5874 46.6961 0
8618 2 50.5874 46.6961 0
8620 2 50.5874 48.6417 1.94567
419 4 52.5331 46.6961 1.94567
420 4 54.4787 46.6961 0
8619 2 52.5331 48.6417 0
8621 2 54.4787 48.6417 1.94567
421 4 56.4244 48.6417 0
422 4 58.3701 46.6961 0
424 4 58.3701 48.6417 1.94567
8622 2 58.3701 46.6961 0
423 4 60.3157 48.6417 0
8623 2 0 50.5874 0
8624 2 1.94567 50.5874 1.94567
426 4 3.89134 50.5874 0
8625 2 5.83701 50.5874 1.94567
8627 2 7.78268 50.5874 0
8628 2 9.72835 50.5874 1.94567
429 4 11.674 50.5874 0
432 4 15.5654 50.5874 0
8631 2 13.6197 50.5874 1.94567
435 4 19.4567 50.5874 0
8635 2 21.4024 50.5874 1.94567
436 4 23.348 50.5874 0
438 4 25.2937 50.5874 1.94567
8636 2 23.348 50.5874 0
440 4 29.185 50.5874 1.94567
8638 2 29.185 50.5874 1.94567
441 4 31.1307 50.5874 0
443 4 36.9677 50.5874 1.94567
445 4 38.9134 50.5874 0
8641 2 36.9677 50.5874 1.94567
448 4 42.8047 50.5874 0
449 4 44.7504 50.5874 1.94567
8644 2 42.8047 50.5874 0
450 4 46.6961 50.5874 0
452 4 48.6417 50.5874 1.94567
8647 2 48.6417 50.5874 1.94567
454 4 50.5874 50.5874 0
8649 2 50.5874 50.5874 0
456 4 52.5331 50.5874 1.94567
8651 2 52.5331 50.5874 1.94567
8652 2 54.4787 50.5874 0
457 4 56.4244 50.5874 1.94567
459 4 58.3701 50.5874 0
8655 2 58.3701 50.5874 0
460 4 60.3157 50.5874 1.94567
8657 2 60.3157 50.5874 1.94567
425 4 0 52.5331 1.94567
8658 2 0 54.4787 0
8660 2 1.94567 54.4787 1.94567
427 4 3.89134 52.5331 1.94567
8626 2 3.89134 52.5331 1.94567
428 4 9.72835 52.5331 0
463 4 9.72835 54.4787 1.94567
8629 2 7.78268 52.5331 1.94567
8662 2 7.78268 54.4787 0
431 4 11.674 52.5331 1.94567
464 4 11.674 54.4787 0
8632 2 11.674 52.5331 1.94567
8665 2 11.674 54.4787 0
430 4 13.6197 52.5331 0
434 4 15.5654 52.5331 1.94567
465 4 15.5654 54.4787 0
8630 2 13.6197 52.5331 0
8634 2 15.5654 52.5331 1.94567
8667 2 13.6197 54.4787 1.94567
8668 2 15.5654 54.4787 0
433 4 17.511 52.5331 0
467 4 19.4567 54.4787 0
8633 2 17.511 52.5331 0
8669 2 19.4567 54.4787 0
468 4 21.4024 54.4787 1.94567
437 4 25.2937 52.5331 0
470 4 25.2937 54.4787 1.94567
8637 2 25.2937 52.5331 0
8671 2 23.348 54.4787 0
439 4 29.185 52.5331 0
471 4 27.2394 54.4787 0
473 4 29.185 54.4787 1.94567
8639 2 27.2394 52.5331 1.94567
8673 2 29.185 54.4787 1.94567
8640 2 31.1307 52.5331 1.94567
8674 2 31.1307 54.4787 0
444 4 35.022 52.5331 1.94567
475 4 33.0764 54.4787 1.94567
8676 2 35.022 54.4787 0
442 4 36.9677 52.5331 0
447 4 38.9134 52.5331 1.94567
477 4 36.9677 54.4787 1.94567
478 4 38.9134 54.4787 0
8643 2 38.9134 52.5331 1.94567
8677 2 36.9677 54.4787 1.94567
446 4 40.8591 52.5331 0
479 4 40.8591 54.4787 1.94567
8642 2 40.8591 52.5331 0
8680 2 40.8591 54.4787 1.94567
481 4 44.7504 54.4787 1.94567
8645 2 44.7504 52.5331 0
8646 2 42.8047 52.5331 1.94567
451 4 48.6417 52.5331 0
453 4 46.6961 52.5331 1.94567
483 4 46.6961 54.4787 0
484 4 48.6417 54.4787 1.94567
8648 2 46.6961 52.5331 1.94567
8684 2 50.5874 54.4787 0
455 4 52.5331 52.5331 0
458 4 54.4787 52.5331 1.94567
8650 2 52.5331 52.5331 0
8654 2 54.4787 52.5331 1.94567
8687 2 54.4787 54.4787 0
488 4 56.4244 54.4787 1.94567
489 4 58.3701 54.4787 0
8653 2 56.4244 52.5331 0
491 4 60.3157 54.4787 1.94567
8656 2 60.3157 52.5331 0
8659 2 1.94567 56.4244 0
8689 2 0 58.3701 0
461 4 5.83701 56.4244 0
493 4 3.89134 58.3701 0
8661 2 3.89134 56.4244 1.94567
8692 2 3.89134 58.3701 0
8693 2 5.83701 58.3701 1.94567
462 4 9.72835 56.4244 0
496 4 7.78268 58.3701 0
497 4 9.72835 58.3701 1.94567
8663 2 9.72835 56.4244 0
8664 2 7.78268 56.4244 1.94567
8697 2 11.674 58.3701 0
466 4 15.5654 56.4244 1.94567
8666 2 13.6197 56.4244 0
8698 2 13.6197 58.3701 1.94567
8699 2 15.5654 58.3701 0
469 4 19.4567 56.4244 1.94567
8701 2 17.511 58.3701 1.94567
8703 2 19.4567 58.3701 0
500 4 21.4024 58.3701 1.94567
8670 2 21.4024 56.4244 0
502 4 23.348 58.3701 0
8672 2 23.348 56.4244 1.94567
8705 2 25.2937 58.3701 1.94567
472 4 29.185 56.4244 0
474 4 27.2394 56.4244 1.94567
503 4 27.2394 58.3701 0
505 4 29.185 58.3701 1.94567
8707 2 27.2394 58.3701 0
8708 2 29.185 58.3701 1.94567
507 4 33.0764 58.3701 1.94567
509 4 35.022 58.3701 0
8675 2 33.0764 56.4244 0
8678 2 35.022 56.4244 1.94567
8712 2 35.022 58.3701 0
476 4 36.9677 56.4244 0
511 4 36.9677 58.3701 1.94567
512 4 38.9134 58.3701 0
8681 2 38.9134 56.4244 1.94567
8713 2 36.9677 58.3701 1.94567
8715 2 38.9134 58.3701 0
8679 2 40.8591 56.4244 0
8717 2 40.8591 58.3701 1.94567
480 4 44.7504 56.4244 0
482 4 42.8047 56.4244 1.94567
513 4 42.8047 58.3701 0
514 4 44.7504 58.3701 1.94567
8682 2 42.8047 56.4244 1.94567
8719 2 42.8047 58.3701 0
515 4 48.6417 58.3701 1.94567
8683 2 46.6961 56.4244 1.94567
8721 2 48.6417 58.3701 1.94567
486 4 50.5874 56.4244 1.94567
517 4 50.5874 58.3701 0
8686 2 50.5874 56.4244 1.94567
8722 2 50.5874 58.3701 0
485 4 52.5331 56.4244 0
518 4 52.5331 58.3701 1.94567
8685 2 52.5331 56.4244 0
8724 2 52.5331 58.3701 1.94567
487 4 56.4244 56.4244 0
8688 2 56.4244 56.4244 0
8727 2 56.4244 58.3701 1.94567
490 4 60.3157 56.4244 0
521 4 60.3157 58.3701 1.94567
8729 2 60.3157 58.3701 1.94567
492 4 1.94567 60.3157 0
8690 2 1.94567 60.3157 0
8691 2 0 60.3157 1.94567
494 4 5.83701 60.3157 0
495 4 3.89134 60.3157 1.94567
8694 2 3.89134 60.3157 1.94567
8695 2 9.72835 60.3157 0
8696 2 7.78268 60.3157 1.94567
498 4 13.6197 60.3157 0
8702 2 15.5654 60.3157 1.94567
501 4 19.4567 60.3157 1.94567
8700 2 17.511 60.3157 0
499 4 21.4024 60.3157 0
8704 2 25.2937 60.3157 0
8706 2 23.348 60.3157 1.94567
504 4 29.185 60.3157 0
8709 2 27.2394 60.3157 1.94567
508 4 31.1307 60.3157 1.94567
8711 2 31.1307 60.3157 1.94567
506 4 33.0764 60.3157 0
8710 2 33.0764 60.3157 0
8714 2 35.022 60.3157 1.94567
510 4 36.9677 60.3157 0
8718 2 38.9134 60.3157 1.94567
8716 2 40.8591 60.3157 0
8720 2 44.7504 60.3157 0
516 4 46.6961 60.3157 1.94567
519 4 50.5874 60.3157 1.94567
8725 2 50.5874 60.3157 1.94567
8723 2 52.5331 60.3157 0
8726 2 56.4244 60.3157 0
520 4 60.3157 60.3157 0
8728 2 60.3157 60.3157 0
8730 2 1.94567 1.94567 3.89134
8731 2 0 1.94567 5.83701
522 4 5.83701 0 5.83701
523 4 3.89134 1.94567 5.83701
8732 2 5.83701 1.94567 3.89134
8733 2 5.83701 0 5.83701
8734 2 3.89134 1.94567 5.83701
524 4 9.72835 0 5.83701
8735 2 7.78268 0 3.89134
8736 2 9.72835 0 5.83701
8737 2 7.78268 1.94567 5.83701
527 4 11.674 1.94567 5.83701
8739 2 11.674 1.94567 5.83701
525 4 13.6197 1.94567 3.89134
526 4 13.6197 0 5.83701
528 4 15.5654 0 3.89134
8738 2 13.6197 0 5.83701
8740 2 15.5654 0 3.89134
8741 2 15.5654 1.94567 5.83701
529 4 17.511 0 5.83701
531 4 19.4567 1.94567 5.83701
8742 2 19.4567 1.94567 5.83701
530 4 21.4024 0 5.83701
532 4 25.2937 1.94567 3.89134
533 4 25.2937 0 5.83701
8743 2 23.348 0 3.89134
8744 2 25.2937 1.94567 3.89134
8745 2 23.348 1.94567 5.83701
534 4 27.2394 0 3.89134
535 4 27.2394 1.94567 5.83701
8746 2 27.2394 0 3.89134
8747 2 29.185 0 5.83701
536 4 31.1307 0 3.89134
539 4 31.1307 1.94567 5.83701
8748 2 31.1307 0 3.89134
8749 2 31.1307 1.94567 5.83701
537 4 33.0764 1.94567 3.89134
538 4 33.0764 0 5.83701
8752 2 35.022 1.94567 5.83701
540 4 38.9134 0 3.89134
8750 2 36.9677 1.94567 3.89134
8751 2 36.9677 0 5.83701
8753 2 38.9134 1.94567 5.83701
541 4 42.8047 0 3.89134
542 4 44.7504 1.94567 3.89134
8754 2 44.7504 1.94567 3.89134
8755 2 44.7504 0 5.83701
543 4 48.6417 1.94567 3.89134
544 4 48.6417 0 5.83701
545 4 46.6961 1.94567 5.83701
8756 2 46.6961 1.94567 5.83701
546 4 50.5874 0 3.89134
549 4 50.5874 1.94567 5.83701
8757 2 50.5874 0 3.89134
547 4 52.5331 1.94567 3.89134
548 4 52.5331 0 5.83701
550 4 54.4787 1.94567 5.83701