ITEM: TIMESTEP
0
ITEM: NUMBER OF ATOMS
16384
ITEM: BOX BOUNDS pp pp pp
0.0000000000000000e+00 6.0021258673632197e+01
0.0000000000000000e+00 6.0021258673632197e+01
0.0000000000000000e+00 6.0021258673632197e+01
ITEM: ATOMS id type x y z
1 4 0 0 0
2 4 1.89055 1.89055 0
8193 2 0 0 0
8194 2 1.89055 1.89055 0
8195 2 1.89055 0 1.89055
8196 2 0 1.89055 1.89055
3 4 5.67165 1.89055 0
4 4 5.67165 0 1.89055
5 4 3.7811 1.89055 1.89055
8197 2 5.67165 0 1.89055
6 4 9.45276 0 1.89055
7 4 7.5622 1.89055 1.89055
8198 2 7.5622 0 0
8199 2 9.45276 1.89055 0
8 4 13.2339 1.89055 0
9 4 13.2339 0 1.89055
10 4 11.3433 1.89055 1.89055
8200 2 13.2339 1.89055 0
11 4 15.1244 0 0
12 4 15.1244 1.89055 1.89055
8201 2 17.015 0 1.89055
8203 2 18.9055 1.89055 1.89055
13 4 22.6866 0 0
8202 2 20.7961 0 1.89055
8204 2 22.6866 0 0
8206 2 22.6866 1.89055 1.89055
14 4 26.4677 0 0
16 4 26.4677 1.89055 1.89055
8205 2 24.5772 1.89055 0
8207 2 26.4677 0 0
15 4 28.3583 0 1.89055
8208 2 28.3583 0 1.89055
17 4 30.2488 0 0
18 4 32.1394 1.89055 0
19 4 32.1394 0 1.89055
8209 2 32.1394 1.89055 0
20 4 35.9205 1.89055 0
21 4 35.9205 0 1.89055
8210 2 35.9205 1.89055 0
8211 2 35.9205 0 1.89055
8212 2 34.0299 1.89055 1.89055
22 4 39.7016 1.89055 0
8213 2 37.811 0 0
8214 2 39.7016 0 1.89055
8215 2 37.811 1.89055 1.89055
23 4 41.5921 0 0
8217 2 41.5921 1.89055 1.89055
24 4 43.4827 1.89055 0
8216 2 43.4827 1.89055 0
8218 2 45.3732 0 0
8220 2 45.3732 1.89055 1.89055
25 4 47.2638 1.89055 0
8219 2 47.2638 1.89055 0
8221 2 49.1543 0 0
8223 2 49.1543 1.89055 1.89055
26 4 51.0449 1.89055 0
27 4 52.9354 0 0
29 4 52.9354 1.89055 1.89055
8222 2 51.0449 0 1.89055
28 4 54.826 0 1.89055
8224 2 54.826 0 1.89055
30 4 56.7165 0 0
31 4 58.6071 1.89055 0
8225 2 56.7165 0 0
32 4 1.89055 3.7811 1.89055
33 4 0 5.67165 1.89055
8226 2 0 3.7811 0
8227 2 1.89055 5.67165 0
34 4 5.67165 3.7811 1.89055
35 4 3.7811 5.67165 1.89055
8228 2 5.67165 3.7811 1.89055
36 4 7.5622 3.7811 0
37 4 9.45276 5.67165 0
38 4 9.45276 3.7811 1.89055
39 4 7.5622 5.67165 1.89055
8229 2 7.5622 3.7811 0
8230 2 9.45276 5.67165 0
40 4 13.2339 5.67165 0
41 4 13.2339 3.7811 1.89055
42 4 11.3433 5.67165 1.89055
43 4 15.1244 3.7811 0
45 4 15.1244 5.67165 1.89055
8231 2 15.1244 3.7811 0
44 4 17.015 5.67165 0
47 4 18.9055 5.67165 1.89055
8232 2 17.015 3.7811 1.89055
46 4 20.7961 3.7811 1.89055
48 4 22.6866 3.7811 0
51 4 22.6866 5.67165 1.89055
8233 2 20.7961 5.67165 0
49 4 24.5772 5.67165 0
50 4 24.5772 3.7811 1.89055
52 4 26.4677 5.67165 1.89055
8234 2 24.5772 5.67165 0
8235 2 24.5772 3.7811 1.89055
8236 2 26.4677 3.7811 0
8237 2 26.4677 5.67165 1.89055
53 4 30.2488 3.7811 0
54 4 32.1394 5.67165 0
55 4 32.1394 3.7811 1.89055
56 4 30.2488 5.67165 1.89055
8238 2 30.2488 3.7811 0
8239 2 32.1394 5.67165 0
57 4 34.0299 3.7811 0
58 4 35.9205 5.67165 0
59 4 34.0299 5.67165 1.89055
8240 2 35.9205 3.7811 1.89055
8241 2 34.0299 5.67165 1.89055
60 4 39.7016 3.7811 1.89055
61 4 37.811 5.67165 1.89055
8242 2 39.7016 3.7811 1.89055
8243 2 41.5921 3.7811 0
62 4 43.4827 3.7811 1.89055
63 4 45.3732 3.7811 0
8244 2 43.4827 5.67165 0
8245 2 45.3732 3.7811 0
64 4 47.2638 5.67165 0
65 4 47.2638 3.7811 1.89055
8246 2 47.2638 3.7811 1.89055
8247 2 49.1543 3.7811 0
8250 2 49.1543 5.67165 1.89055
66 4 51.0449 5.67165 0
67 4 51.0449 3.7811 1.89055
68 4 52.9354 3.7811 0
8248 2 51.0449 5.67165 0
8249 2 51.0449 3.7811 1.89055
8251 2 52.9354 3.7811 0
69 4 54.826 5.67165 0
70 4 56.7165 3.7811 0
71 4 58.6071 5.67165 0
72 4 56.7165 5.67165 1.89055
8252 2 56.7165 3.7811 0
8253 2 58.6071 5.67165 0
8254 2 58.6071 3.7811 1.89055
8255 2 56.7165 5.67165 1.89055
73 4 1.89055 7.5622 1.89055
8256 2 1.89055 7.5622 1.89055
8257 2 0 9.45276 1.89055
74 4 5.67165 7.5622 1.89055
75 4 3.7811 9.45276 1.89055
8258 2 3.7811 7.5622 0
8259 2 5.67165 9.45276 0
8260 2 7.5622 7.5622 0
8261 2 9.45276 7.5622 1.89055
8262 2 7.5622 9.45276 1.89055
76 4 11.3433 7.5622 0
77 4 13.2339 7.5622 1.89055
8263 2 11.3433 7.5622 0
8264 2 11.3433 9.45276 1.89055
8265 2 15.1244 7.5622 0
78 4 17.015 7.5622 1.89055
8266 2 17.015 9.45276 0
8267 2 17.015 7.5622 1.89055
8268 2 18.9055 7.5622 0
79 4 20.7961 9.45276 0
80 4 20.7961 7.5622 1.89055
81 4 22.6866 7.5622 0
8269 2 20.7961 9.45276 0
8270 2 20.7961 7.5622 1.89055
8272 2 22.6866 9.45276 1.89055
82 4 24.5772 7.5622 1.89055
83 4 26.4677 9.45276 1.89055
8271 2 24.5772 9.45276 0
8273 2 26.4677 9.45276 1.89055
84 4 32.1394 7.5622 1.89055
8274 2 30.2488 7.5622 0
8275 2 32.1394 9.45276 0
8276 2 30.2488 9.45276 1.89055
85 4 35.9205 9.45276 0
86 4 34.0299 9.45276 1.89055
8277 2 34.0299 7.5622 0
8278 2 35.9205 9.45276 0
8279 2 35.9205 7.5622 1.89055
8280 2 34.0299 9.45276 1.89055
87 4 39.7016 7.5622 1.89055
88 4 37.811 9.45276 1.89055
8281 2 37.811 7.5622 0
8282 2 39.7016 9.45276 0
8283 2 39.7016 7.5622 1.89055
90 4 41.5921 9.45276 1.89055
89 4 43.4827 7.5622 1.89055
92 4 45.3732 9.45276 1.89055
8284 2 43.4827 9.45276 0
8285 2 45.3732 7.5622 0
91 4 47.2638 9.45276 0
93 4 49.1543 9.45276 1.89055
8288 2 49.1543 9.45276 1.89055
94 4 52.9354 7.5622 0
8286 2 51.0449 9.45276 0
8287 2 51.0449 7.5622 1.89055
8289 2 52.9354 7.5622 0
8291 2 52.9354 9.45276 1.89055
8290 2 54.826 9.45276 0
95 4 56.7165 7.5622 0
96 4 58.6071 9.45276 0
97 4 56.7165 9.45276 1.89055
8292 2 56.7165 7.5622 0
8293 2 58.6071 9.45276 0
8294 2 56.7165 9.45276 1.89055
98 4 1.89055 13.2339 0
99 4 1.89055 11.3433 1.89055
100 4 0 13.2339 1.89055
8295 2 0 11.3433 0
101 4 3.7811 11.3433 0
102 4 5.67165 13.2339 0
103 4 5.67165 11.3433 1.89055
8296 2 3.7811 11.3433 0
8297 2 5.67165 13.2339 0
8298 2 5.67165 11.3433 1.89055
104 4 7.5622 11.3433 0
105 4 9.45276 11.3433 1.89055
8299 2 7.5622 11.3433 0
8300 2 9.45276 13.2339 0
106 4 13.2339 13.2339 0
107 4 13.2339 11.3433 1.89055
8301 2 11.3433 11.3433 0
8302 2 13.2339 13.2339 0
8303 2 11.3433 13.2339 1.89055
108 4 18.9055 11.3433 0
8304 2 17.015 13.2339 0
8305 2 17.015 11.3433 1.89055
109 4 20.7961 13.2339 0
110 4 20.7961 11.3433 1.89055
111 4 22.6866 11.3433 0
113 4 22.6866 13.2339 1.89055
8306 2 20.7961 13.2339 0
8308 2 22.6866 13.2339 1.89055
112 4 24.5772 11.3433 1.89055
114 4 26.4677 11.3433 0
117 4 26.4677 13.2339 1.89055
8307 2 24.5772 13.2339 0
8309 2 26.4677 11.3433 0
8311 2 26.4677 13.2339 1.89055
115 4 28.3583 13.2339 0
116 4 28.3583 11.3433 1.89055
8310 2 28.3583 11.3433 1.89055
118 4 30.2488 13.2339 1.89055
8312 2 30.2488 11.3433 0
8313 2 32.1394 13.2339 0
119 4 34.0299 11.3433 0
120 4 35.9205 13.2339 0
121 4 35.9205 11.3433 1.89055
122 4 34.0299 13.2339 1.89055
8314 2 34.0299 11.3433 0
8315 2 35.9205 11.3433 1.89055
123 4 37.811 11.3433 0
124 4 39.7016 11.3433 1.89055
8316 2 37.811 11.3433 0
8317 2 41.5921 11.3433 0
8318 2 41.5921 13.2339 1.89055
127 4 45.3732 13.2339 1.89055
125 4 47.2638 13.2339 0
126 4 47.2638 11.3433 1.89055
128 4 49.1543 11.3433 0
8320 2 49.1543 13.2339 1.89055
129 4 51.0449 11.3433 1.89055
130 4 52.9354 11.3433 0
8319 2 51.0449 11.3433 1.89055
8321 2 52.9354 11.3433 0
8322 2 52.9354 13.2339 1.89055
131 4 58.6071 13.2339 0
8323 2 56.7165 11.3433 0
8324 2 58.6071 13.2339 0
8325 2 56.7165 13.2339 1.89055
8327 2 1.89055 15.1244 1.89055
8329 2 3.7811 15.1244 0
8331 2 5.67165 15.1244 1.89055
134 4 9.45276 15.1244 1.89055
8333 2 7.5622 15.1244 0
137 4 18.9055 15.1244 0
8338 2 17.015 15.1244 1.89055
8340 2 18.9055 15.1244 0
139 4 22.6866 15.1244 0
8341 2 20.7961 15.1244 1.89055
8344 2 24.5772 15.1244 1.89055
143 4 32.1394 15.1244 1.89055
146 4 35.9205 15.1244 1.89055
8349 2 35.9205 15.1244 1.89055
148 4 37.811 15.1244 0
8353 2 41.5921 15.1244 0
152 4 45.3732 15.1244 0
8354 2 43.4827 15.1244 1.89055
8356 2 45.3732 15.1244 0
155 4 49.1543 15.1244 0
8357 2 47.2638 15.1244 1.89055
156 4 51.0449 15.1244 1.89055
158 4 52.9354 15.1244 0
8359 2 51.0449 15.1244 1.89055
8362 2 56.7165 15.1244 0
8364 2 58.6071 15.1244 1.89055
132 4 1.89055 17.015 0
160 4 0 18.9055 0
162 4 1.89055 18.9055 1.89055
8326 2 1.89055 17.015 0
8328 2 0 17.015 1.89055
8366 2 0 18.9055 0
8368 2 1.89055 18.9055 1.89055
133 4 5.67165 17.015 0
164 4 3.7811 18.9055 0
165 4 5.67165 18.9055 1.89055
8330 2 5.67165 17.015 0
8332 2 3.7811 17.015 1.89055
8370 2 3.7811 18.9055 0
8372 2 5.67165 18.9055 1.89055
167 4 9.45276 18.9055 1.89055
8334 2 9.45276 17.015 0
8335 2 7.5622 17.015 1.89055
8374 2 7.5622 18.9055 0
135 4 11.3433 17.015 1.89055
169 4 13.2339 18.9055 1.89055
8336 2 13.2339 17.015 0
8377 2 13.2339 18.9055 1.89055
136 4 15.1244 17.015 1.89055
171 4 15.1244 18.9055 0
8339 2 15.1244 17.015 1.89055
8378 2 15.1244 18.9055 0
173 4 17.015 18.9055 1.89055
175 4 18.9055 18.9055 0
8337 2 17.015 17.015 0
8342 2 18.9055 17.015 1.89055
8380 2 17.015 18.9055 1.89055
138 4 20.7961 17.015 0
177 4 22.6866 18.9055 0
8345 2 22.6866 17.015 1.89055
8383 2 20.7961 18.9055 1.89055
140 4 24.5772 17.015 0
142 4 26.4677 17.015 1.89055
8343 2 24.5772 17.015 0
8346 2 26.4677 17.015 1.89055
8385 2 24.5772 18.9055 1.89055
8386 2 26.4677 18.9055 0
141 4 28.3583 17.015 0
144 4 30.2488 17.015 1.89055
8347 2 32.1394 17.015 0
8348 2 30.2488 17.015 1.89055
145 4 35.9205 17.015 0
147 4 34.0299 17.015 1.89055
180 4 34.0299 18.9055 0
8350 2 34.0299 17.015 1.89055
8390 2 35.9205 18.9055 1.89055
149 4 39.7016 17.015 0
150 4 37.811 17.015 1.89055
183 4 37.811 18.9055 0
8351 2 39.7016 17.015 0
8352 2 37.811 17.015 1.89055
8391 2 37.811 18.9055 0
8393 2 39.7016 18.9055 1.89055
184 4 41.5921 18.9055 0
8355 2 41.5921 17.015 1.89055
151 4 43.4827 17.015 0
154 4 45.3732 17.015 1.89055
8358 2 45.3732 17.015 1.89055
8395 2 45.3732 18.9055 0
153 4 47.2638 17.015 0
157 4 49.1543 17.015 1.89055
186 4 47.2638 18.9055 1.89055
8360 2 49.1543 17.015 1.89055
8396 2 47.2638 18.9055 1.89055
8398 2 49.1543 18.9055 0
188 4 51.0449 18.9055 1.89055
8399 2 51.0449 18.9055 1.89055
8401 2 52.9354 18.9055 0
8361 2 54.826 17.015 0
159 4 56.7165 17.015 1.89055
192 4 58.6071 18.9055 1.89055
8363 2 58.6071 17.015 0
8365 2 56.7165 17.015 1.89055
161 4 1.89055 20.7961 0
163 4 0 20.7961 1.89055
194 4 1.89055 22.6866 1.89055
8367 2 1.89055 20.7961 0
8369 2 0 20.7961 1.89055
196 4 3.7811 22.6866 0
8371 2 5.67165 20.7961 0
8373 2 3.7811 20.7961 1.89055
8404 2 3.7811 22.6866 0
166 4 9.45276 20.7961 0
168 4 7.5622 20.7961 1.89055
198 4 7.5622 22.6866 0
200 4 9.45276 22.6866 1.89055
8375 2 9.45276 20.7961 0
8406 2 7.5622 22.6866 0
170 4 11.3433 20.7961 1.89055
202 4 11.3433 22.6866 0
204 4 13.2339 22.6866 1.89055
8376 2 13.2339 20.7961 0
8408 2 11.3433 22.6866 0
174 4 15.1244 20.7961 1.89055
8381 2 15.1244 20.7961 1.89055
8410 2 15.1244 22.6866 0
172 4 17.015 20.7961 0
176 4 18.9055 20.7961 1.89055
206 4 17.015 22.6866 1.89055
8379 2 17.015 20.7961 0
8413 2 18.9055 22.6866 0
209 4 22.6866 22.6866 0
8382 2 20.7961 20.7961 0
8414 2 20.7961 22.6866 1.89055
178 4 24.5772 20.7961 0
8384 2 24.5772 20.7961 0
8416 2 24.5772 22.6866 1.89055
8417 2 26.4677 22.6866 0
179 4 28.3583 20.7961 0
8387 2 28.3583 20.7961 0
8418 2 28.3583 22.6866 1.89055
212 4 30.2488 22.6866 0
214 4 32.1394 22.6866 1.89055
8388 2 30.2488 20.7961 1.89055
8419 2 30.2488 22.6866 0
8420 2 32.1394 22.6866 1.89055
181 4 35.9205 20.7961 0
182 4 34.0299 20.7961 1.89055
217 4 35.9205 22.6866 1.89055
8389 2 35.9205 20.7961 0
8421 2 34.0299 22.6866 0
8423 2 35.9205 22.6866 1.89055
218 4 37.811 22.6866 0
219 4 39.7016 22.6866 1.89055
8392 2 39.7016 20.7961 0
8424 2 37.811 22.6866 0
185 4 41.5921 20.7961 1.89055
220 4 41.5921 22.6866 0
8394 2 41.5921 20.7961 1.89055
8397 2 45.3732 20.7961 1.89055
189 4 49.1543 20.7961 1.89055
223 4 47.2638 22.6866 1.89055
224 4 49.1543 22.6866 0
8400 2 49.1543 20.7961 1.89055
187 4 51.0449 20.7961 0
226 4 52.9354 22.6866 0
8429 2 51.0449 22.6866 1.89055
190 4 54.826 20.7961 0
8402 2 54.826 20.7961 0
191 4 58.6071 20.7961 0
8403 2 58.6071 20.7961 0
193 4 1.89055 24.5772 0
195 4 0 24.5772 1.89055
230 4 0 26.4677 0
232 4 1.89055 26.4677 1.89055
8431 2 0 26.4677 0
8433 2 1.89055 26.4677 1.89055
197 4 5.67165 24.5772 0
235 4 5.67165 26.4677 1.89055
8405 2 3.7811 24.5772 1.89055
8436 2 5.67165 26.4677 1.89055
199 4 9.45276 24.5772 0
201 4 7.5622 24.5772 1.89055
237 4 9.45276 26.4677 1.89055
8407 2 9.45276 24.5772 0
8437 2 7.5622 26.4677 0
8439 2 9.45276 26.4677 1.89055
203 4 13.2339 24.5772 0
239 4 11.3433 26.4677 0
240 4 13.2339 26.4677 1.89055
8409 2 11.3433 24.5772 1.89055
8412 2 15.1244 24.5772 1.89055
205 4 17.015 24.5772 0
208 4 18.9055 24.5772 1.89055
243 4 17.015 26.4677 1.89055
8411 2 17.015 24.5772 0
8441 2 17.015 26.4677 1.89055
207 4 20.7961 24.5772 0
245 4 22.6866 26.4677 0
8443 2 20.7961 26.4677 1.89055
210 4 24.5772 24.5772 0
246 4 24.5772 26.4677 1.89055
8415 2 24.5772 24.5772 0
8445 2 24.5772 26.4677 1.89055
8446 2 26.4677 26.4677 0
211 4 28.3583 24.5772 0
248 4 28.3583 26.4677 1.89055
213 4 32.1394 24.5772 0
215 4 30.2488 24.5772 1.89055
8447 2 30.2488 26.4677 0
216 4 35.9205 24.5772 0
251 4 34.0299 26.4677 0
8422 2 35.9205 24.5772 0
8449 2 34.0299 26.4677 0
8450 2 35.9205 26.4677 1.89055
252 4 37.811 26.4677 0
253 4 39.7016 26.4677 1.89055
8425 2 39.7016 24.5772 0
8451 2 37.811 26.4677 0
8453 2 39.7016 26.4677 1.89055
8427 2 41.5921 24.5772 1.89055
8454 2 41.5921 26.4677 0
221 4 43.4827 24.5772 0
8426 2 43.4827 24.5772 0
8428 2 45.3732 24.5772 1.89055
8456 2 45.3732 26.4677 0
222 4 47.2638 24.5772 0
225 4 49.1543 24.5772 1.89055
256 4 47.2638 26.4677 1.89055
228 4 52.9354 24.5772 1.89055
227 4 54.826 24.5772 0
8430 2 54.826 24.5772 0
229 4 58.6071 24.5772 0
259 4 58.6071 26.4677 1.89055
231 4 1.89055 28.3583 0
233 4 0 28.3583 1.89055
8432 2 1.89055 28.3583 0
8434 2 0 28.3583 1.89055
234 4 5.67165 28.3583 0
236 4 3.7811 28.3583 1.89055
8435 2 5.67165 28.3583 0
238 4 7.5622 28.3583 1.89055
8438 2 9.45276 28.3583 0
8440 2 7.5622 28.3583 1.89055
241 4 11.3433 28.3583 1.89055
244 4 15.1244 28.3583 1.89055
242 4 17.015 28.3583 0
8442 2 20.7961 28.3583 0
249 4 26.4677 28.3583 1.89055
8444 2 24.5772 28.3583 0
247 4 28.3583 28.3583 0
250 4 30.2488 28.3583 1.89055
8448 2 32.1394 28.3583 0
8452 2 39.7016 28.3583 0
8455 2 41.5921 28.3583 1.89055
254 4 43.4827 28.3583 0
8458 2 45.3732 28.3583 1.89055
255 4 47.2638 28.3583 0
257 4 49.1543 28.3583 1.89055
8457 2 47.2638 28.3583 0
8459 2 51.0449 28.3583 0
8461 2 52.9354 28.3583 1.89055
258 4 54.826 28.3583 0
8460 2 54.826 28.3583 0
8462 2 58.6071 28.3583 0
260 4 0 30.2488 0
261 4 1.89055 32.1394 0
262 4 0 32.1394 1.89055
8463 2 1.89055 32.1394 0
8464 2 1.89055 30.2488 1.89055
8465 2 0 32.1394 1.89055
263 4 3.7811 30.2488 0
264 4 5.67165 32.1394 0
265 4 5.67165 30.2488 1.89055
266 4 3.7811 32.1394 1.89055
8466 2 3.7811 30.2488 0
267 4 7.5622 30.2488 0
268 4 9.45276 30.2488 1.89055
8467 2 7.5622 30.2488 0
8468 2 9.45276 32.1394 0
8469 2 9.45276 30.2488 1.89055
269 4 11.3433 30.2488 0
270 4 13.2339 32.1394 0
271 4 11.3433 32.1394 1.89055
8470 2 11.3433 30.2488 0
272 4 15.1244 32.1394 1.89055
8472 2 15.1244 32.1394 1.89055
275 4 18.9055 32.1394 1.89055
8471 2 17.015 30.2488 1.89055
273 4 20.7961 32.1394 0
274 4 20.7961 30.2488 1.89055
277 4 22.6866 32.1394 1.89055
8473 2 20.7961 32.1394 0
8474 2 22.6866 30.2488 0
276 4 24.5772 30.2488 1.89055
278 4 26.4677 30.2488 0
279 4 26.4677 32.1394 1.89055
280 4 30.2488 30.2488 0
281 4 32.1394 30.2488 1.89055
8475 2 30.2488 30.2488 0
8476 2 32.1394 32.1394 0
8477 2 32.1394 30.2488 1.89055
282 4 34.0299 30.2488 0
283 4 35.9205 32.1394 0
284 4 35.9205 30.2488 1.89055
8478 2 34.0299 30.2488 0
8479 2 35.9205 32.1394 0
285 4 37.811 32.1394 1.89055
8480 2 37.811 30.2488 0
8481 2 39.7016 32.1394 0
8482 2 39.7016 30.2488 1.89055
8483 2 37.811 32.1394 1.89055
286 4 41.5921 30.2488 0
8485 2 41.5921 32.1394 1.89055
287 4 43.4827 32.1394 0
290 4 45.3732 32.1394 1.89055
8484 2 43.4827 30.2488 1.89055
288 4 47.2638 32.1394 0
289 4 47.2638 30.2488 1.89055
8486 2 47.2638 32.1394 0
8487 2 47.2638 30.2488 1.89055
8490 2 49.1543 32.1394 1.89055
8488 2 51.0449 32.1394 0
8489 2 51.0449 30.2488 1.89055
8491 2 52.9354 30.2488 0
291 4 54.826 30.2488 1.89055
8492 2 54.826 32.1394 0
292 4 58.6071 30.2488 1.89055
293 4 56.7165 32.1394 1.89055
8493 2 58.6071 30.2488 1.89055
8494 2 56.7165 32.1394 1.89055
294 4 1.89055 35.9205 0
8495 2 0 34.0299 0
8496 2 1.89055 35.9205 0
295 4 3.7811 34.0299 0
296 4 5.67165 35.9205 0
8497 2 5.67165 35.9205 0
8498 2 5.67165 34.0299 1.89055
297 4 9.45276 34.0299 1.89055
8499 2 7.5622 34.0299 0
8500 2 7.5622 35.9205 1.89055
298 4 13.2339 35.9205 0
299 4 13.2339 34.0299 1.89055
300 4 11.3433 35.9205 1.89055
8501 2 13.2339 35.9205 0
8502 2 13.2339 34.0299 1.89055
8503 2 11.3433 35.9205 1.89055
301 4 15.1244 34.0299 0
8504 2 15.1244 34.0299 0
8507 2 15.1244 35.9205 1.89055
302 4 17.015 34.0299 1.89055
304 4 18.9055 35.9205 1.89055
8505 2 17.015 35.9205 0
8506 2 17.015 34.0299 1.89055
8508 2 18.9055 34.0299 0
303 4 20.7961 35.9205 0
8509 2 20.7961 35.9205 0
8510 2 22.6866 34.0299 0
8512 2 22.6866 35.9205 1.89055
305 4 24.5772 35.9205 0
306 4 24.5772 34.0299 1.89055
8511 2 24.5772 35.9205 0
8513 2 26.4677 34.0299 0
307 4 28.3583 35.9205 0
308 4 30.2488 34.0299 0
309 4 32.1394 35.9205 0
8514 2 32.1394 35.9205 0
8515 2 32.1394 34.0299 1.89055
8516 2 30.2488 35.9205 1.89055
8517 2 35.9205 35.9205 0
8518 2 34.0299 35.9205 1.89055
310 4 39.7016 35.9205 0
311 4 39.7016 34.0299 1.89055
312 4 37.811 35.9205 1.89055
8519 2 37.811 34.0299 0
8520 2 39.7016 34.0299 1.89055
8521 2 37.811 35.9205 1.89055
313 4 43.4827 35.9205 0
314 4 45.3732 34.0299 0
8522 2 43.4827 35.9205 0
8523 2 45.3732 34.0299 0
315 4 47.2638 35.9205 0
316 4 49.1543 34.0299 0
319 4 49.1543 35.9205 1.89055
317 4 51.0449 35.9205 0
318 4 51.0449 34.0299 1.89055
320 4 52.9354 34.0299 0
8524 2 51.0449 35.9205 0
8525 2 52.9354 34.0299 0
8526 2 54.826 34.0299 1.89055
321 4 58.6071 35.9205 0
8527 2 58.6071 35.9205 0
322 4 1.89055 39.7016 0
323 4 1.89055 37.811 1.89055
8528 2 0 37.811 0
8529 2 0 39.7016 1.89055
324 4 3.7811 37.811 0
325 4 5.67165 37.811 1.89055
8530 2 5.67165 39.7016 0
8531 2 3.7811 39.7016 1.89055
326 4 9.45276 37.811 1.89055
327 4 7.5622 39.7016 1.89055
8532 2 7.5622 37.811 0
8533 2 9.45276 39.7016 0
328 4 13.2339 37.811 1.89055
8534 2 13.2339 39.7016 0
329 4 15.1244 37.811 0
331 4 15.1244 39.7016 1.89055
330 4 17.015 39.7016 0
332 4 18.9055 37.811 0
8535 2 17.015 39.7016 0
8536 2 17.015 37.811 1.89055
8537 2 18.9055 37.811 0
8539 2 18.9055 39.7016 1.89055
333 4 20.7961 39.7016 0
334 4 22.6866 37.811 0
336 4 22.6866 39.7016 1.89055
8538 2 20.7961 37.811 1.89055
8540 2 22.6866 37.811 0
8543 2 22.6866 39.7016 1.89055
335 4 24.5772 39.7016 0
8541 2 24.5772 39.7016 0
8542 2 24.5772 37.811 1.89055
337 4 28.3583 39.7016 0
338 4 28.3583 37.811 1.89055
8544 2 28.3583 39.7016 0
8545 2 28.3583 37.811 1.89055
339 4 30.2488 37.811 0
340 4 32.1394 39.7016 0
341 4 32.1394 37.811 1.89055
342 4 30.2488 39.7016 1.89055
8546 2 30.2488 37.811 0
8547 2 32.1394 39.7016 0
8548 2 32.1394 37.811 1.89055
8549 2 30.2488 39.7016 1.89055
343 4 34.0299 37.811 0
344 4 35.9205 39.7016 0
345 4 35.9205 37.811 1.89055
8550 2 35.9205 37.811 1.89055
8551 2 34.0299 39.7016 1.89055
346 4 37.811 37.811 0
8552 2 39.7016 37.811 1.89055
8553 2 37.811 39.7016 1.89055
347 4 41.5921 37.811 0
348 4 45.3732 37.811 0
350 4 45.3732 39.7016 1.89055
8555 2 45.3732 39.7016 1.89055
349 4 47.2638 37.811 1.89055
8554 2 47.2638 39.7016 0
8556 2 49.1543 37.811 0
351 4 51.0449 39.7016 0
352 4 52.9354 37.811 0
8557 2 51.0449 37.811 1.89055
353 4 54.826 39.7016 0
354 4 54.826 37.811 1.89055
8558 2 54.826 39.7016 0
355 4 58.6071 39.7016 0
356 4 56.7165 39.7016 1.89055
8559 2 58.6071 39.7016 0
8560 2 56.7165 39.7016 1.89055
357 4 0 41.5921 0
359 4 1.89055 41.5921 1.89055
8561 2 0 41.5921 0
8562 2 1.89055 41.5921 1.89055
361 4 3.7811 41.5921 0
8563 2 3.7811 41.5921 0
8564 2 5.67165 41.5921 1.89055
363 4 7.5622 41.5921 0
364 4 9.45276 41.5921 1.89055
8565 2 7.5622 41.5921 0
8566 2 9.45276 41.5921 1.89055
365 4 11.3433 41.5921 0
366 4 13.2339 41.5921 1.89055
8569 2 13.2339 41.5921 1.89055
368 4 17.015 41.5921 1.89055
8570 2 17.015 41.5921 1.89055
370 4 20.7961 41.5921 1.89055
372 4 24.5772 41.5921 1.89055
374 4 26.4677 41.5921 0
8573 2 24.5772 41.5921 1.89055
8575 2 26.4677 41.5921 0
376 4 28.3583 41.5921 1.89055
8576 2 28.3583 41.5921 1.89055
378 4 30.2488 41.5921 0
379 4 32.1394 41.5921 1.89055
380 4 34.0299 41.5921 0
381 4 35.9205 41.5921 1.89055
8578 2 34.0299 41.5921 0
383 4 39.7016 41.5921 1.89055
385 4 43.4827 41.5921 1.89055
8581 2 43.4827 41.5921 1.89055
387 4 49.1543 41.5921 0
390 4 52.9354 41.5921 0
8582 2 51.0449 41.5921 1.89055
391 4 54.826 41.5921 1.89055
8584 2 54.826 41.5921 1.89055
8586 2 58.6071 41.5921 1.89055
358 4 1.89055 43.4827 0
360 4 0 43.4827 1.89055
362 4 3.7811 43.4827 1.89055
395 4 3.7811 45.3732 0
8591 2 5.67165 45.3732 1.89055
397 4 7.5622 45.3732 0
399 4 9.45276 45.3732 1.89055
8567 2 7.5622 43.4827 1.89055
8593 2 7.5622 45.3732 0
8595 2 9.45276 45.3732 1.89055
367 4 11.3433 43.4827 1.89055
401 4 13.2339 45.3732 1.89055
8568 2 13.2339 43.4827 0
402 4 15.1244 45.3732 0
371 4 18.9055 43.4827 1.89055
8572 2 18.9055 43.4827 1.89055
8597 2 17.015 45.3732 1.89055
8598 2 18.9055 45.3732 0
369 4 20.7961 43.4827 0
373 4 22.6866 43.4827 1.89055
406 4 22.6866 45.3732 0
8571 2 20.7961 43.4827 0
8574 2 22.6866 43.4827 1.89055
8599 2 20.7961 45.3732 1.89055
8600 2 22.6866 45.3732 0
377 4 26.4677 43.4827 1.89055
407 4 26.4677 45.3732 0
8577 2 26.4677 43.4827 1.89055
8601 2 24.5772 45.3732 1.89055
8602 2 26.4677 45.3732 0
375 4 28.3583 43.4827 0
8605 2 32.1394 45.3732 1.89055
408 4 35.9205 45.3732 1.89055
8579 2 34.0299 43.4827 1.89055
8607 2 34.0299 45.3732 0
8608 2 35.9205 45.3732 1.89055
382 4 39.7016 43.4827 0
410 4 37.811 45.3732 0
412 4 39.7016 45.3732 1.89055
8580 2 39.7016 43.4827 0
8610 2 37.811 45.3732 0
8612 2 39.7016 45.3732 1.89055
413 4 41.5921 45.3732 0
8614 2 41.5921 45.3732 0
384 4 43.4827 43.4827 0
386 4 45.3732 43.4827 1.89055
415 4 43.4827 45.3732 1.89055
8615 2 43.4827 45.3732 1.89055
8616 2 45.3732 45.3732 0
389 4 49.1543 43.4827 1.89055
418 4 49.1543 45.3732 0
8617 2 47.2638 45.3732 1.89055
8618 2 49.1543 45.3732 0
388 4 51.0449 43.4827 0
419 4 51.0449 45.3732 1.89055
420 4 52.9354 45.3732 0
8585 2 52.9354 43.4827 1.89055
8583 2 54.826 43.4827 0
392 4 58.6071 43.4827 0
393 4 56.7165 43.4827 1.89055
422 4 56.7165 45.3732 0
8587 2 56.7165 43.4827 1.89055
8622 2 56.7165 45.3732 0
394 4 0 47.2638 1.89055
8588 2 1.89055 47.2638 0
8589 2 0 47.2638 1.89055
8623 2 0 49.1543 0
8624 2 1.89055 49.1543 1.89055
396 4 3.7811 47.2638 1.89055
426 4 3.7811 49.1543 0
8590 2 5.67165 47.2638 0
8592 2 3.7811 47.2638 1.89055
8625 2 5.67165 49.1543 1.89055
398 4 9.45276 47.2638 0
400 4 7.5622 47.2638 1.89055
8594 2 9.45276 47.2638 0
8627 2 7.5622 49.1543 0
8628 2 9.45276 49.1543 1.89055
429 4 11.3433 49.1543 0
8596 2 13.2339 47.2638 0
8631 2 13.2339 49.1543 1.89055
404 4 15.1244 47.2638 1.89055
432 4 15.1244 49.1543 0
403 4 17.015 47.2638 0
405 4 18.9055 47.2638 1.89055
435 4 18.9055 49.1543 0
436 4 22.6866 49.1543 0
8635 2 20.7961 49.1543 1.89055
8636 2 22.6866 49.1543 0
438 4 24.5772 49.1543 1.89055
8603 2 26.4677 47.2638 1.89055
440 4 28.3583 49.1543 1.89055
8638 2 28.3583 49.1543 1.89055
441 4 30.2488 49.1543 0
8604 2 32.1394 47.2638 0
8606 2 30.2488 47.2638 1.89055
409 4 34.0299 47.2638 1.89055
443 4 35.9205 49.1543 1.89055
8609 2 34.0299 47.2638 1.89055
8641 2 35.9205 49.1543 1.89055
411 4 39.7016 47.2638 0
445 4 37.811 49.1543 0
8611 2 39.7016 47.2638 0
8613 2 37.811 47.2638 1.89055
448 4 41.5921 49.1543 0
8644 2 41.5921 49.1543 0
414 4 43.4827 47.2638 0
417 4 45.3732 47.2638 1.89055
449 4 43.4827 49.1543 1.89055
450 4 45.3732 49.1543 0
416 4 47.2638 47.2638 0
452 4 47.2638 49.1543 1.89055
454 4 49.1543 49.1543 0
8620 2 49.1543 47.2638 1.89055
8647 2 47.2638 49.1543 1.89055
8649 2 49.1543 49.1543 0
456 4 51.0449 49.1543 1.89055
8619 2 51.0449 47.2638 0
8621 2 52.9354 47.2638 1.89055
8651 2 51.0449 49.1543 1.89055
8652 2 52.9354 49.1543 0
421 4 54.826 47.2638 0
457 4 54.826 49.1543 1.89055
423 4 58.6071 47.2638 0
424 4 56.7165 47.2638 1.89055
459 4 56.7165 49.1543 0
460 4 58.6071 49.1543 1.89055
8655 2 56.7165 49.1543 0
8657 2 58.6071 49.1543 1.89055
425 4 0 51.0449 1.89055
8658 2 0 52.9354 0
8660 2 1.89055 52.9354 1.89055
427 4 3.7811 51.0449 1.89055
8626 2 3.7811 51.0449 1.89055
428 4 9.45276 51.0449 0
463 4 9.45276 52.9354 1.89055
8629 2 7.5622 51.0449 1.89055
8662 2 7.5622 52.9354 0
430 4 13.2339 51.0449 0
431 4 11.3433 51.0449 1.89055
464 4 11.3433 52.9354 0
8630 2 13.2339 51.0449 0
8632 2 11.3433 51.0449 1.89055
8665 2 11.3433 52.9354 0
8667 2 13.2339 52.9354 1.89055
434 4 15.1244 51.0449 1.89055
465 4 15.1244 52.9354 0
8634 2 15.1244 51.0449 1.89055
8668 2 15.1244 52.9354 0
433 4 17.015 51.0449 0
467 4 18.9055 52.9354 0
8633 2 17.015 51.0449 0
8669 2 18.9055 52.9354 0
468 4 20.7961 52.9354 1.89055
8671 2 22.6866 52.9354 0
437 4 24.5772 51.0449 0
470 4 24.5772 52.9354 1.89055
471 4 26.4677 52.9354 0
8637 2 24.5772 51.0449 0
8639 2 26.4677 51.0449 1.89055
439 4 28.3583 51.0449 0
473 4 28.3583 52.9354 1.89055
8673 2 28.3583 52.9354 1.89055
475 4 32.1394 52.9354 1.89055
8640 2 30.2488 51.0449 1.89055
8674 2 30.2488 52.9354 0
442 4 35.9205 51.0449 0
444 4 34.0299 51.0449 1.89055
477 4 35.9205 52.9354 1.89055
8676 2 34.0299 52.9354 0
8677 2 35.9205 52.9354 1.89055
446 4 39.7016 51.0449 0
447 4 37.811 51.0449 1.89055
478 4 37.811 52.9354 0
479 4 39.7016 52.9354 1.89055
8642 2 39.7016 51.0449 0
8643 2 37.811 51.0449 1.89055
8680 2 39.7016 52.9354 1.89055
8646 2 41.5921 51.0449 1.89055
453 4 45.3732 51.0449 1.89055
481 4 43.4827 52.9354 1.89055
483 4 45.3732 52.9354 0
8645 2 43.4827 51.0449 0
8648 2 45.3732 51.0449 1.89055
451 4 47.2638 51.0449 0
484 4 47.2638 52.9354 1.89055
8684 2 49.1543 52.9354 0
455 4 51.0449 51.0449 0
458 4 52.9354 51.0449 1.89055
8650 2 51.0449 51.0449 0
8654 2 52.9354 51.0449 1.89055
8687 2 52.9354 52.9354 0
488 4 54.826 52.9354 1.89055
8653 2 54.826 51.0449 0
489 4 56.7165 52.9354 0
491 4 58.6071 52.9354 1.89055
8656 2 58.6071 51.0449 0
8659 2 1.89055 54.826 0
461 4 5.67165 54.826 0
8661 2 3.7811 54.826 1.89055
462 4 9.45276 54.826 0
8663 2 9.45276 54.826 0
8664 2 7.5622 54.826 1.89055
8666 2 13.2339 54.826 0
466 4 15.1244 54.826 1.89055
469 4 18.9055 54.826 1.89055
8670 2 20.7961 54.826 0
8672 2 22.6866 54.826 1.89055
474 4 26.4677 54.826 1.89055
472 4 28.3583 54.826 0
8675 2 32.1394 54.826 0
476 4 35.9205 54.826 0
8678 2 34.0299 54.826 1.89055
8679 2 39.7016 54.826 0
8681 2 37.811 54.826 1.89055
482 4 41.5921 54.826 1.89055
8682 2 41.5921 54.826 1.89055
480 4 43.4827 54.826 0
8683 2 45.3732 54.826 1.89055
486 4 49.1543 54.826 1.89055
8686 2 49.1543 54.826 1.89055
485 4 51.0449 54.826 0
8685 2 51.0449 54.826 0
487 4 54.826 54.826 0
8688 2 54.826 54.826 0
490 4 58.6071 54.826 0
492 4 1.89055 58.6071 0
8689 2 0 56.7165 0
8690 2 1.89055 58.6071 0
8691 2 0 58.6071 1.89055
493 4 3.7811 56.7165 0
494 4 5.67165 58.6071 0
495 4 3.7811 58.6071 1.89055
8692 2 3.7811 56.7165 0
8693 2 5.67165 56.7165 1.89055
8694 2 3.7811 58.6071 1.89055
496 4 7.5622 56.7165 0
497 4 9.45276 56.7165 1.89055
8695 2 9.45276 58.6071 0
8696 2 7.5622 58.6071 1.89055
498 4 13.2339 58.6071 0
8697 2 11.3433 56.7165 0
8698 2 13.2339 56.7165 1.89055
8699 2 15.1244 56.7165 0
8702 2 15.1244 58.6071 1.89055
501 4 18.9055 58.6071 1.89055
8700 2 17.015 58.6071 0
8701 2 17.015 56.7165 1.89055
8703 2 18.9055 56.7165 0
499 4 20.7961 58.6071 0
500 4 20.7961 56.7165 1.89055
502 4 22.6866 56.7165 0
8706 2 22.6866 58.6071 1.89055
503 4 26.4677 56.7165 0
8704 2 24.5772 58.6071 0
8705 2 24.5772 56.7165 1.89055
8707 2 26.4677 56.7165 0
8709 2 26.4677 58.6071 1.89055
504 4 28.3583 58.6071 0
505 4 28.3583 56.7165 1.89055
8708 2 28.3583 56.7165 1.89055
506 4 32.1394 58.6071 0
507 4 32.1394 56.7165 1.89055
508 4 30.2488 58.6071 1.89055
8710 2 32.1394 58.6071 0
8711 2 30.2488 58.6071 1.89055
509 4 34.0299 56.7165 0
510 4 35.9205 58.6071 0
511 4 35.9205 56.7165 1.89055
8712 2 34.0299 56.7165 0
8713 2 35.9205 56.7165 1.89055
8714 2 34.0299 58.6071 1.89055
512 4 37.811 56.7165 0
8715 2 37.811 56.7165 0
8716 2 39.7016 58.6071 0
8717 2 39.7016 56.7165 1.89055
8718 2 37.811 58.6071 1.89055
513 4 41.5921 56.7165 0
8719 2 41.5921 56.7165 0
514 4 43.4827 56.7165 1.89055
516 4 45.3732 58.6071 1.89055
8720 2 43.4827 58.6071 0
515 4 47.2638 56.7165 1.89055
517 4 49.1543 56.7165 0
519 4 49.1543 58.6071 1.89055
8721 2 47.2638 56.7165 1.89055
8722 2 49.1543 56.7165 0
8725 2 49.1543 58.6071 1.89055
518 4 51.0449 56.7165 1.89055
8723 2 51.0449 58.6071 0
8724 2 51.0449 56.7165 1.89055
8726 2 54.826 58.6071 0
8727 2 54.826 56.7165 1.89055
520 4 58.6071 58.6071 0
521 4 58.6071 56.7165 1.89055
8728 2 58.6071 58.6071 0
8729 2 58.6071 56.7165 1.89055
8730 2 1.89055 1.89055 3.7811
8731 2 0 1.89055 5.67165
522 4 5.67165 0 5.67165
523 4 3.7811 1.89055 5.67165
8732 2 5.67165 1.89055 3.7811
8733 2 5.67165 0 5.67165
8734 2 3.7811 1.89055 5.67165
524 4 9.45276 0 5.67165
8735 2 7.5622 0 3.7811
8736 2 9.45276 0 5.67165
8737 2 7.5622 1.89055 5.67165
525 4 13.2339 1.89055 3.7811
526 4 13.2339 0 5.67165
527 4 11.3433 1.89055 5.67165
8738 2 13.2339 0 5.67165
8739 2 11.3433 1.89055 5.67165
528 4 15.1244 0 3.7811
8740 2 15.1244 0 3.7811
8741 2 15.1244 1.89055 5.67165
529 4 17.015 0 5.67165
531 4 18.9055 1.89055 5.67165
8742 2 18.9055 1.89055 5.67165
530 4 20.7961 0 5.67165
8743 2 22.6866 0 3.7811
8745 2 22.6866 1.89055 5.67165
532 4 24.5772 1.89055 3.7811
533 4 24.5772 0 5.67165
534 4 26.4677 0 3.7811
535 4 26.4677 1.89055 5.67165
8744 2 24.5772 1.89055 3.7811
8746 2 26.4677 0 3.7811
8747 2 28.3583 0 5.67165
536 4 30.2488 0 3.7811
537 4 32.1394 1.89055 3.7811
538 4 32.1394 0 5.67165
539 4 30.2488 1.89055 5.67165
8748 2 30.2488 0 3.7811
8749 2 30.2488 1.89055 5.67165
8750 2 35.9205 1.89055 3.7811
8751 2 35.9205 0 5.67165
8752 2 34.0299 1.89055 5.67165
540 4 37.811 0 3.7811
8753 2 37.811 1.89055 5.67165
541 4 41.5921 0 3.7811
542 4 43.4827 1.89055 3.7811
545 4 45.3732 1.89055 5.67165
8754 2 43.4827 1.89055 3.7811
8755 2 43.4827 0 5.67165
8756 2 45.3732 1.89055 5.67165
543 4 47.2638 1.89055 3.7811
544 4 47.2638 0 5.67165
546 4 49.1543 0 3.7811
549 4 49.1543 1.89055 5.67165
8757 2 49.1543 0 3.7811
547 4 51.0449 1.89055 3.7811
548 4 51.0449 0 5.67165
550 4 52.9354 1.89055 5.67165
8758 2 51.0449 0 5.67165
551 4 56.7165 0 3.7811