ITEM: TIMESTEP
0
ITEM: NUMBER OF ATOMS
50688
ITEM: BOX BOUNDS xy xz yz pp pp pp
-20.3679009 75.5007019 15.5877981
-22.2159996 65.355896 0.0
-22.2159996 65.355896 0.0
ITEM: ATOMS id type x y z VoronoiIndex1 VoronoiIndex2 VoronoiIndex3 VoronoiIndex4 VoronoiIndex5 VoronoiIndex6 VoronoiIndex7 VoronoiIndex8 VoronoiIndex9 AtomicVolume
9 1 -12.6599999 -11.3500004 4.244 0 0 0 2 10 2 0 0 0 12.0841856
25 2 7.5180002 19.8500004 18.2199993 0 0 0 2 10 0 0 0 0 11.5949993
35 2 20.9099998 15.25 -12.9300004 0 0 0 2 10 2 0 0 0 11.8943788
42 2 21.6299992 15.4499998 -9.0019999 0 0 0 2 8 2 0 0 0 10.989501
57 5 5.1110001 -3.494 -19.6299992 0 0 0 1 10 2 0 0 0 11.7480345
71 2 3.2290001 18.6100006 -14.1999998 0 0 0 1 10 2 0 0 0 11.3770256
81 4 13.3299999 -3.003 -9.1789999 0 0 0 0 12 0 0 0 0 11.3557129
82 5 -14.7100001 -13.3800001 -21.2999992 0 0 0 3 6 5 0 0 0 12.8263541
91 2 2.356 19.6100006 -10.2399998 0 0 1 1 9 2 0 0 0 11.8601304
101 1 -10.5299998 -17.5 -3.2479999 0 0 0 3 6 5 0 0 0 12.6371432
105 4 2.243 13.8500004 -16.1399994 0 0 0 5 3 4 1 0 0 11.994568
110 5 -8.7629996 -15.9099998 2.5550001 0 0 1 1 8 3 1 0 0 12.0687313
112 2 10.3199997 -3.467 15.2799997 0 0 0 2 8 3 0 0 0 12.2899161
128 5 -14.9099998 -13.1099997 8.323 0 0 1 1 9 2 0 0 0 12.7900143
141 5 3.5620001 8.448 -9.3400002 0 0 0 2 8 4 0 0 0 12.466528
147 5 11.0900002 -2.214 11.3299999 0 0 1 1 9 0 2 0 0 11.736125
159 4 14.2399998 -2.53 15.4600001 0 0 0 3 6 5 0 0 0 12.0010118
165 1 20.7000008 -10.8500004 -14.7100001 0 0 0 0 12 0 0 0 0 10.9392128
168 5 3.2090001 -7.1869998 -15.1199999 0 0 1 0 9 3 0 0 0 11.7622795
171 2 -1.954 8.2950001 -10.5299998 0 0 0 4 4 6 0 0 0 11.1972876
174 4 -8.2629995 17.0900002 12.0 0 0 0 3 6 4 0 0 0 12.3300228
184 2 12.4499998 -1.1210001 12.9200002 0 0 0 2 8 4 0 0 0 11.8142843
186 5 13.3299999 12.9099998 -15.9200002 0 0 0 2 10 1 0 0 0 12.0826159
196 5 9.5880003 -7.1830001 -1.928 0 0 0 1 10 3 0 0 0 12.4153481
214 2 0.3137 17.6000004 -18.1100006 0 0 0 2 8 2 0 0 0 11.8657904
217 2 -16.3299999 -6.5879998 19.8500004 0 0 1 2 6 3 1 0 0 11.6449576
243 4 2.5510001 2.5840001 14.1899996 0 0 0 3 6 5 0 0 0 12.0757952
244 5 9.9790002 -11.9700004 18.9599992 0 0 0 1 12 1 0 0 0 12.7273484
245 1 -10.2399998 4.3660002 -19.7800007 0 0 2 1 8 2 2 0 0 11.2389259
247 2 10.8100004 14.4499998 -5.0739999 0 0 0 1 10 2 0 0 0 11.0107851
254 2 -7.942 18.8199997 -7.6090002 0 0 0 2 8 2 0 0 0 11.5347433
273 4 18.7700005 -11.7700005 0.3029 0 0 2 2 8 2 0 0 0 12.6349879
275 4 14.7200003 -0.251 12.0 0 0 1 3 7 3 0 0 0 12.1556377
288 5 -11.3699999 14.6700001 21.3799992 0 0 0 0 12 2 0 0 0 11.9736672
295 4 -3.971 4.5549999 -9.1459999 0 0 0 1 10 4 0 0 0 12.4069538
299 5 0.1984 20.0300007 -18.9099998 0 0 0 0 12 3 0 0 0 13.5729513
300 2 17.3899994 -8.4639998 1.6410001 0 0 0 4 4 5 0 0 0 12.0397129
313 5 -1.977 -12.7799998 3.3900001 0 0 0 0 12 3 0 0 0 13.3262882
314 5 -17.7800007 -20.5799999 3.8239999 0 0 0 0 12 0 0 0 0 11.6782313
327 4 -2.645 -1.509 14.5900002 0 0 1 3 5 4 2 0 0 11.9135246
335 1 -9.4390002 17.8500004 -14.4300003 0 0 0 2 10 0 0 0 0 11.7300864
348 4 -8.842 4.4770003 12.1499996 0 0 0 3 6 3 0 0 0 12.7331591
360 4 8.5930004 -20.6299992 -7.7729998 0 0 1 3 7 5 2 0 0 14.2761564
364 4 -7.987 4.685 -16.1200008 0 0 0 2 10 3 0 0 0 13.4504366
387 4 14.3599997 -11.4799996 0.8407 0 0 0 3 10 1 0 0 0 11.9482088
397 1 -7.882 3.181 19.3700009 0 0 0 2 8 2 0 0 0 11.11094
410 4 7.0710001 -3.3499999 7.7880001 0 0 0 1 10 3 0 0 0 12.8151808
412 1 -5.9239998 13.8999996 -5.6620002 0 0 0 3 8 1 0 0 0 11.5470095
415 2 -7.6009999 3.583 -12.3900004 0 0 1 2 6 2 1 0 0 11.3071718
419 2 4.4780002 -9.5869999 -11.4200001 0 0 1 1 9 2 0 0 0 11.5850487
420 5 8.7779999 -9.9569998 -10.8800002 0 0 0 4 6 5 0 0 0 12.9418612
432 5 3.881 10.2700005 8.276 0 0 1 1 9 4 0 0 0 12.2305203
438 4 -13.6300001 -19.5 16.8899994 0 0 0 0 12 2 0 0 0 12.4726315
439 4 -7.6750002 18.8099995 -15.6700001 0 0 0 2 10 0 2 0 0 13.2143698
442 4 5.889 18.3899994 -18.3400002 0 0 0 5 6 3 0 0 0 12.6966381
453 4 0.14 2.487 7.8660002 0 0 1 3 6 4 1 0 0 13.569459
459 4 -11.8000002 2.2739999 -20.6800003 0 0 0 1 10 2 0 0 0 11.8012953
465 3 18.6299992 -10.0100002 -15.4600001 0 0 0 3 8 2 0 0 0 11.7176466
477 5 -13.8599998 -5.184 -3.257 0 0 0 3 7 4 1 0 0 12.6841192
485 4 6.842 5.744 -15.4300003 0 0 0 1 10 3 0 0 0 12.3844538
515 5 -1.999 -12.6700001 16.8500004 0 0 0 0 12 2 0 0 0 12.2660275
520 5 3.7290001 -15.54 11.3000002 0 0 1 2 6 5 1 0 0 13.3762198
533 4 10.4899998 5.7600003 -4.7930002 0 0 0 3 10 3 0 0 0 13.2561283
537 2 16.6800003 9.1129999 -9.2589998 0 0 0 2 8 1 0 0 0 10.7493344
540 5 -10.4899998 -15.6499996 0.9334 0 0 1 0 11 1 0 0 0 11.1750879
550 4 6.929 -9.3199997 12.5 0 0 1 1 9 3 0 0 0 12.00564
562 2 2.2260001 -11.5 -21.6800003 0 0 1 1 8 3 1 0 0 12.4105597
564 4 12.7600003 0.08967 18.1599999 0 0 0 5 3 6 1 0 0 12.6159449
567 4 5.5609999 -13.0500002 21.1499996 0 0 0 0 12 0 0 0 0 11.2608013
574 5 15.1199999 -16.0900002 -13.1899996 0 0 0 1 10 3 0 0 0 11.7261954
580 2 15.3000002 -15.3400002 -10.8900004 0 0 1 3 4 4 1 0 0 11.7589207
585 4 10.9200002 -8.5799999 -11.8900004 0 0 0 3 6 6 0 0 0 12.5314322
603 5 -11.7700005 -17.1299992 -0.5783 0 0 0 2 8 5 0 0 0 12.96379
604 4 21.4799996 -8.2980003 16.7099991 0 0 0 2 8 4 0 0 0 12.3955355
620 4 3.105 17.9799996 8.0900002 0 0 1 2 7 3 2 0 0 12.8637686
622 5 1.039 -3.4170001 5.3779998 0 0 0 0 12 2 0 0 0 12.4961119
634 4 -7.685 -21.8999996 -0.06576 0 0 0 2 8 4 0 0 0 12.2278891
642 4 -5.2740002 4.401 -20.0599995 0 0 0 1 10 4 0 0 0 12.5859947
643 5 14.5200005 0.6009 -17.8199997 0 0 0 2 8 2 0 0 0 11.8342591
650 2 15.9300004 -12.6800003 17.2000008 0 0 0 0 12 0 0 0 0 11.5895748
653 4 -1.5900001 -15.3500004 3.4089999 0 0 0 1 10 6 0 0 0 13.6999712
654 4 0.3592 -7.1539998 -0.6367 0 0 0 4 8 2 0 0 0 12.4598885
656 4 4.8169999 -13.1899996 15.0 0 0 0 1 10 2 0 0 0 12.1073122
665 4 -8.8549996 -6.1389999 -22.2099991 0 0 0 3 6 5 0 0 0 11.9729358
666 4 -11.7200003 -9.9960004 0.1302 0 0 0 2 8 4 0 0 0 11.6903677
671 2 17.7099991 -0.4369 17.4500008 0 0 1 0 9 3 0 0 0 11.5721998
673 2 9.8059998 6.5050001 12.4799996 0 0 0 0 12 0 0 0 0 11.3567238
679 4 9.8950006 14.5200005 17.5599995 0 0 0 0 12 0 0 0 0 11.2034569
683 5 -6.441 12.0 19.7299996 0 0 0 2 8 3 0 0 0 12.0246449
687 5 13.3599997 -10.04 19.7800007 0 0 0 2 8 2 0 0 0 11.00278
712 4 24.8799992 10.6899996 -15.5699997 0 0 0 2 10 3 0 0 0 13.1543179
716 4 1.05 5.8169999 4.5760002 0 0 0 2 8 4 0 0 0 11.8719044
717 4 4.4099999 -18.8500004 1.8220001 0 0 0 3 6 6 0 0 0 11.9089128
719 4 24.0499992 2.204 -11.3400002 0 0 0 3 8 2 0 0 0 12.1932077
728 5 4.7480002 1.363 3.902 0 0 0 1 12 2 0 0 0 13.1580896
740 2 20.9400006 4.4930001 17.6399994 0 0 0 3 6 5 0 0 0 12.1642218
745 4 -0.6037 -14.1300001 -17.9400006 0 0 1 0 11 3 0 0 0 12.8159409
761 5 -5.3400002 14.0100002 -12.2700005 0 0 0 2 6 4 0 0 0 11.4963122
776 4 19.0 6.948 4.9000002 0 0 0 0 12 0 0 0 0 11.5194254
781 4 -8.948 -18.0300007 -11.4099999 0 0 0 2 8 4 0 0 0 13.1135836
798 5 -6.7880001 21.4500008 -3.431 0 0 1 0 11 3 0 0 0 12.6966486
799 4 23.8899994 4.843 -1.52 0 0 1 0 9 3 0 0 0 11.7871123
806 4 -7.4120002 5.7839999 16.7999993 0 0 1 2 7 3 2 0 0 12.9428206
841 5 -10.2200003 21.4899998 -12.5299998 0 0 0 3 6 5 0 0 0 12.230176
843 2 2.8350001 -1.906 -8.2930002 0 0 0 4 4 6 0 0 0 11.3775063
846 3 17.0 -14.7799998 -14.4499998 0 0 0 1 10 2 0 0 0 11.3712206
860 4 23.1200008 2.211 14.2399998 0 0 0 2 8 4 0 0 0 11.6121598
864 2 5.0289998 -2.412 0.9635 0 0 1 2 6 3 1 0 0 11.5494461
897 5 5.1040001 -3.388 11.29 0 0 0 1 10 2 0 0 0 11.4914913
902 2 -18.0799999 -22.1399994 21.0300007 0 0 0 3 6 4 0 0 0 11.7722912
905 4 18.8799992 -3.734 -2.905 0 0 0 0 12 2 0 0 0 11.842888
917 5 7.7379999 -12.4399996 20.2299996 0 0 0 2 8 2 0 0 0 11.4525652
949 2 14.0 4.4819999 21.0599995 0 0 0 1 10 3 0 0 0 12.2872315
952 2 10.8299999 1.4 1.084 0 0 0 0 12 2 0 0 0 13.0251369
961 2 -3.2780001 -18.7199993 -6.3930001 0 0 0 2 10 1 0 0 0 11.4703398
990 4 3.2739999 -13.1000004 -20.0799999 0 0 0 4 6 4 0 0 0 12.3458786
996 5 12.54 -8.6940003 16.0599995 0 0 0 1 10 3 0 0 0 11.4933787
999 4 2.28 10.54 -10.4200001 0 0 0 2 8 5 0 0 0 12.1864586
1009 5 8.4849997 12.29 17.8199997 0 0 0 1 10 2 0 0 0 11.6378451
1018 3 23.6599999 18.3199997 13.5100003 0 0 1 1 9 4 0 0 0 13.1217079
1023 2 16.8299999 -2.888 -16.1100006 0 0 0 1 10 2 0 0 0 12.1812325
1027 4 -6.7420001 -8.8649998 18.75 0 0 0 1 9 2 1 0 0 12.0541964
1034 4 13.2299996 7.7529998 -14.2299996 0 0 0 1 10 2 0 0 0 12.0630598
1039 5 10.0299997 11.6300001 -21.0599995 0 0 2 2 4 5 0 0 0 12.3669396
1040 1 6.8800002 -13.9799996 -20.8199997 0 0 0 5 2 6 0 0 0 11.4632941
1063 5 15.6700001 -19.7600003 -15.0500002 0 0 0 1 10 2 0 0 0 11.707326
1067 3 17.3700009 -6.4600001 -19.2999992 0 0 0 2 8 4 0 0 0 12.826581
1068 5 -4.421 6.955 -1.845 0 0 1 2 7 4 0 0 0 11.4392529
1087 4 -12.9099998 15.9799996 -0.6755 0 0 0 3 6 5 0 0 0 12.4005451
1089 4 -3.9200002 -6.1160002 4.066 0 0 0 4 8 4 0 0 0 13.2041206
1091 5 -2.6310001 -14.9200002 8.3070002 0 0 0 1 10 3 0 0 0 12.1989336
1094 5 9.9650002 3.296 19.4599991 0 0 1 1 7 5 0 0 0 12.3205242
1097 1 22.9799996 0.9548 -17.7600003 0 0 0 0 12 0 0 0 0 11.1380768
1101 4 -9.4610005 -14.5500002 11.1700001 0 0 0 1 10 4 0 0 0 12.7838707
1111 4 -14.9499998 -19.1399994 21.0900002 0 0 0 4 4 7 0 0 0 12.57479
1113 4 13.5299998 5.414 18.5900002 0 0 0 1 10 2 0 0 0 11.2164974
1119 4 17.1000004 -6.56 19.7700005 0 0 1 3 5 5 0 0 0 13.257843
1127 2 -4.9239998 16.3099995 -2.553 0 0 0 4 5 4 1 0 0 12.2747765
1129 2 18.1399994 20.2099991 20.0200005 0 0 0 1 10 2 0 0 0 11.3254738
1143 5 -4.6669998 12.9499998 0.3272 0 0 1 2 7 3 2 0 0 13.0459652
1147 4 -13.1499996 0.5589 -9.9280006 0 0 0 1 10 3 0 0 0 11.9493094
1152 2 -11.7799998 -11.3199997 -6.4640003 0 0 0 0 12 0 0 0 0 11.6787234
1158 2 3.6110001 14.7799998 13.3100004 0 0 0 0 12 0 0 0 0 11.5986719
1161 4 9.5769997 -0.6443 -3.1340001 0 0 0 1 12 2 0 0 0 13.3707247
1167 4 19.3999996 -4.5939999 -0.5401 0 0 0 0 12 0 0 0 0 11.239481
1171 5 -1.225 0.8208 14.2299996 0 0 0 2 8 4 0 0 0 11.4440203
1175 4 7.322 18.1700001 15.8400002 0 0 0 0 12 3 0 0 0 12.3966618
1185 2 8.6599999 -3.309 -21.4799996 0 0 0 0 12 0 0 0 0 11.1106958
1190 2 -10.9099998 -13.8100004 -16.1100006 0 0 0 1 10 2 0 0 0 11.3432617
1191 4 -12.2700005 20.0499992 -11.7399998 0 0 0 1 10 4 0 0 0 12.7779331
1207 5 11.7200003 19.1299992 18.2600002 0 0 0 0 12 0 0 0 0 11.3596068
1208 4 15.4499998 18.3199997 -4.559 0 0 0 6 6 2 0 0 0 12.7920323
1212 4 8.684 -2.316 11.4799996 0 0 1 2 7 2 2 1 0 13.0485306
1214 5 17.3299999 5.1300001 15.54 0 0 0 2 8 2 0 0 0 11.5314198
1217 5 -7.8130002 11.0 4.2290001 0 0 0 2 10 3 0 0 0 12.9339218
1226 4 11.6099997 19.9099998 -16.0400009 0 0 0 4 8 1 0 0 0 12.2169695
1243 2 -0.706 -21.3500004 18.6299992 0 0 0 2 8 2 0 0 0 11.3581391
1245 5 17.9599992 -14.6700001 1.591 0 0 1 3 7 3 0 0 0 12.49786
1246 4 9.8009997 11.9799996 -10.79 0 0 1 1 9 3 2 0 0 13.1446495
1249 2 -9.3430004 -6.388 21.25 0 0 0 0 12 2 0 0 0 12.4831896
1250 2 -5.4050002 13.5699997 6.8720002 0 0 0 0 12 0 0 0 0 11.1352272
1252 4 -16.1499996 -16.4400006 -18.75 0 0 0 1 10 4 0 0 0 13.2668772
1261 4 5.4089999 -0.3953 -0.6192 0 0 0 1 10 3 0 0 0 11.7930937
1269 5 -17.6100006 -18.3799992 -7.368 0 0 0 3 6 6 0 0 0 12.410327
1270 2 -0.1358 7.7470002 0.006104 0 0 1 3 7 1 0 0 0 11.7776013
1295 4 -4.3270002 -20.1100006 -4.3200002 0 0 0 3 6 5 0 0 0 12.7417879
1305 5 -1.0319999 18.5100003 14.4799996 0 0 0 4 4 6 0 0 0 12.9542456
1306 5 -3.777 17.0300007 -8.5830002 0 0 0 0 12 0 0 0 0 11.2432509
1318 5 -1.287 -1.857 -13.3699999 0 0 0 1 10 5 0 0 0 13.0131741
1328 2 6.086 15.2100001 -5.2690001 0 0 0 0 12 0 0 0 0 11.0764608
1335 5 -4.5739999 1.1490001 20.9500008 0 0 0 3 8 3 0 0 0 12.4064064
1337 4 15.1300001 -13.3100004 -7.7820001 0 0 0 3 6 4 0 0 0 11.3930636
1340 4 14.9099998 15.3599997 -0.1287 0 0 1 3 5 6 0 0 0 12.2215967
1352 4 -19.0499992 -20.5300007 18.0699997 0 0 0 4 8 1 0 0 0 12.0320559
1357 5 15.75 -9.3149996 -5.007 0 0 0 1 10 4 0 0 0 12.7899637
1371 4 17.0499992 9.368 -1.5290001 0 0 0 1 10 2 0 0 0 11.8826284
1374 4 15.5699997 -6.8670002 1.548 0 0 0 2 8 6 0 0 0 12.8872156
1384 2 20.6100006 -12.8500004 -13.4099999 0 0 0 2 8 4 0 0 0 11.6491223
1386 2 6.928 2.3 4.7979999 0 0 0 2 8 2 0 0 0 11.4281006
1388 5 12.0100002 -2.599 -7.171 0 0 0 2 10 0 0 0 0 11.4506779
1393 4 3.174 -5.1869998 4.85 0 0 0 2 10 1 0 0 0 12.1735001
1410 1 24.8500004 12.3900004 0.3465 0 0 0 0 12 0 0 0 0 11.0817156
1415 4 0.9238 -12.1300001 -2.3169999 0 0 0 1 10 5 0 0 0 12.9961406
1419 4 11.0200005 -17.5499993 -13.7799998 0 0 0 2 10 2 0 0 0 12.6259947
1427 5 18.1499996 -16.0499992 -2.9820002 0 0 0 0 12 0 0 0 0 10.8048449
1433 5 0.147 -3.7950001 14.6800003 0 0 0 5 5 5 1 0 0 13.20502
1444 4 -5.0159998 3.435 11.3599997 0 0 0 2 8 3 0 0 0 11.6034565
1447 4 1.675 -18.7999993 14.8199997 0 0 0 3 8 4 0 0 0 13.4102793
1450 1 17.8299999 5.638 -6.3109999 0 0 0 4 4 4 0 0 0 11.3008604
1452 4 -9.0869999 -7.3270002 -19.8899994 0 0 0 1 10 2 0 0 0 12.0268526
1469 2 2.3480001 -15.9700004 -1.888 0 0 0 1 10 2 0 0 0 11.8393698
1471 5 -19.0100002 -19.8299999 -11.1700001 0 0 0 0 12 2 0 0 0 11.6084509
1476 5 3.6359999 -21.8700008 -0.9302 0 0 0 4 4 6 0 0 0 12.1185379
1487 4 0.6189 -14.3599997 -9.1479998 0 0 1 0 9 3 0 0 0 13.1598854
1504 5 9.4589997 5.974 -16.7399998 0 0 1 3 5 5 0 0 0 12.2966337
1516 2 17.3400002 18.7399998 -2.75 0 0 0 0 12 0 0 0 0 11.4649143
1528 2 18.3099995 -19.9099998 16.8299999 0 0 0 0 12 0 0 0 0 11.3580246
1533 2 8.3149996 2.3499999 -5.9829998 0 0 0 0 12 0 0 0 0 11.3557959
1534 4 8.3310003 16.5900002 0.8174 0 0 0 3 8 3 0 0 0 12.9108716
1543 1 -19.2900009 -16.8500004 6.3340001 0 0 0 1 10 2 0 0 0 11.5336991
1548 4 9.6450005 -15.3100004 16.5100003 0 0 1 2 7 3 2 0 0 12.6119175
1550 4 -3.5780001 -12.1800003 -13.0200005 0 0 1 2 7 4 0 0 0 12.2329359
1561 4 -12.5299998 3.6429999 5.3140001 0 0 0 0 12 3 0 0 0 12.3568707
1566 1 8.0299997 2.405 -8.4309998 0 0 0 0 12 3 0 0 0 12.8689842
1581 2 4.106 10.3199997 -4.3920002 0 0 0 0 12 0 0 0 0 11.4204808
1584 2 20.1599999 19.0400009 18.9899998 0 0 0 0 12 0 0 0 0 11.0078573
1585 3 -10.1400003 -17.5799999 15.7700005 0 0 0 0 12 0 0 0 0 11.6011505
1595 5 2.7320001 2.556 -12.6899996 0 0 0 2 8 3 0 0 0 12.6415434
1605 5 6.329 -4.3429999 -0.03504 0 0 0 2 8 1 2 0 0 11.89847
1618 4 -2.5220001 -4.4320002 21.4200001 0 0 1 2 7 4 2 0 0 12.6861506
1619 5 25.4300003 20.7299996 -12.04 0 0 0 2 8 5 0 0 0 12.5488253
1622 4 8.4969998 15.6400004 -1.7790001 0 0 0 0 12 3 0 0 0 13.4029789
1625 4 7.2560001 -5.744 8.5229998 0 0 0 1 10 4 0 0 0 12.9936008
1630 4 -0.8439 -14.8000002 12.75 0 0 0 1 12 2 0 0 0 12.7984925
1632 4 -0.719 -4.428 -12.9099998 0 0 1 3 5 5 0 0 0 12.5130463
1644 4 5.836 13.8400002 14.0100002 0 0 0 1 12 2 0 0 0 13.2970581
1661 5 19.9599992 2.4189999 -19.7900009 0 0 0 1 10 2 0 0 0 12.4481907
1666 4 -19.0599995 -22.1499996 -11.9899998 0 0 0 4 6 3 0 0 0 11.5066223
1667 4 -5.2379999 10.8999996 -9.2559996 0 0 0 2 8 5 0 0 0 12.7951975
1672 4 6.6479998 -18.2800007 -20.5200005 0 0 0 2 8 4 0 0 0 12.4510784
1687 5 14.25 -0.3444 14.5900002 0 0 3 3 4 3 1 0 0 12.3425694
1694 2 16.2299996 -0.5993001 3.2790001 0 0 0 0 12 0 0 0 0 11.261529
1699 4 16.6599999 -7.7410002 8.3389998 0 0 0 2 10 2 0 0 0 12.2845297
1700 5 11.9300004 12.6899996 20.4300003 0 0 0 2 8 4 0 0 0 12.3690939
1705 1 -3.481 -12.9799996 -0.8295 0 0 0 1 10 2 0 0 0 11.9812146
1707 4 15.96 5.2069998 -12.1099997 0 0 0 3 6 4 0 0 0 12.3101692
1712 2 13.1800003 -13.6499996 -21.4400006 0 0 0 3 8 2 0 0 0 11.4112625
1714 4 16.2399998 0.8809 16.0499992 0 0 0 0 12 0 0 0 0 11.5833683
1724 2 -3.5320001 1.278 -12.4700003 0 0 0 0 12 0 0 0 0 11.0234938
1730 5 -4.48 -0.4647 19.3299999 0 0 0 1 10 2 0 0 0 12.2422781
1733 1 -9.3009997 -13.2399998 19.7199993 0 0 0 2 8 4 0 0 0 12.0108023
1737 4 10.4600001 -19.6299992 -0.7388 0 0 1 0 9 3 0 0 0 11.5700445
1743 4 -7.6770001 -15.7799998 0.4084 0 0 0 1 10 4 0 0 0 12.4290972
1745 4 -16.75 -21.2800007 17.2900009 0 0 0 2 8 2 0 0 0 11.0726376
1750 4 0.5119 5.903 -1.513 0 0 0 3 6 2 2 0 0 11.9626542
1751 4 -2.7650001 -9.7100001 -3.4189999 0 0 0 2 8 3 0 0 0 11.881632
1772 2 -5.171 21.4300003 -19.7999993 0 0 0 2 8 4 0 0 0 11.7911377
1796 2 10.8100004 -7.5019999 -20.8099995 0 0 0 1 10 2 0 0 0 11.9009906
1803 2 13.8800002 -3.929 -6.948 0 0 0 2 8 4 0 0 0 11.7161579
1805 4 20.7800007 16.8199997 -18.1900005 0 0 0 0 12 0 0 0 0 10.9291506
1813 4 -16.1599999 -2.513 -8.3780003 0 0 2 3 4 2 2 1 0 12.5252171
1834 4 18.9200002 18.1100006 20.9300004 0 0 1 1 9 4 0 0 0 13.4530602
1838 2 6.783 19.3899994 -2.8010001 0 0 0 2 10 0 0 0 0 10.8291464
1847 4 15.7299996 -15.5699997 -18.0599995 0 0 0 4 4 7 0 0 0 13.1513338
1849 5 -2.411 -5.954 -11.9899998 0 0 0 4 6 4 0 0 0 12.0267162
1854 4 14.5200005 -6.4710002 8.3579998 0 0 0 0 12 0 0 0 0 11.3023977
1860 2 -8.7720003 -3.524 -16.7299996 0 0 0 0 12 0 0 0 0 10.7355366
1864 5 22.5100003 6.0310001 21.0900002 0 0 0 2 10 1 0 0 0 12.6514025
1868 4 -13.87 6.973 7.6789999 0 0 0 0 12 2 0 0 0 12.4323197
1873 4 11.3199997 -18.8999996 -8.5799999 0 0 0 0 12 0 0 0 0 11.7147618
1880 5 5.0760002 -17.9300004 20.2900009 0 0 0 1 10 2 0 0 0 12.2054653
1890 4 -12.9799996 -19.1299992 8.257 0 0 0 2 8 4 0 0 0 12.1560431
1893 2 8.559 -9.8940002 1.068 0 0 0 0 12 0 0 0 0 11.6611367
1911 4 14.29 -13.3199997 5.6129999 0 0 1 2 7 5 0 0 0 12.7628403
1921 4 13.2799997 17.0100002 4.3930001 0 0 0 2 10 1 0 0 0 11.930442
1925 2 11.3199997 -19.4200001 -15.2799997 0 0 0 1 10 2 0 0 0 13.0174294
1926 4 -2.934 9.5500002 -8.6210003 0 0 0 2 10 1 0 0 0 12.0758238
1928 4 -1.942 7.5830002 1.4680001 0 0 1 2 9 3 0 0 0 13.468133
1934 4 -3.5079999 18.3899994 -6.4050002 0 0 0 0 12 2 0 0 0 12.6885767
1935 4 4.8200002 -0.5715 5.856 0 0 0 0 12 0 0 0 0 11.5967798
1938 4 -5.5500002 -1.54 -8.783 0 0 0 4 6 3 0 0 0 12.2646799
1943 5 -6.8460002 21.2000008 -17.7700005 0 0 0 2 10 1 0 0 0 12.343998
1947 5 -6.5209999 3.165 17.4099999 0 0 0 2 8 5 0 0 0 12.6644087
1948 4 -5.4590001 -2.876 -11.25 0 0 0 0 12 4 0 0 0 12.8490802
1954 5 -11.3500004 -8.7049999 14.6899996 0 0 0 1 10 2 0 0 0 11.9554462
1979 5 21.7099991 -9.5699997 8.422 0 0 0 0 12 3 0 0 0 12.7537937
1984 5 17.2399998 -21.7900009 1.247 0 0 0 1 10 4 0 0 0 12.4429245
1986 4 -5.1700001 12.04 12.8000002 0 0 0 1 10 2 0 0 0 11.953619
1993 5 -12.8000002 -5.737 -15.9399996 0 0 0 2 8 4 0 0 0 13.0785265
1996 4 -5.0630002 16.1900005 6.8470002 0 0 0 1 10 4 0 0 0 12.0832224
1998 2 -1.876 5.4400001 7.9390002 0 0 2 2 5 4 1 0 0 12.0579844
2001 4 7.7030001 -4.3990002 5.5040002 0 0 0 2 8 6 0 0 0 12.8037529
2006 5 -13.4399996 -8.4779997 -21.5599995 0 0 0 1 10 2 0 0 0 11.5975189
2009 4 -14.1599999 -16.8199997 -1.23 0 0 0 1 10 3 0 0 0 12.866704
2020 2 12.5600004 -2.4949999 4.0819998 0 0 0 2 8 3 0 0 0 12.1058769
2022 5 14.8400002 -11.9399996 19.2700005 0 0 0 0 12 2 0 0 0 12.3153782
2027 4 -5.131 -2.918 14.1099997 0 0 0 3 8 4 2 0 0 12.638999
2028 2 -8.927 8.0380001 1.323 0 0 2 0 10 3 0 0 0 12.4497452
2050 2 -18.6900006 -18.2099991 -14.8500004 0 0 1 0 9 3 0 0 0 11.3462944
2055 4 6.7480002 -2.5650001 -10.3800001 0 0 0 1 10 4 0 0 0 13.2940159
2056 5 16.4400006 12.1999998 9.7360001 0 0 0 1 9 2 1 0 0 12.6135721
2062 2 8.6859999 16.6700001 -15.4300003 0 0 0 3 6 4 0 0 0 11.3480568
2070 2 -12.2399998 -20.7700005 -14.79 0 0 0 0 12 0 0 0 0 10.9989424
2073 4 -5.8150001 -13.4300003 -19.5799999 0 0 1 3 5 5 0 0 0 11.6765967
2082 2 17.2000008 16.4099999 11.6899996 0 0 0 1 10 2 0 0 0 11.7650633
2083 4 -4.988 -18.0499992 -13.9700004 0 0 0 1 10 2 0 0 0 11.4757786
2087 5 -13.5600004 -8.0369997 -7.1830001 0 0 0 0 12 0 0 0 0 10.4993134
2089 1 16.9599992 -13.25 -18.5499993 0 0 0 4 6 2 0 0 0 11.4473562
2093 5 -5.7199998 -12.8800002 11.6899996 0 0 0 0 10 2 0 0 0 11.530983
2095 4 -2.714 -8.0469999 -20.3799992 0 0 0 1 10 2 0 0 0 11.6214648
2106 2 22.4099999 -5.1599999 7.4920001 0 0 0 5 4 3 0 0 0 12.0530949
2112 4 21.9699994 -2.549 10.0699997 0 0 0 1 10 2 0 0 0 12.2506104
2143 2 5.231 4.164 16.9699994 0 0 2 2 7 3 1 1 0 12.4850998
2145 1 19.9400006 -21.0400009 -20.25 0 0 0 1 10 2 0 0 0 11.4907627
2154 4 17.1299992 14.7200003 -1.5520001 0 0 1 2 7 3 0 0 0 12.3745785
2160 2 11.2600002 10.2299996 2.592 0 0 1 3 5 4 0 0 0 11.5974837
2167 5 16.8500004 14.79 9.4569998 0 0 1 0 10 3 1 0 0 13.8650924
2176 5 7.809 14.2600002 0.8836 0 0 0 6 4 3 0 0 0 11.946107
2178 4 -14.2399998 -18.5400009 -5.4250002 0 0 0 2 8 4 0 0 0 12.7058468
2181 4 -10.2399998 9.6689997 16.2800007 0 0 0 2 9 4 0 0 0 13.3224163
2185 2 -18.4799996 -20.7099991 -7.3439999 0 0 0 1 10 2 0 0 0 12.4160366
2187 2 -4.3569999 11.1899996 18.3799992 0 0 1 2 6 3 1 0 0 11.1994371
2197 2 19.5799999 17.5300007 5.8249998 0 0 0 3 6 2 0 0 0 10.8895522
2207 5 11.8800002 -8.1289997 -7.927 0 0 1 4 5 4 0 0 0 13.1755829
2212 4 -12.6199999 -3.491 -17.0100002 0 0 0 2 8 4 0 0 0 12.1080084
2222 2 1.2230001 -21.9500008 3.029 0 0 0 2 8 3 0 0 0 11.7648525
2241 4 2.993 -4.145 0.7475 0 0 1 2 7 4 2 0 0 13.2236891
2274 1 -9.4750004 -17.5499993 0.7471 0 0 0 2 8 2 0 0 0 10.983696
2290 4 -6.9260002 -18.3199997 13.0600004 0 0 0 3 6 5 0 0 0 12.4761019
2295 1 5.244 -0.09897 18.0 0 0 0 0 12 0 0 0 0 11.6513005
2306 4 22.0100002 9.1809998 4.7430001 0 0 0 1 10 2 0 0 0 12.3618527
2309 5 -7.586 -20.7999993 -6.7709999 0 0 0 3 6 6 0 0 0 12.1483021
2315 4 15.0299997 0.7909 -21.4200001 0 0 0 3 8 2 0 0 0 11.9694118
2324 1 10.5500002 -9.073 10.3199997 0 0 0 4 4 5 0 0 0 12.5878334
2334 5 -1.5290001 10.4399996 15.2600002 0 0 0 4 4 7 0 0 0 13.0248003
2341 4 20.6299992 9.1789999 -10.1700001 0 0 0 2 8 4 0 0 0 12.1348333
2342 3 0.3869 8.316 -16.0400009 0 0 0 2 8 4 0 0 0 12.8525314
2356 3 17.6499996 -1.5720001 -10.0 0 0 0 2 10 3 0 0 0 12.7079554
2376 5 23.4099999 11.1000004 -18.7299996 0 0 0 3 6 5 0 0 0 12.4680834
2377 4 2.8069999 -18.7800007 21.3500004 0 0 0 0 12 0 0 0 0 10.853387
2388 4 -6.0219998 8.823 -1.7560001 0 0 0 4 5 5 1 0 0 12.4109402
2389 2 -18.0599995 -15.0900002 -17.8600006 0 0 0 0 12 0 0 0 0 11.922845
2400 2 -14.6999998 0.7537 21.0100002 0 0 0 4 8 0 0 0 0 11.5973206
2411 4 14.5799999 -17.4599991 -2.7000001 0 0 0 1 10 2 0 0 0 12.2368193
2414 1 0.6559 9.073 15.4799996 0 0 0 4 4 6 0 0 0 12.9700128
2428 4 -7.671 15.3199997 13.5299998 0 0 0 2 10 3 0 0 0 12.9686004
2437 2 -12.5500002 11.0900002 20.1599999 0 0 0 0 12 0 0 0 0 10.989769
2438 1 8.1140003 -9.0830002 -1.175 0 0 0 0 12 0 0 0 0 10.7004948
2440 4 9.2110005 -11.3199997 -0.9153 0 0 0 2 8 4 0 0 0 12.4223461
2465 5 -4.4980002 -8.87 6.7579999 0 0 0 2 10 2 0 0 0 11.94407
2476 1 8.5050001 -21.0400009 19.3299999 0 0 0 2 8 2 0 0 0 11.5952492
2480 4 12.4499998 12.3999996 -20.3299999 0 0 1 2 9 4 0 0 0 13.304904
2502 4 -7.8909998 -8.7229996 -2.937 0 0 0 2 8 2 0 0 0 11.1141052
2504 2 -10.9899998 -7.5 -14.9099998 0 0 0 0 12 0 0 0 0 12.0169106
2509 4 -10.04 19.5599995 -20.3500004 0 0 0 2 10 3 0 0 0 13.2763968
2510 4 21.9300004 -0.1672 6.7389999 0 0 0 2 8 5 0 0 0 13.2255459
2511 5 -7.289 7.3369999 -3.582 0 0 0 2 8 4 0 0 0 11.7748556
2519 4 5.6220002 -7.6929999 17.3199997 0 0 0 1 10 3 0 0 0 11.5532789
2520 4 0.2589 -17.5300007 -6.1370001 0 0 0 2 10 2 0 0 0 12.7764559
2521 2 4.803 6.7150002 13.5200005 0 0 0 1 10 2 0 0 0 11.8854456
2526 2 -6.5040002 18.0 18.3799992 0 0 0 3 8 2 0 0 0 11.6378956
2534 5 -7.5720001 9.8649998 -17.8199997 0 0 0 3 6 4 0 0 0 12.3205595
2535 5 -7.526 -3.5899999 3.8740002 0 0 1 3 7 5 0 0 0 13.3925467
2577 3 -2.5799999 -1.479 10.5200005 0 0 0 0 12 3 0 0 0 12.8671284
2582 2 2.3110001 15.8900004 -12.0699997 0 0 1 1 9 4 0 0 0 12.2704582
2587 4 23.2900009 16.7299996 9.3179999 0 0 0 1 10 4 0 0 0 13.1274529
2588 2 21.3299999 13.5900002 -10.3699999 0 0 1 2 7 4 0 0 0 10.957036
2590 4 -7.4200001 13.0200005 11.8400002 0 0 0 0 12 3 0 0 0 13.1189022
2594 2 3.31 4.7420001 -17.3199997 0 0 0 3 6 3 0 0 0 11.9681502
2600 1 11.9300004 19.2000008 10.3900004 0 0 0 3 6 4 0 0 0 11.5778446
2608 5 1.235 -8.9560004 9.7729998 0 0 1 3 5 5 0 0 0 11.6725083
2613 5 -12.9099998 -9.7440005 20.7700005 0 0 0 0 12 3 0 0 0 13.0670376
2615 2 4.9910002 -19.5900002 6.513 0 0 0 3 6 3 0 0 0 11.3206139
2648 2 1.107 -3.895 -14.2700005 0 0 0 3 6 4 0 0 0 11.4103794
2651 4 10.8599998 -19.6100006 9.9569998 0 0 0 0 12 2 0 0 0 12.6865645
2659 4 15.6499996 -2.7320001 -8.5939999 0 0 0 2 10 1 0 0 0 11.9193564
2672 2 -11.3100004 -12.8100004 11.6999998 0 0 0 3 10 1 0 0 0 12.6709185
2677 4 20.9899998 19.3199997 6.2979999 0 0 0 1 10 2 0 0 0 11.8076277
2680 4 14.9700004 -6.461 18.4200001 0 0 0 2 8 4 0 0 0 12.7351141
2706 4 13.4499998 4.6440001 -12.7399998 0 0 0 1 10 3 0 0 0 12.4360686
2715 4 4.5019999 -3.988 18.2099991 0 0 0 3 8 3 0 0 0 11.8211966
2719 4 0.1706 -6.5489998 -11.4600001 0 0 0 1 10 2 0 0 0 12.5563212
2723 4 21.6299992 10.4700003 2.7790001 0 0 0 0 12 4 0 0 0 13.4544182
2741 5 12.8800002 14.0100002 1.581 0 0 0 2 10 0 0 0 0 10.9447862
2771 5 5.3280001 -16.8600006 9.9779998 0 0 0 4 6 3 0 0 0 11.6851015
2773 2 7.204 -17.0 -15.4099999 0 0 0 0 10 2 0 0 0 11.7904692
2784 5 -4.5079999 -18.3899994 1.967 0 0 1 1 9 3 0 0 0 11.7886725
2803 5 -10.6899996 -12.9200002 -8.1210003 0 0 0 2 8 4 0 0 0 12.5996495
2805 4 13.8999996 12.1800003 -2.7909999 0 0 0 1 10 4 0 0 0 13.1896715
2813 4 -9.0979996 -4.8260002 -10.6899996 0 0 0 2 8 4 0 0 0 12.6210499
2823 4 -1.462 -19.7299996 20.5200005 0 0 0 0 12 2 0 0 0 12.87883
2840 2 -4.881 20.6599999 3.925 0 0 0 3 8 1 0 0 0 11.2541504
2848 4 -5.132 -6.2319999 6.467 0 0 0 4 4 4 2 0 0 12.5853653
2850 4 -4.2449999 5.7189999 11.1599999 0 0 0 0 12 0 0 0 0 11.3609934
2860 1 2.5720001 0.5199 -18.7199993 0 0 0 2 10 1 0 0 0 11.9268408
2862 3 16.3500004 -20.0900002 -10.8000002 0 0 0 1 10 4 0 0 0 12.7469368
2864 4 -3.965 19.3500004 21.0599995 0 0 0 1 10 2 0 0 0 12.6773548
2871 5 -8.9870006 15.87 -12.8999996 0 0 0 2 8 5 0 0 0 12.2453852
2878 2 -0.06154 -5.211 8.7950001 0 0 0 0 12 0 0 0 0 11.2577114
2900 4 2.1630001 6.1760001 -21.1700001 0 0 0 2 8 3 0 0 0 11.5954705
2911 4 2.4230001 20.5599995 -12.4600001 0 0 0 0 12 2 0 0 0 11.7961245
2921 5 19.0599995 -14.1999998 3.929 0 0 0 1 10 3 0 0 0 12.5540667
2929 4 -15.6300001 -11.4899998 -12.8599998 0 0 0 1 10 2 0 0 0 12.3809939
2942 4 -6.2290001 -16.2399998 14.4700003 0 0 0 1 10 4 0 0 0 13.1700478
2945 4 26.0300007 16.3899994 16.1800003 0 0 1 2 8 3 1 0 0 12.478365
2961 4 0.1596 -8.9729996 -10.0600004 0 0 0 2 8 3 2 0 0 13.1507912
2994 4 -6.1929998 -7.6700001 -1.589 0 0 1 2 9 2 0 0 0 12.088913
2995 2 6.3909998 -0.7484 15.7399998 0 0 0 2 8 4 0 0 0 12.2092352
2997 2 -17.3600006 -5.6230002 -20.4500008 0 0 0 3 6 3 0 0 0 12.2728777
3019 4 19.7399998 17.2199993 -8.8290005 0 0 0 1 10 5 0 0 0 13.3928442
3020 5 15.8100004 6.8260002 -19.3400002 0 0 0 3 9 2 1 0 0 12.0593329
3021 5 -5.0910001 -8.0059996 0.6653 0 0 1 0 9 3 0 0 0 11.7613583
3024 5 -2.4700001 10.0799999 -21.5699997 0 0 0 2 8 3 0 0 0 12.2649775
3048 4 3.5109999 12.54 14.6099997 0 0 0 0 12 3 0 0 0 13.2170181
3056 4 11.5699997 -14.7200003 -7.9770002 0 0 1 0 9 3 0 0 0 12.3675652
3064 2 14.8999996 -13.8999996 -19.9200002 0 0 0 3 6 5 0 0 0 11.5133019
3070 4 13.3599997 5.468 14.4899998 0 0 0 2 10 3 0 0 0 11.9209834
3072 4 -13.9200002 -3.3110001 -19.0200005 0 0 0 0 12 0 0 0 0 11.1686544
3083 4 -13.9899998 -10.4300003 -7.2839999 0 0 0 2 8 5 0 0 0 12.3130131
3101 5 20.1299992 1.634 -6.1989999 0 0 1 3 5 4 0 0 0 11.8085413
3110 2 6.6209998 18.1499996 1.6870001 0 0 0 2 8 4 0 0 0 12.2038784
3119 5 14.0 11.9499998 13.8500004 0 0 0 0 12 2 0 0 0 12.2656202
3126 2 -15.2700005 -0.9891 17.6200009 0 0 1 2 7 2 0 0 0 10.8175774
3129 2 2.615 16.8600006 -7.5840001 0 0 0 0 12 0 0 0 0 11.4683514
3137 2 3.3959999 -1.694 -19.2900009 0 0 0 3 10 0 0 0 0 11.8326044
3142 2 -8.7779999 14.4099999 -16.8700008 0 0 0 0 12 0 0 0 0 11.112752
3145 2 -5.9660002 -20.2900009 -8.96 0 0 0 1 9 2 1 0 0 11.8068466
3160 2 20.3400002 -13.5200005 13.4099999 0 0 0 0 12 0 0 0 0 11.3767967
3164 2 16.0699997 -15.1800003 0.2413 0 0 0 0 12 0 0 0 0 10.9880524
3169 5 -2.3280001 19.2600002 7.848 0 0 2 2 6 6 0 0 0 13.2135983
3174 4 -4.9190002 -2.74 18.2399998 0 0 0 2 10 2 0 0 0 11.8294201
3190 2 1.103 15.5799999 9.3409996 0 0 0 4 4 6 0 0 0 12.2207174
3193 2 16.6700001 2.8180001 8.7620001 0 0 0 2 8 3 0 0 0 12.3206005
3219 4 -4.2560001 8.9750004 19.3600006 0 0 1 0 9 3 0 0 0 11.8515006
3223 4 16.9599992 -14.9099998 -20.5400009 0 0 1 3 4 5 1 0 0 12.7384997
3231 5 13.0500002 19.6700001 3.421 0 0 0 1 10 4 0 0 0 12.7344666
3238 5 0.9488 -19.9300004 19.2999992 0 0 0 1 10 4 0 0 0 13.0327921
3242 2 -2.8280001 2.372 13.2700005 0 0 0 3 6 5 0 0 0 11.8810616
3253 5 8.3660002 5.8330002 10.6300001 0 0 0 1 10 3 0 0 0 12.2325754
3257 4 0.2223 -14.87 -21.2299996 0 0 1 2 9 1 0 0 0 11.5926972
3274 2 -1.232 17.5100003 16.8899994 0 0 0 1 10 3 0 0 0 12.2832937
3278 4 15.3999996 -7.3800001 -18.5200005 0 0 0 2 8 4 0 0 0 12.1346569
3282 5 6.5170002 16.3299999 20.5599995 0 0 0 2 8 5 0 0 0 13.1398087
3298 5 -5.546 1.966 9.2089996 0 0 0 1 10 4 0 0 0 13.2187567
3303 5 -7.1430001 -6.2680001 15.2700005 0 0 0 2 8 2 0 0 0 11.2623272
3313 2 -2.74 -6.7540002 5.9959998 0 0 1 1 8 1 1 0 0 11.4012051
3317 5 14.2200003 5.2220001 1.15 0 0 0 0 12 0 0 0 0 11.6862984
3323 5 12.79 15.2399998 -16.1700001 0 0 0 1 10 2 0 0 0 11.9495622
3338 5 -0.2029 -3.741 -19.3099995 0 0 1 0 9 3 0 0 0 12.1544676
3351 1 -9.3500004 18.9300004 10.7399998 0 0 0 0 12 0 0 0 0 11.5282583
3355 5 -12.9899998 17.6499996 -8.4300003 0 0 0 3 8 3 0 0 0 13.7118111
3361 5 -10.9300004 10.1599999 12.2600002 0 0 0 3 6 5 0 0 0 11.7697487
3366 1 6.322 20.6800003 -20.1000004 0 0 0 3 8 2 0 0 0 11.8799172
3370 4 8.6420002 1.861 6.1589999 0 0 0 4 4 7 0 0 0 12.3505154
3383 4 -12.4099999 2.118 7.3920002 0 0 0 1 10 2 0 0 0 11.6927471
3386 2 -15.0 -2.017 9.1210003 0 0 0 0 12 0 0 0 0 11.0468988
3387 5 -5.5380001 -5.5560003 -17.2299996 0 0 0 2 8 2 0 0 0 11.7788582
3390 4 13.9799996 16.0599995 15.4499998 0 0 0 3 10 1 0 0 0 12.1703472
3403 5 -14.6400004 2.6919999 -18.1800003 0 0 0 3 6 4 0 0 0 12.2605391
3432 4 5.3039999 0.9305 -18.1900005 0 0 1 2 7 3 2 0 0 12.829361
3434 2 -9.8669996 0.8738 0.5891 0 0 1 2 7 3 0 0 0 11.3095656
3439 5 10.5200005 -9.1199999 -0.5833 0 0 0 2 8 4 0 0 0 12.8113041
3449 4 1.421 9.5830002 20.2600002 0 0 0 3 6 6 0 0 0 11.9986744
3451 1 0.3799 -13.3299999 -6.9650002 0 0 2 0 9 0 3 0 0 12.6157656
3454 2 -8.0209999 18.4500008 -21.3700009 0 0 0 1 10 2 0 0 0 11.831048
3457 4 -3.2620001 17.9500008 -10.8199997 0 0 0 2 10 2 0 0 0 12.4040461
3468 2 23.4200001 15.7100001 -7.4369998 0 0 0 0 12 0 0 0 0 11.1594515
3469 5 -3.949 18.2000008 -22.0100002 0 0 0 0 12 0 0 0 0 11.2182512