ITEM: TIMESTEP
0
ITEM: NUMBER OF ATOMS
16384
ITEM: BOX BOUNDS pp pp pp
0.0000000000000000e+00 5.4771585903343698e+01
0.0000000000000000e+00 5.4771585903343698e+01
0.0000000000000000e+00 5.4771585903343698e+01
ITEM: ATOMS id type x y z
1 4 0 0 0
2 4 1.7252 1.7252 0
8193 2 0 0 0
8194 2 1.7252 1.7252 0
8195 2 1.7252 0 1.7252
8196 2 0 1.7252 1.7252
3 4 5.17559 1.7252 0
4 4 5.17559 0 1.7252
5 4 3.45039 1.7252 1.7252
8197 2 5.17559 0 1.7252
6 4 8.62598 0 1.7252
7 4 6.90079 1.7252 1.7252
8198 2 6.90079 0 0
8199 2 8.62598 1.7252 0
8 4 12.0764 1.7252 0
9 4 12.0764 0 1.7252
10 4 10.3512 1.7252 1.7252
8200 2 12.0764 1.7252 0
11 4 13.8016 0 0
12 4 13.8016 1.7252 1.7252
8201 2 15.5268 0 1.7252
8202 2 18.9772 0 1.7252
8203 2 17.252 1.7252 1.7252
13 4 20.7024 0 0
8204 2 20.7024 0 0
8205 2 22.4276 1.7252 0
8206 2 20.7024 1.7252 1.7252
14 4 24.1528 0 0
15 4 25.878 0 1.7252
16 4 24.1528 1.7252 1.7252
8207 2 24.1528 0 0
8208 2 25.878 0 1.7252
17 4 27.6031 0 0
18 4 29.3283 1.7252 0
19 4 29.3283 0 1.7252
8209 2 29.3283 1.7252 0
20 4 32.7787 1.7252 0
21 4 32.7787 0 1.7252
8210 2 32.7787 1.7252 0
8211 2 32.7787 0 1.7252
8212 2 31.0535 1.7252 1.7252
22 4 36.2291 1.7252 0
8213 2 34.5039 0 0
8214 2 36.2291 0 1.7252
8215 2 34.5039 1.7252 1.7252
23 4 37.9543 0 0
24 4 39.6795 1.7252 0
8216 2 39.6795 1.7252 0
8217 2 37.9543 1.7252 1.7252
25 4 43.1299 1.7252 0
8218 2 41.4047 0 0
8219 2 43.1299 1.7252 0
8220 2 41.4047 1.7252 1.7252
26 4 46.5803 1.7252 0
8221 2 44.8551 0 0
8222 2 46.5803 0 1.7252
8223 2 44.8551 1.7252 1.7252
27 4 48.3055 0 0
28 4 50.0307 0 1.7252
29 4 48.3055 1.7252 1.7252
8224 2 50.0307 0 1.7252
30 4 51.7559 0 0
31 4 53.4811 1.7252 0
8225 2 51.7559 0 0
32 4 1.7252 3.45039 1.7252
33 4 0 5.17559 1.7252
8226 2 0 3.45039 0
8227 2 1.7252 5.17559 0
34 4 5.17559 3.45039 1.7252
35 4 3.45039 5.17559 1.7252
8228 2 5.17559 3.45039 1.7252
36 4 6.90079 3.45039 0
37 4 8.62598 5.17559 0
38 4 8.62598 3.45039 1.7252
39 4 6.90079 5.17559 1.7252
8229 2 6.90079 3.45039 0
8230 2 8.62598 5.17559 0
40 4 12.0764 5.17559 0
41 4 12.0764 3.45039 1.7252
42 4 10.3512 5.17559 1.7252
43 4 13.8016 3.45039 0
44 4 15.5268 5.17559 0
45 4 13.8016 5.17559 1.7252
8231 2 13.8016 3.45039 0
8232 2 15.5268 3.45039 1.7252
46 4 18.9772 3.45039 1.7252
47 4 17.252 5.17559 1.7252
8233 2 18.9772 5.17559 0
48 4 20.7024 3.45039 0
49 4 22.4276 5.17559 0
50 4 22.4276 3.45039 1.7252
51 4 20.7024 5.17559 1.7252
8234 2 22.4276 5.17559 0
8235 2 22.4276 3.45039 1.7252
52 4 24.1528 5.17559 1.7252
8236 2 24.1528 3.45039 0
8237 2 24.1528 5.17559 1.7252
53 4 27.6031 3.45039 0
54 4 29.3283 5.17559 0
55 4 29.3283 3.45039 1.7252
56 4 27.6031 5.17559 1.7252
8238 2 27.6031 3.45039 0
8239 2 29.3283 5.17559 0
57 4 31.0535 3.45039 0
58 4 32.7787 5.17559 0
59 4 31.0535 5.17559 1.7252
8240 2 32.7787 3.45039 1.7252
8241 2 31.0535 5.17559 1.7252
60 4 36.2291 3.45039 1.7252
61 4 34.5039 5.17559 1.7252
8242 2 36.2291 3.45039 1.7252
62 4 39.6795 3.45039 1.7252
8243 2 37.9543 3.45039 0
8244 2 39.6795 5.17559 0
63 4 41.4047 3.45039 0
64 4 43.1299 5.17559 0
65 4 43.1299 3.45039 1.7252
8245 2 41.4047 3.45039 0
8246 2 43.1299 3.45039 1.7252
66 4 46.5803 5.17559 0
67 4 46.5803 3.45039 1.7252
8247 2 44.8551 3.45039 0
8248 2 46.5803 5.17559 0
8249 2 46.5803 3.45039 1.7252
8250 2 44.8551 5.17559 1.7252
68 4 48.3055 3.45039 0
69 4 50.0307 5.17559 0
8251 2 48.3055 3.45039 0
70 4 51.7559 3.45039 0
71 4 53.4811 5.17559 0
72 4 51.7559 5.17559 1.7252
8252 2 51.7559 3.45039 0
8253 2 53.4811 5.17559 0
8254 2 53.4811 3.45039 1.7252
8255 2 51.7559 5.17559 1.7252
73 4 1.7252 6.90079 1.7252
8256 2 1.7252 6.90079 1.7252
8257 2 0 8.62598 1.7252
74 4 5.17559 6.90079 1.7252
75 4 3.45039 8.62598 1.7252
8258 2 3.45039 6.90079 0
8259 2 5.17559 8.62598 0
8260 2 6.90079 6.90079 0
8261 2 8.62598 6.90079 1.7252
8262 2 6.90079 8.62598 1.7252
76 4 10.3512 6.90079 0
77 4 12.0764 6.90079 1.7252
8263 2 10.3512 6.90079 0
8264 2 10.3512 8.62598 1.7252
78 4 15.5268 6.90079 1.7252
8265 2 13.8016 6.90079 0
8266 2 15.5268 8.62598 0
8267 2 15.5268 6.90079 1.7252
79 4 18.9772 8.62598 0
80 4 18.9772 6.90079 1.7252
8268 2 17.252 6.90079 0
8269 2 18.9772 8.62598 0
8270 2 18.9772 6.90079 1.7252
81 4 20.7024 6.90079 0
82 4 22.4276 6.90079 1.7252
8271 2 22.4276 8.62598 0
8272 2 20.7024 8.62598 1.7252
83 4 24.1528 8.62598 1.7252
8273 2 24.1528 8.62598 1.7252
84 4 29.3283 6.90079 1.7252
8274 2 27.6031 6.90079 0
8275 2 29.3283 8.62598 0
8276 2 27.6031 8.62598 1.7252
85 4 32.7787 8.62598 0
86 4 31.0535 8.62598 1.7252
8277 2 31.0535 6.90079 0
8278 2 32.7787 8.62598 0
8279 2 32.7787 6.90079 1.7252
8280 2 31.0535 8.62598 1.7252
87 4 36.2291 6.90079 1.7252
88 4 34.5039 8.62598 1.7252
8281 2 34.5039 6.90079 0
8282 2 36.2291 8.62598 0
8283 2 36.2291 6.90079 1.7252
89 4 39.6795 6.90079 1.7252
90 4 37.9543 8.62598 1.7252
8284 2 39.6795 8.62598 0
91 4 43.1299 8.62598 0
92 4 41.4047 8.62598 1.7252
8285 2 41.4047 6.90079 0
93 4 44.8551 8.62598 1.7252
8286 2 46.5803 8.62598 0
8287 2 46.5803 6.90079 1.7252
8288 2 44.8551 8.62598 1.7252
94 4 48.3055 6.90079 0
8289 2 48.3055 6.90079 0
8290 2 50.0307 8.62598 0
8291 2 48.3055 8.62598 1.7252
95 4 51.7559 6.90079 0
96 4 53.4811 8.62598 0
97 4 51.7559 8.62598 1.7252
8292 2 51.7559 6.90079 0
8293 2 53.4811 8.62598 0
8294 2 51.7559 8.62598 1.7252
98 4 1.7252 12.0764 0
99 4 1.7252 10.3512 1.7252
100 4 0 12.0764 1.7252
8295 2 0 10.3512 0
101 4 3.45039 10.3512 0
102 4 5.17559 12.0764 0
103 4 5.17559 10.3512 1.7252
8296 2 3.45039 10.3512 0
8297 2 5.17559 12.0764 0
8298 2 5.17559 10.3512 1.7252
104 4 6.90079 10.3512 0
105 4 8.62598 10.3512 1.7252
8299 2 6.90079 10.3512 0
8300 2 8.62598 12.0764 0
106 4 12.0764 12.0764 0
107 4 12.0764 10.3512 1.7252
8301 2 10.3512 10.3512 0
8302 2 12.0764 12.0764 0
8303 2 10.3512 12.0764 1.7252
8304 2 15.5268 12.0764 0
8305 2 15.5268 10.3512 1.7252
108 4 17.252 10.3512 0
109 4 18.9772 12.0764 0
110 4 18.9772 10.3512 1.7252
8306 2 18.9772 12.0764 0
111 4 20.7024 10.3512 0
112 4 22.4276 10.3512 1.7252
113 4 20.7024 12.0764 1.7252
8307 2 22.4276 12.0764 0
8308 2 20.7024 12.0764 1.7252
114 4 24.1528 10.3512 0
115 4 25.878 12.0764 0
116 4 25.878 10.3512 1.7252
117 4 24.1528 12.0764 1.7252
8309 2 24.1528 10.3512 0
8310 2 25.878 10.3512 1.7252
8311 2 24.1528 12.0764 1.7252
118 4 27.6031 12.0764 1.7252
8312 2 27.6031 10.3512 0
8313 2 29.3283 12.0764 0
119 4 31.0535 10.3512 0
120 4 32.7787 12.0764 0
121 4 32.7787 10.3512 1.7252
122 4 31.0535 12.0764 1.7252
8314 2 31.0535 10.3512 0
8315 2 32.7787 10.3512 1.7252
123 4 34.5039 10.3512 0
124 4 36.2291 10.3512 1.7252
8316 2 34.5039 10.3512 0
8317 2 37.9543 10.3512 0
8318 2 37.9543 12.0764 1.7252
125 4 43.1299 12.0764 0
126 4 43.1299 10.3512 1.7252
127 4 41.4047 12.0764 1.7252
128 4 44.8551 10.3512 0
129 4 46.5803 10.3512 1.7252
8319 2 46.5803 10.3512 1.7252
8320 2 44.8551 12.0764 1.7252
130 4 48.3055 10.3512 0
8321 2 48.3055 10.3512 0
8322 2 48.3055 12.0764 1.7252
131 4 53.4811 12.0764 0
8323 2 51.7559 10.3512 0
8324 2 53.4811 12.0764 0
8325 2 51.7559 12.0764 1.7252
132 4 1.7252 15.5268 0
8326 2 1.7252 15.5268 0
8327 2 1.7252 13.8016 1.7252
8328 2 0 15.5268 1.7252
133 4 5.17559 15.5268 0
8329 2 3.45039 13.8016 0
8330 2 5.17559 15.5268 0
8331 2 5.17559 13.8016 1.7252
8332 2 3.45039 15.5268 1.7252
134 4 8.62598 13.8016 1.7252
8333 2 6.90079 13.8016 0
8334 2 8.62598 15.5268 0
8335 2 6.90079 15.5268 1.7252
135 4 10.3512 15.5268 1.7252
8336 2 12.0764 15.5268 0
136 4 13.8016 15.5268 1.7252
8337 2 15.5268 15.5268 0
8338 2 15.5268 13.8016 1.7252
8339 2 13.8016 15.5268 1.7252
137 4 17.252 13.8016 0
138 4 18.9772 15.5268 0
8340 2 17.252 13.8016 0
8341 2 18.9772 13.8016 1.7252
8342 2 17.252 15.5268 1.7252
139 4 20.7024 13.8016 0
140 4 22.4276 15.5268 0
8343 2 22.4276 15.5268 0
8344 2 22.4276 13.8016 1.7252
8345 2 20.7024 15.5268 1.7252
141 4 25.878 15.5268 0
142 4 24.1528 15.5268 1.7252
8346 2 24.1528 15.5268 1.7252
143 4 29.3283 13.8016 1.7252
144 4 27.6031 15.5268 1.7252
8347 2 29.3283 15.5268 0
8348 2 27.6031 15.5268 1.7252
145 4 32.7787 15.5268 0
146 4 32.7787 13.8016 1.7252
147 4 31.0535 15.5268 1.7252
8349 2 32.7787 13.8016 1.7252
8350 2 31.0535 15.5268 1.7252
148 4 34.5039 13.8016 0
149 4 36.2291 15.5268 0
150 4 34.5039 15.5268 1.7252
8351 2 36.2291 15.5268 0
8352 2 34.5039 15.5268 1.7252
151 4 39.6795 15.5268 0
8353 2 37.9543 13.8016 0
8354 2 39.6795 13.8016 1.7252
8355 2 37.9543 15.5268 1.7252
152 4 41.4047 13.8016 0
153 4 43.1299 15.5268 0
154 4 41.4047 15.5268 1.7252
8356 2 41.4047 13.8016 0
8357 2 43.1299 13.8016 1.7252
8358 2 41.4047 15.5268 1.7252
155 4 44.8551 13.8016 0
156 4 46.5803 13.8016 1.7252
157 4 44.8551 15.5268 1.7252
8359 2 46.5803 13.8016 1.7252
8360 2 44.8551 15.5268 1.7252
158 4 48.3055 13.8016 0
8361 2 50.0307 15.5268 0
159 4 51.7559 15.5268 1.7252
8362 2 51.7559 13.8016 0
8363 2 53.4811 15.5268 0
8364 2 53.4811 13.8016 1.7252
8365 2 51.7559 15.5268 1.7252
160 4 0 17.252 0
161 4 1.7252 18.9772 0
162 4 1.7252 17.252 1.7252
163 4 0 18.9772 1.7252
8366 2 0 17.252 0
8367 2 1.7252 18.9772 0
8368 2 1.7252 17.252 1.7252
8369 2 0 18.9772 1.7252
164 4 3.45039 17.252 0
165 4 5.17559 17.252 1.7252
8370 2 3.45039 17.252 0
8371 2 5.17559 18.9772 0
8372 2 5.17559 17.252 1.7252
8373 2 3.45039 18.9772 1.7252
166 4 8.62598 18.9772 0
167 4 8.62598 17.252 1.7252
168 4 6.90079 18.9772 1.7252
8374 2 6.90079 17.252 0
8375 2 8.62598 18.9772 0
169 4 12.0764 17.252 1.7252
170 4 10.3512 18.9772 1.7252
8376 2 12.0764 18.9772 0
8377 2 12.0764 17.252 1.7252
171 4 13.8016 17.252 0
172 4 15.5268 18.9772 0
173 4 15.5268 17.252 1.7252
174 4 13.8016 18.9772 1.7252
8378 2 13.8016 17.252 0
8379 2 15.5268 18.9772 0
8380 2 15.5268 17.252 1.7252
8381 2 13.8016 18.9772 1.7252
175 4 17.252 17.252 0
176 4 17.252 18.9772 1.7252
8382 2 18.9772 18.9772 0
8383 2 18.9772 17.252 1.7252
177 4 20.7024 17.252 0
178 4 22.4276 18.9772 0
8384 2 22.4276 18.9772 0
8385 2 22.4276 17.252 1.7252
179 4 25.878 18.9772 0
8386 2 24.1528 17.252 0
8387 2 25.878 18.9772 0
8388 2 27.6031 18.9772 1.7252
180 4 31.0535 17.252 0
181 4 32.7787 18.9772 0
182 4 31.0535 18.9772 1.7252
8389 2 32.7787 18.9772 0
8390 2 32.7787 17.252 1.7252
183 4 34.5039 17.252 0
8391 2 34.5039 17.252 0
8392 2 36.2291 18.9772 0
8393 2 36.2291 17.252 1.7252
184 4 37.9543 17.252 0
185 4 37.9543 18.9772 1.7252
8394 2 37.9543 18.9772 1.7252
186 4 43.1299 17.252 1.7252
8395 2 41.4047 17.252 0
8396 2 43.1299 17.252 1.7252
8397 2 41.4047 18.9772 1.7252
187 4 46.5803 18.9772 0
188 4 46.5803 17.252 1.7252
189 4 44.8551 18.9772 1.7252
8398 2 44.8551 17.252 0
8399 2 46.5803 17.252 1.7252
8400 2 44.8551 18.9772 1.7252
190 4 50.0307 18.9772 0
8401 2 48.3055 17.252 0
8402 2 50.0307 18.9772 0
191 4 53.4811 18.9772 0
192 4 53.4811 17.252 1.7252
8403 2 53.4811 18.9772 0
193 4 1.7252 22.4276 0
194 4 1.7252 20.7024 1.7252
195 4 0 22.4276 1.7252
196 4 3.45039 20.7024 0
197 4 5.17559 22.4276 0
8404 2 3.45039 20.7024 0
8405 2 3.45039 22.4276 1.7252
198 4 6.90079 20.7024 0
199 4 8.62598 22.4276 0
200 4 8.62598 20.7024 1.7252
201 4 6.90079 22.4276 1.7252
8406 2 6.90079 20.7024 0
8407 2 8.62598 22.4276 0
202 4 10.3512 20.7024 0
203 4 12.0764 22.4276 0
204 4 12.0764 20.7024 1.7252
8408 2 10.3512 20.7024 0
8409 2 10.3512 22.4276 1.7252
205 4 15.5268 22.4276 0
206 4 15.5268 20.7024 1.7252
8410 2 13.8016 20.7024 0
8411 2 15.5268 22.4276 0
8412 2 13.8016 22.4276 1.7252
207 4 18.9772 22.4276 0
208 4 17.252 22.4276 1.7252
8413 2 17.252 20.7024 0
8414 2 18.9772 20.7024 1.7252
209 4 20.7024 20.7024 0
210 4 22.4276 22.4276 0
8415 2 22.4276 22.4276 0
8416 2 22.4276 20.7024 1.7252
211 4 25.878 22.4276 0
8417 2 24.1528 20.7024 0
8418 2 25.878 20.7024 1.7252
212 4 27.6031 20.7024 0
213 4 29.3283 22.4276 0
214 4 29.3283 20.7024 1.7252
215 4 27.6031 22.4276 1.7252
8419 2 27.6031 20.7024 0
8420 2 29.3283 20.7024 1.7252
216 4 32.7787 22.4276 0
217 4 32.7787 20.7024 1.7252
8421 2 31.0535 20.7024 0
8422 2 32.7787 22.4276 0
8423 2 32.7787 20.7024 1.7252
218 4 34.5039 20.7024 0
219 4 36.2291 20.7024 1.7252
8424 2 34.5039 20.7024 0
8425 2 36.2291 22.4276 0
220 4 37.9543 20.7024 0
221 4 39.6795 22.4276 0
8426 2 39.6795 22.4276 0
8427 2 37.9543 22.4276 1.7252
222 4 43.1299 22.4276 0
223 4 43.1299 20.7024 1.7252
8428 2 41.4047 22.4276 1.7252
224 4 44.8551 20.7024 0
225 4 44.8551 22.4276 1.7252
8429 2 46.5803 20.7024 1.7252
226 4 48.3055 20.7024 0
227 4 50.0307 22.4276 0
228 4 48.3055 22.4276 1.7252
8430 2 50.0307 22.4276 0
229 4 53.4811 22.4276 0
230 4 0 24.1528 0
231 4 1.7252 25.878 0
232 4 1.7252 24.1528 1.7252
233 4 0 25.878 1.7252
8431 2 0 24.1528 0
8432 2 1.7252 25.878 0
8433 2 1.7252 24.1528 1.7252
8434 2 0 25.878 1.7252
234 4 5.17559 25.878 0
235 4 5.17559 24.1528 1.7252
236 4 3.45039 25.878 1.7252
8435 2 5.17559 25.878 0
8436 2 5.17559 24.1528 1.7252
237 4 8.62598 24.1528 1.7252
238 4 6.90079 25.878 1.7252
8437 2 6.90079 24.1528 0
8438 2 8.62598 25.878 0
8439 2 8.62598 24.1528 1.7252
8440 2 6.90079 25.878 1.7252
239 4 10.3512 24.1528 0
240 4 12.0764 24.1528 1.7252
241 4 10.3512 25.878 1.7252
242 4 15.5268 25.878 0
243 4 15.5268 24.1528 1.7252
244 4 13.8016 25.878 1.7252
8441 2 15.5268 24.1528 1.7252
8442 2 18.9772 25.878 0
8443 2 18.9772 24.1528 1.7252
245 4 20.7024 24.1528 0
246 4 22.4276 24.1528 1.7252
8444 2 22.4276 25.878 0
8445 2 22.4276 24.1528 1.7252
247 4 25.878 25.878 0
248 4 25.878 24.1528 1.7252
249 4 24.1528 25.878 1.7252
8446 2 24.1528 24.1528 0
250 4 27.6031 25.878 1.7252
8447 2 27.6031 24.1528 0
8448 2 29.3283 25.878 0
251 4 31.0535 24.1528 0
8449 2 31.0535 24.1528 0
8450 2 32.7787 24.1528 1.7252
252 4 34.5039 24.1528 0
253 4 36.2291 24.1528 1.7252
8451 2 34.5039 24.1528 0
8452 2 36.2291 25.878 0
8453 2 36.2291 24.1528 1.7252
254 4 39.6795 25.878 0
8454 2 37.9543 24.1528 0
8455 2 37.9543 25.878 1.7252
255 4 43.1299 25.878 0
256 4 43.1299 24.1528 1.7252
8456 2 41.4047 24.1528 0
8457 2 43.1299 25.878 0
8458 2 41.4047 25.878 1.7252
257 4 44.8551 25.878 1.7252
8459 2 46.5803 25.878 0
258 4 50.0307 25.878 0
8460 2 50.0307 25.878 0
8461 2 48.3055 25.878 1.7252
259 4 53.4811 24.1528 1.7252
8462 2 53.4811 25.878 0
260 4 0 27.6031 0
261 4 1.7252 29.3283 0
262 4 0 29.3283 1.7252
8463 2 1.7252 29.3283 0
8464 2 1.7252 27.6031 1.7252
8465 2 0 29.3283 1.7252
263 4 3.45039 27.6031 0
264 4 5.17559 29.3283 0
265 4 5.17559 27.6031 1.7252
266 4 3.45039 29.3283 1.7252
8466 2 3.45039 27.6031 0
267 4 6.90079 27.6031 0
268 4 8.62598 27.6031 1.7252
8467 2 6.90079 27.6031 0
8468 2 8.62598 29.3283 0
8469 2 8.62598 27.6031 1.7252
269 4 10.3512 27.6031 0
270 4 12.0764 29.3283 0
271 4 10.3512 29.3283 1.7252
8470 2 10.3512 27.6031 0
272 4 13.8016 29.3283 1.7252
8471 2 15.5268 27.6031 1.7252
8472 2 13.8016 29.3283 1.7252
273 4 18.9772 29.3283 0
274 4 18.9772 27.6031 1.7252
275 4 17.252 29.3283 1.7252
8473 2 18.9772 29.3283 0
276 4 22.4276 27.6031 1.7252
277 4 20.7024 29.3283 1.7252
8474 2 20.7024 27.6031 0
278 4 24.1528 27.6031 0
279 4 24.1528 29.3283 1.7252
280 4 27.6031 27.6031 0
281 4 29.3283 27.6031 1.7252
8475 2 27.6031 27.6031 0
8476 2 29.3283 29.3283 0
8477 2 29.3283 27.6031 1.7252
282 4 31.0535 27.6031 0
283 4 32.7787 29.3283 0
284 4 32.7787 27.6031 1.7252
8478 2 31.0535 27.6031 0
8479 2 32.7787 29.3283 0
285 4 34.5039 29.3283 1.7252
8480 2 34.5039 27.6031 0
8481 2 36.2291 29.3283 0
8482 2 36.2291 27.6031 1.7252
8483 2 34.5039 29.3283 1.7252
286 4 37.9543 27.6031 0
287 4 39.6795 29.3283 0
8484 2 39.6795 27.6031 1.7252
8485 2 37.9543 29.3283 1.7252
288 4 43.1299 29.3283 0
289 4 43.1299 27.6031 1.7252
290 4 41.4047 29.3283 1.7252
8486 2 43.1299 29.3283 0
8487 2 43.1299 27.6031 1.7252
8488 2 46.5803 29.3283 0
8489 2 46.5803 27.6031 1.7252
8490 2 44.8551 29.3283 1.7252
291 4 50.0307 27.6031 1.7252
8491 2 48.3055 27.6031 0
8492 2 50.0307 29.3283 0
292 4 53.4811 27.6031 1.7252
293 4 51.7559 29.3283 1.7252
8493 2 53.4811 27.6031 1.7252
8494 2 51.7559 29.3283 1.7252
294 4 1.7252 32.7787 0
8495 2 0 31.0535 0
8496 2 1.7252 32.7787 0
295 4 3.45039 31.0535 0
296 4 5.17559 32.7787 0
8497 2 5.17559 32.7787 0
8498 2 5.17559 31.0535 1.7252
297 4 8.62598 31.0535 1.7252
8499 2 6.90079 31.0535 0
8500 2 6.90079 32.7787 1.7252
298 4 12.0764 32.7787 0
299 4 12.0764 31.0535 1.7252
300 4 10.3512 32.7787 1.7252
8501 2 12.0764 32.7787 0
8502 2 12.0764 31.0535 1.7252
8503 2 10.3512 32.7787 1.7252
301 4 13.8016 31.0535 0
302 4 15.5268 31.0535 1.7252
8504 2 13.8016 31.0535 0
8505 2 15.5268 32.7787 0
8506 2 15.5268 31.0535 1.7252
8507 2 13.8016 32.7787 1.7252
303 4 18.9772 32.7787 0
304 4 17.252 32.7787 1.7252
8508 2 17.252 31.0535 0
8509 2 18.9772 32.7787 0
305 4 22.4276 32.7787 0
306 4 22.4276 31.0535 1.7252
8510 2 20.7024 31.0535 0
8511 2 22.4276 32.7787 0
8512 2 20.7024 32.7787 1.7252
307 4 25.878 32.7787 0
8513 2 24.1528 31.0535 0
308 4 27.6031 31.0535 0
309 4 29.3283 32.7787 0
8514 2 29.3283 32.7787 0
8515 2 29.3283 31.0535 1.7252
8516 2 27.6031 32.7787 1.7252
8517 2 32.7787 32.7787 0
8518 2 31.0535 32.7787 1.7252
310 4 36.2291 32.7787 0
311 4 36.2291 31.0535 1.7252
312 4 34.5039 32.7787 1.7252
8519 2 34.5039 31.0535 0
8520 2 36.2291 31.0535 1.7252
8521 2 34.5039 32.7787 1.7252
313 4 39.6795 32.7787 0
8522 2 39.6795 32.7787 0
314 4 41.4047 31.0535 0
315 4 43.1299 32.7787 0
8523 2 41.4047 31.0535 0
316 4 44.8551 31.0535 0
317 4 46.5803 32.7787 0
318 4 46.5803 31.0535 1.7252
319 4 44.8551 32.7787 1.7252
8524 2 46.5803 32.7787 0
320 4 48.3055 31.0535 0
8525 2 48.3055 31.0535 0
8526 2 50.0307 31.0535 1.7252
321 4 53.4811 32.7787 0
8527 2 53.4811 32.7787 0
322 4 1.7252 36.2291 0
323 4 1.7252 34.5039 1.7252
8528 2 0 34.5039 0
8529 2 0 36.2291 1.7252
324 4 3.45039 34.5039 0
325 4 5.17559 34.5039 1.7252
8530 2 5.17559 36.2291 0
8531 2 3.45039 36.2291 1.7252
326 4 8.62598 34.5039 1.7252
327 4 6.90079 36.2291 1.7252
8532 2 6.90079 34.5039 0
8533 2 8.62598 36.2291 0
328 4 12.0764 34.5039 1.7252
8534 2 12.0764 36.2291 0
329 4 13.8016 34.5039 0
330 4 15.5268 36.2291 0
331 4 13.8016 36.2291 1.7252
8535 2 15.5268 36.2291 0
8536 2 15.5268 34.5039 1.7252
332 4 17.252 34.5039 0
333 4 18.9772 36.2291 0
8537 2 17.252 34.5039 0
8538 2 18.9772 34.5039 1.7252
8539 2 17.252 36.2291 1.7252
334 4 20.7024 34.5039 0
335 4 22.4276 36.2291 0
336 4 20.7024 36.2291 1.7252
8540 2 20.7024 34.5039 0
8541 2 22.4276 36.2291 0
8542 2 22.4276 34.5039 1.7252
8543 2 20.7024 36.2291 1.7252
337 4 25.878 36.2291 0
338 4 25.878 34.5039 1.7252
8544 2 25.878 36.2291 0
8545 2 25.878 34.5039 1.7252
339 4 27.6031 34.5039 0
340 4 29.3283 36.2291 0
341 4 29.3283 34.5039 1.7252
342 4 27.6031 36.2291 1.7252
8546 2 27.6031 34.5039 0
8547 2 29.3283 36.2291 0
8548 2 29.3283 34.5039 1.7252
8549 2 27.6031 36.2291 1.7252
343 4 31.0535 34.5039 0
344 4 32.7787 36.2291 0
345 4 32.7787 34.5039 1.7252
8550 2 32.7787 34.5039 1.7252
8551 2 31.0535 36.2291 1.7252
346 4 34.5039 34.5039 0
8552 2 36.2291 34.5039 1.7252
8553 2 34.5039 36.2291 1.7252
347 4 37.9543 34.5039 0
348 4 41.4047 34.5039 0
349 4 43.1299 34.5039 1.7252
350 4 41.4047 36.2291 1.7252
8554 2 43.1299 36.2291 0
8555 2 41.4047 36.2291 1.7252
351 4 46.5803 36.2291 0
8556 2 44.8551 34.5039 0
8557 2 46.5803 34.5039 1.7252
352 4 48.3055 34.5039 0
353 4 50.0307 36.2291 0
354 4 50.0307 34.5039 1.7252
8558 2 50.0307 36.2291 0
355 4 53.4811 36.2291 0
356 4 51.7559 36.2291 1.7252
8559 2 53.4811 36.2291 0
8560 2 51.7559 36.2291 1.7252
357 4 0 37.9543 0
358 4 1.7252 39.6795 0
359 4 1.7252 37.9543 1.7252
360 4 0 39.6795 1.7252
8561 2 0 37.9543 0
8562 2 1.7252 37.9543 1.7252
361 4 3.45039 37.9543 0
362 4 3.45039 39.6795 1.7252
8563 2 3.45039 37.9543 0
8564 2 5.17559 37.9543 1.7252
363 4 6.90079 37.9543 0
364 4 8.62598 37.9543 1.7252
8565 2 6.90079 37.9543 0
8566 2 8.62598 37.9543 1.7252
8567 2 6.90079 39.6795 1.7252
365 4 10.3512 37.9543 0
366 4 12.0764 37.9543 1.7252
367 4 10.3512 39.6795 1.7252
8568 2 12.0764 39.6795 0
8569 2 12.0764 37.9543 1.7252
368 4 15.5268 37.9543 1.7252
8570 2 15.5268 37.9543 1.7252
369 4 18.9772 39.6795 0
370 4 18.9772 37.9543 1.7252
371 4 17.252 39.6795 1.7252
8571 2 18.9772 39.6795 0
8572 2 17.252 39.6795 1.7252
372 4 22.4276 37.9543 1.7252
373 4 20.7024 39.6795 1.7252
8573 2 22.4276 37.9543 1.7252
8574 2 20.7024 39.6795 1.7252
374 4 24.1528 37.9543 0
375 4 25.878 39.6795 0
376 4 25.878 37.9543 1.7252
377 4 24.1528 39.6795 1.7252
8575 2 24.1528 37.9543 0
8576 2 25.878 37.9543 1.7252
8577 2 24.1528 39.6795 1.7252
378 4 27.6031 37.9543 0
379 4 29.3283 37.9543 1.7252
380 4 31.0535 37.9543 0
381 4 32.7787 37.9543 1.7252
8578 2 31.0535 37.9543 0
8579 2 31.0535 39.6795 1.7252
382 4 36.2291 39.6795 0
383 4 36.2291 37.9543 1.7252
8580 2 36.2291 39.6795 0
384 4 39.6795 39.6795 0
385 4 39.6795 37.9543 1.7252
8581 2 39.6795 37.9543 1.7252
386 4 41.4047 39.6795 1.7252
387 4 44.8551 37.9543 0
388 4 46.5803 39.6795 0
389 4 44.8551 39.6795 1.7252
8582 2 46.5803 37.9543 1.7252
390 4 48.3055 37.9543 0
391 4 50.0307 37.9543 1.7252
8583 2 50.0307 39.6795 0
8584 2 50.0307 37.9543 1.7252
8585 2 48.3055 39.6795 1.7252
392 4 53.4811 39.6795 0
393 4 51.7559 39.6795 1.7252
8586 2 53.4811 37.9543 1.7252
8587 2 51.7559 39.6795 1.7252
394 4 0 43.1299 1.7252
8588 2 1.7252 43.1299 0
8589 2 0 43.1299 1.7252
395 4 3.45039 41.4047 0
396 4 3.45039 43.1299 1.7252
8590 2 5.17559 43.1299 0
8591 2 5.17559 41.4047 1.7252
8592 2 3.45039 43.1299 1.7252
397 4 6.90079 41.4047 0
398 4 8.62598 43.1299 0
399 4 8.62598 41.4047 1.7252
400 4 6.90079 43.1299 1.7252
8593 2 6.90079 41.4047 0
8594 2 8.62598 43.1299 0
8595 2 8.62598 41.4047 1.7252
401 4 12.0764 41.4047 1.7252
8596 2 12.0764 43.1299 0
402 4 13.8016 41.4047 0
403 4 15.5268 43.1299 0
404 4 13.8016 43.1299 1.7252
8597 2 15.5268 41.4047 1.7252
405 4 17.252 43.1299 1.7252
8598 2 17.252 41.4047 0
8599 2 18.9772 41.4047 1.7252
406 4 20.7024 41.4047 0
8600 2 20.7024 41.4047 0
8601 2 22.4276 41.4047 1.7252
407 4 24.1528 41.4047 0
8602 2 24.1528 41.4047 0
8603 2 24.1528 43.1299 1.7252
8604 2 29.3283 43.1299 0
8605 2 29.3283 41.4047 1.7252
8606 2 27.6031 43.1299 1.7252
408 4 32.7787 41.4047 1.7252
409 4 31.0535 43.1299 1.7252
8607 2 31.0535 41.4047 0
8608 2 32.7787 41.4047 1.7252
8609 2 31.0535 43.1299 1.7252
410 4 34.5039 41.4047 0
411 4 36.2291 43.1299 0
412 4 36.2291 41.4047 1.7252
8610 2 34.5039 41.4047 0
8611 2 36.2291 43.1299 0
8612 2 36.2291 41.4047 1.7252
8613 2 34.5039 43.1299 1.7252
413 4 37.9543 41.4047 0
414 4 39.6795 43.1299 0
415 4 39.6795 41.4047 1.7252
8614 2 37.9543 41.4047 0
8615 2 39.6795 41.4047 1.7252
416 4 43.1299 43.1299 0
417 4 41.4047 43.1299 1.7252
8616 2 41.4047 41.4047 0
8617 2 43.1299 41.4047 1.7252
418 4 44.8551 41.4047 0
419 4 46.5803 41.4047 1.7252
8618 2 44.8551 41.4047 0
8619 2 46.5803 43.1299 0
8620 2 44.8551 43.1299 1.7252
420 4 48.3055 41.4047 0
421 4 50.0307 43.1299 0
8621 2 48.3055 43.1299 1.7252
422 4 51.7559 41.4047 0
423 4 53.4811 43.1299 0
424 4 51.7559 43.1299 1.7252
8622 2 51.7559 41.4047 0
425 4 0 46.5803 1.7252
8623 2 0 44.8551 0
8624 2 1.7252 44.8551 1.7252
426 4 3.45039 44.8551 0
427 4 3.45039 46.5803 1.7252
8625 2 5.17559 44.8551 1.7252
8626 2 3.45039 46.5803 1.7252
428 4 8.62598 46.5803 0
8627 2 6.90079 44.8551 0
8628 2 8.62598 44.8551 1.7252
8629 2 6.90079 46.5803 1.7252
429 4 10.3512 44.8551 0
430 4 12.0764 46.5803 0
431 4 10.3512 46.5803 1.7252
8630 2 12.0764 46.5803 0
8631 2 12.0764 44.8551 1.7252
8632 2 10.3512 46.5803 1.7252
432 4 13.8016 44.8551 0
433 4 15.5268 46.5803 0
434 4 13.8016 46.5803 1.7252
8633 2 15.5268 46.5803 0
8634 2 13.8016 46.5803 1.7252
435 4 17.252 44.8551 0
8635 2 18.9772 44.8551 1.7252
436 4 20.7024 44.8551 0
437 4 22.4276 46.5803 0
438 4 22.4276 44.8551 1.7252
8636 2 20.7024 44.8551 0
8637 2 22.4276 46.5803 0
439 4 25.878 46.5803 0
440 4 25.878 44.8551 1.7252
8638 2 25.878 44.8551 1.7252
8639 2 24.1528 46.5803 1.7252
441 4 27.6031 44.8551 0
8640 2 27.6031 46.5803 1.7252
442 4 32.7787 46.5803 0
443 4 32.7787 44.8551 1.7252
444 4 31.0535 46.5803 1.7252
8641 2 32.7787 44.8551 1.7252
445 4 34.5039 44.8551 0
446 4 36.2291 46.5803 0
447 4 34.5039 46.5803 1.7252
8642 2 36.2291 46.5803 0
8643 2 34.5039 46.5803 1.7252
448 4 37.9543 44.8551 0
449 4 39.6795 44.8551 1.7252
8644 2 37.9543 44.8551 0
8645 2 39.6795 46.5803 0
8646 2 37.9543 46.5803 1.7252
450 4 41.4047 44.8551 0
451 4 43.1299 46.5803 0
452 4 43.1299 44.8551 1.7252
453 4 41.4047 46.5803 1.7252
8647 2 43.1299 44.8551 1.7252
8648 2 41.4047 46.5803 1.7252
454 4 44.8551 44.8551 0
455 4 46.5803 46.5803 0
456 4 46.5803 44.8551 1.7252
8649 2 44.8551 44.8551 0
8650 2 46.5803 46.5803 0
8651 2 46.5803 44.8551 1.7252
457 4 50.0307 44.8551 1.7252
458 4 48.3055 46.5803 1.7252
8652 2 48.3055 44.8551 0
8653 2 50.0307 46.5803 0
8654 2 48.3055 46.5803 1.7252
459 4 51.7559 44.8551 0
460 4 53.4811 44.8551 1.7252
8655 2 51.7559 44.8551 0
8656 2 53.4811 46.5803 0
8657 2 53.4811 44.8551 1.7252
8658 2 0 48.3055 0
8659 2 1.7252 50.0307 0
8660 2 1.7252 48.3055 1.7252
461 4 5.17559 50.0307 0
8661 2 3.45039 50.0307 1.7252
462 4 8.62598 50.0307 0
463 4 8.62598 48.3055 1.7252
8662 2 6.90079 48.3055 0
8663 2 8.62598 50.0307 0
8664 2 6.90079 50.0307 1.7252
464 4 10.3512 48.3055 0
8665 2 10.3512 48.3055 0
8666 2 12.0764 50.0307 0
8667 2 12.0764 48.3055 1.7252
465 4 13.8016 48.3055 0
466 4 13.8016 50.0307 1.7252
8668 2 13.8016 48.3055 0
467 4 17.252 48.3055 0
468 4 18.9772 48.3055 1.7252
469 4 17.252 50.0307 1.7252
8669 2 17.252 48.3055 0
8670 2 18.9772 50.0307 0
470 4 22.4276 48.3055 1.7252
8671 2 20.7024 48.3055 0
8672 2 20.7024 50.0307 1.7252
471 4 24.1528 48.3055 0
472 4 25.878 50.0307 0
473 4 25.878 48.3055 1.7252
474 4 24.1528 50.0307 1.7252
8673 2 25.878 48.3055 1.7252
475 4 29.3283 48.3055 1.7252
8674 2 27.6031 48.3055 0
8675 2 29.3283 50.0307 0
476 4 32.7787 50.0307 0
477 4 32.7787 48.3055 1.7252
8676 2 31.0535 48.3055 0
8677 2 32.7787 48.3055 1.7252
8678 2 31.0535 50.0307 1.7252
478 4 34.5039 48.3055 0
479 4 36.2291 48.3055 1.7252
8679 2 36.2291 50.0307 0
8680 2 36.2291 48.3055 1.7252
8681 2 34.5039 50.0307 1.7252
480 4 39.6795 50.0307 0
481 4 39.6795 48.3055 1.7252
482 4 37.9543 50.0307 1.7252
8682 2 37.9543 50.0307 1.7252
483 4 41.4047 48.3055 0
484 4 43.1299 48.3055 1.7252
8683 2 41.4047 50.0307 1.7252
485 4 46.5803 50.0307 0
486 4 44.8551 50.0307 1.7252
8684 2 44.8551 48.3055 0
8685 2 46.5803 50.0307 0
8686 2 44.8551 50.0307 1.7252
487 4 50.0307 50.0307 0
488 4 50.0307 48.3055 1.7252
8687 2 48.3055 48.3055 0
8688 2 50.0307 50.0307 0
489 4 51.7559 48.3055 0
490 4 53.4811 50.0307 0
491 4 53.4811 48.3055 1.7252
492 4 1.7252 53.4811 0
8689 2 0 51.7559 0
8690 2 1.7252 53.4811 0
8691 2 0 53.4811 1.7252
493 4 3.45039 51.7559 0
494 4 5.17559 53.4811 0
495 4 3.45039 53.4811 1.7252
8692 2 3.45039 51.7559 0
8693 2 5.17559 51.7559 1.7252
8694 2 3.45039 53.4811 1.7252
496 4 6.90079 51.7559 0
497 4 8.62598 51.7559 1.7252
8695 2 8.62598 53.4811 0
8696 2 6.90079 53.4811 1.7252
498 4 12.0764 53.4811 0
8697 2 10.3512 51.7559 0
8698 2 12.0764 51.7559 1.7252
8699 2 13.8016 51.7559 0
8700 2 15.5268 53.4811 0
8701 2 15.5268 51.7559 1.7252
8702 2 13.8016 53.4811 1.7252
499 4 18.9772 53.4811 0
500 4 18.9772 51.7559 1.7252
501 4 17.252 53.4811 1.7252
8703 2 17.252 51.7559 0
502 4 20.7024 51.7559 0
8704 2 22.4276 53.4811 0
8705 2 22.4276 51.7559 1.7252
8706 2 20.7024 53.4811 1.7252
503 4 24.1528 51.7559 0
504 4 25.878 53.4811 0
505 4 25.878 51.7559 1.7252
8707 2 24.1528 51.7559 0
8708 2 25.878 51.7559 1.7252
8709 2 24.1528 53.4811 1.7252
506 4 29.3283 53.4811 0
507 4 29.3283 51.7559 1.7252
508 4 27.6031 53.4811 1.7252
8710 2 29.3283 53.4811 0
8711 2 27.6031 53.4811 1.7252
509 4 31.0535 51.7559 0
510 4 32.7787 53.4811 0
511 4 32.7787 51.7559 1.7252
8712 2 31.0535 51.7559 0
8713 2 32.7787 51.7559 1.7252
8714 2 31.0535 53.4811 1.7252
512 4 34.5039 51.7559 0
8715 2 34.5039 51.7559 0
8716 2 36.2291 53.4811 0
8717 2 36.2291 51.7559 1.7252
8718 2 34.5039 53.4811 1.7252
513 4 37.9543 51.7559 0
514 4 39.6795 51.7559 1.7252
8719 2 37.9543 51.7559 0
8720 2 39.6795 53.4811 0
515 4 43.1299 51.7559 1.7252
516 4 41.4047 53.4811 1.7252
8721 2 43.1299 51.7559 1.7252
517 4 44.8551 51.7559 0
518 4 46.5803 51.7559 1.7252
519 4 44.8551 53.4811 1.7252
8722 2 44.8551 51.7559 0
8723 2 46.5803 53.4811 0
8724 2 46.5803 51.7559 1.7252
8725 2 44.8551 53.4811 1.7252
8726 2 50.0307 53.4811 0
8727 2 50.0307 51.7559 1.7252
520 4 53.4811 53.4811 0
521 4 53.4811 51.7559 1.7252
8728 2 53.4811 53.4811 0
8729 2 53.4811 51.7559 1.7252
8730 2 1.7252 1.7252 3.45039
8731 2 0 1.7252 5.17559
522 4 5.17559 0 5.17559
523 4 3.45039 1.7252 5.17559
8732 2 5.17559 1.7252 3.45039
8733 2 5.17559 0 5.17559
8734 2 3.45039 1.7252 5.17559
524 4 8.62598 0 5.17559
8735 2 6.90079 0 3.45039
8736 2 8.62598 0 5.17559
8737 2 6.90079 1.7252 5.17559
525 4 12.0764 1.7252 3.45039
526 4 12.0764 0 5.17559
527 4 10.3512 1.7252 5.17559
8738 2 12.0764 0 5.17559
8739 2 10.3512 1.7252 5.17559
528 4 13.8016 0 3.45039
529 4 15.5268 0 5.17559
8740 2 13.8016 0 3.45039
8741 2 13.8016 1.7252 5.17559
530 4 18.9772 0 5.17559
531 4 17.252 1.7252 5.17559
8742 2 17.252 1.7252 5.17559
532 4 22.4276 1.7252 3.45039
533 4 22.4276 0 5.17559
8743 2 20.7024 0 3.45039
8744 2 22.4276 1.7252 3.45039
8745 2 20.7024 1.7252 5.17559
534 4 24.1528 0 3.45039
535 4 24.1528 1.7252 5.17559
8746 2 24.1528 0 3.45039
8747 2 25.878 0 5.17559
536 4 27.6031 0 3.45039
537 4 29.3283 1.7252 3.45039
538 4 29.3283 0 5.17559
539 4 27.6031 1.7252 5.17559
8748 2 27.6031 0 3.45039
8749 2 27.6031 1.7252 5.17559
8750 2 32.7787 1.7252 3.45039
8751 2 32.7787 0 5.17559
8752 2 31.0535 1.7252 5.17559
540 4 34.5039 0 3.45039
8753 2 34.5039 1.7252 5.17559
541 4 37.9543 0 3.45039
542 4 39.6795 1.7252 3.45039
8754 2 39.6795 1.7252 3.45039
8755 2 39.6795 0 5.17559
543 4 43.1299 1.7252 3.45039
544 4 43.1299 0 5.17559
545 4 41.4047 1.7252 5.17559
8756 2 41.4047 1.7252 5.17559
546 4 44.8551 0 3.45039
547 4 46.5803 1.7252 3.45039
548 4 46.5803 0 5.17559
549 4 44.8551 1.7252 5.17559
8757 2 44.8551 0 3.45039
8758 2 46.5803 0 5.17559
550 4 48.3055 1.7252 5.17559
551 4 51.7559 0 3.45039
552 4 51.7559 1.7252 5.17559
8759 2 53.4811 1.7252 3.45039
553 4 1.7252 5.17559 3.45039
554 4 0 5.17559 5.17559
555 4 5.17559 5.17559 3.45039
556 4 5.17559 3.45039 5.17559
557 4 3.45039 5.17559 5.17559
8760 2 3.45039 3.45039 3.45039
8761 2 5.17559 5.17559 3.45039
558 4 6.90079 3.45039 3.45039
559 4 8.62598 3.45039 5.17559
560 4 6.90079 5.17559 5.17559