ITEM: TIMESTEP
0
ITEM: NUMBER OF ATOMS
50688
ITEM: BOX BOUNDS xy xz yz pp pp pp
-20.3673 69.5463181 9.6340199
-22.2210007 65.3610001 0.0
-22.2210007 65.3610001 0.0
ITEM: ATOMS id type x y z VoronoiIndex1 VoronoiIndex2 VoronoiIndex3 VoronoiIndex4 VoronoiIndex5 VoronoiIndex6 VoronoiIndex7 VoronoiIndex8 VoronoiIndex9 AtomicVolume
7 2 -12.3100004 -13.7200003 -3.2490001 0 0 0 1 10 3 0 0 0 12.11549
21 2 -13.3999996 1.43 15.04 0 0 0 2 8 1 0 0 0 11.3163118
26 5 -16.4300003 -17.2199993 -9.2469998 0 0 1 0 11 4 0 0 0 13.8015251
28 2 4.6770001 5.2230001 -10.54 0 0 1 3 4 3 1 0 0 11.7428761
36 2 10.8900004 -15.2299996 -19.8299999 0 0 0 2 8 2 0 0 0 11.6982527
38 5 7.2020001 -11.1999998 16.8299999 0 0 1 1 9 5 0 0 0 13.0791874
42 2 10.4200001 -3.4960001 -21.4899998 0 0 0 0 12 0 0 0 0 11.1441078
43 5 0.36 12.4799996 9.4919997 0 0 1 3 7 3 0 0 0 11.6690674
50 2 12.6400004 -3.293 -22.0699997 0 0 0 0 12 0 0 0 0 11.4847899
61 4 -12.6499996 -8.5159998 -3.845 0 0 0 2 10 2 0 0 0 13.0156097
66 4 -18.4599991 -5.184 -2.662 0 0 0 2 8 3 0 0 0 12.7730217
68 1 -17.3199997 -0.8075 2.672 0 0 0 4 6 1 0 0 0 11.4534579
98 2 1.808 -8.4870005 18.8799992 0 0 0 0 12 0 0 0 0 11.2380324
128 5 -11.6599999 6.414 -10.9099998 0 0 0 2 10 2 0 0 0 12.6565075
145 4 -6.3720002 -21.9799996 -19.6399994 0 0 0 0 12 2 0 0 0 12.3017235
146 4 2.451 9.1499996 -11.3699999 0 0 1 1 8 3 1 0 0 12.9300862
150 2 -13.75 8.0220003 9.1680002 0 0 1 3 5 4 0 0 0 11.425869
171 2 5.4840002 -0.8534 -3.0680001 0 0 1 2 6 2 1 0 0 11.5783959
176 5 9.389 -20.4699993 11.8900004 0 0 0 2 10 1 0 0 0 11.9615526
177 5 14.1400003 14.75 -19.8899994 0 0 1 2 7 3 0 0 0 11.5997124
181 5 -8.1730003 -11.0699997 5.718 0 0 0 0 12 0 0 0 0 11.4118252
191 5 -11.8999996 5.7579999 -13.6599999 0 0 0 0 12 4 0 0 0 13.4439621
200 4 -17.6000004 -11.1800003 12.1300001 0 0 0 3 6 6 0 0 0 11.8041058
216 2 13.8500004 16.7299996 11.9700004 0 0 0 0 12 0 0 0 0 10.538353
219 4 10.1599999 -2.714 16.3700009 0 0 1 2 7 5 0 0 0 12.5240088
220 2 -5.3189998 17.4799996 -5.356 0 0 1 0 11 1 0 0 0 11.7169914
231 4 -15.0699997 3.5569999 7.1630001 0 0 0 1 10 3 0 0 0 12.4563618
240 2 2.724 10.5699997 5.744 0 0 0 4 6 2 0 0 0 11.9792338
241 2 22.5100003 12.2799997 -1.1670001 0 0 0 1 10 2 0 0 0 11.6469784
243 4 7.2560001 17.7900009 -2.0780001 0 0 1 1 9 4 0 1 0 13.4096089
244 5 -8.4130001 -12.7399998 -20.7199993 0 0 0 1 10 2 0 0 0 12.6709109
245 1 16.3899994 -17.4899998 5.6110001 0 0 0 3 6 4 0 0 0 11.9347888
249 4 -6.7519999 -6.0749998 18.8799992 0 0 0 1 10 4 0 0 0 12.3660364
262 2 1.156 3.0669999 9.5550003 0 0 1 3 5 4 0 0 0 11.6810255
263 1 -8.4390002 -3.0 -16.3500004 0 0 0 0 12 0 0 0 0 11.3416519
266 5 17.0499992 -17.8799992 16.5900002 0 0 0 3 6 4 0 0 0 11.3948755
277 4 -14.6999998 -1.008 -7.1700001 0 0 0 1 10 3 0 0 0 12.0111361
283 5 -2.7219999 10.4499998 -11.0600004 0 0 0 1 10 4 0 0 0 12.0828476
298 4 -5.428 17.4200001 3.2839999 0 0 0 3 8 4 0 0 0 12.2106485
301 1 -12.6800003 18.8899994 20.25 0 0 0 2 8 5 0 0 0 12.2404575
311 5 -10.6199999 14.1599999 -4.6669998 0 0 0 0 12 4 0 0 0 14.0015974
318 5 -3.858 -14.6000004 -6.2080002 0 0 0 5 2 6 0 0 0 11.6946249
322 4 -10.2600002 -8.2290001 3.2969999 0 0 0 1 10 4 0 0 0 12.6426974
335 1 -18.3799992 -18.25 -5.6630001 0 0 0 3 8 2 0 0 0 11.6206589
336 4 -11.9300004 -16.25 -2.401 0 0 0 2 8 5 0 0 0 12.2195931
362 5 -10.0900002 -9.9720002 -3.925 0 0 0 1 10 3 0 0 0 13.111064
370 5 -16.6000004 -17.0 -11.6499996 0 0 0 0 12 2 0 0 0 12.7422734
372 5 9.224 -19.9799996 3.98 0 0 0 2 8 2 0 0 0 12.0902138
377 5 -4.5359998 15.5699997 -0.6278 0 0 0 3 8 4 0 0 0 13.1101914
398 1 -2.6129999 0.4303 -0.9691 0 0 0 2 8 4 0 0 0 11.8381014
416 2 -10.1800003 -21.4599991 -11.3100004 0 0 1 3 5 6 0 0 0 12.1121807
428 4 21.2700005 -6.6160002 4.6209998 0 0 0 2 8 2 0 0 0 11.1390352
431 2 -4.2579999 19.7900009 -19.6700001 0 0 0 3 6 4 0 0 0 11.1878872
439 4 -17.4200001 -8.2390003 15.4499998 0 0 0 3 6 5 0 0 0 12.4984789
442 4 1.0319999 -20.9599992 -12.4700003 0 0 0 1 10 5 0 0 0 13.4710121
452 4 -14.5699997 -22.2099991 -20.3899994 0 0 0 0 12 0 0 0 0 10.92377
482 4 5.7080002 -0.4632 -19.6499996 0 0 0 3 6 5 0 0 0 12.2118645
506 4 -4.3010001 -0.225 16.3600006 0 0 0 1 10 5 0 0 0 12.8467264
527 5 9.6090002 -5.3130002 4.7360001 0 0 0 2 8 4 0 0 0 11.7998476
531 5 20.6900006 6.5349999 12.3299999 0 0 1 1 8 2 1 0 0 12.3395367
537 2 2.424 17.6000004 4.809 0 0 0 2 8 2 0 0 0 11.4965849
539 2 -0.7937 -21.8799992 -16.5699997 0 0 0 3 6 5 0 0 0 11.7133246
548 4 -0.802 -8.5769997 1.569 0 0 0 2 8 4 0 0 0 12.7448225
549 5 -15.0900002 12.5500002 -17.4899998 0 0 0 0 12 0 0 0 0 11.0699253
553 4 8.6160002 4.9629998 -21.6200009 0 0 0 0 12 0 0 0 0 11.2496882
559 4 15.0900002 5.916 -21.6200009 0 0 0 2 8 4 0 0 0 12.3699589
561 4 5.2360001 15.4099999 -5.9520002 0 0 0 0 12 3 0 0 0 12.4235144
564 4 -3.7490001 4.0830002 -11.7600003 0 0 0 2 9 3 1 0 0 12.816411
569 2 8.1359997 -3.54 4.389 0 0 1 2 5 4 0 0 0 10.9896346
570 4 -17.3899994 -20.3799992 -5.8330002 0 0 0 3 6 4 0 0 0 11.3271589
571 5 -14.0600004 5.9130002 8.224 0 0 0 3 6 4 0 0 0 11.952509
587 5 19.9300004 16.9099998 17.1200008 0 0 0 4 6 4 0 0 0 11.7876768
597 2 -1.972 -17.4300003 -13.4600001 0 0 0 2 8 3 0 0 0 11.4734612
613 5 15.6899996 -5.1329999 -1.698 0 0 1 4 2 6 1 0 0 12.4198199
618 2 -0.2541 6.2550001 -12.6400004 0 0 0 0 12 0 0 0 0 10.9728128
623 4 17.9300004 17.0400009 4.6939998 0 0 0 1 10 2 0 0 0 11.7175322
638 5 -13.0900002 -8.7600003 9.2650004 0 0 0 4 8 0 0 0 0 11.3076191
643 5 -11.5699997 4.2740002 2.0450001 0 0 0 2 8 2 0 0 0 11.2810707
645 5 -11.3400002 16.5900002 5.842 0 0 0 3 6 6 0 0 0 11.93328
649 4 18.25 -18.7999993 8.9160004 0 0 0 0 12 2 0 0 0 12.1329489
654 4 2.908 -17.1499996 1.194 0 0 0 4 6 4 0 0 0 12.1081743
671 2 2.2360001 -9.955 9.4639998 0 0 0 0 12 0 0 0 0 10.9199782
672 2 22.4500008 21.0100002 -17.2900009 0 0 0 2 10 2 0 0 0 12.0088367
681 2 -13.9399996 20.7399998 -9.1370001 0 0 0 1 10 2 0 0 0 11.4034977
699 5 18.2800007 3.29 3.454 0 0 0 2 8 4 0 0 0 12.500062
726 5 19.25 -8.2530003 8.6829996 0 0 1 0 11 3 0 0 0 13.2383194
727 5 -7.4980002 -20.7099991 21.2999992 0 0 0 4 5 5 1 0 0 13.4097223
729 1 0.2495 -21.8999996 9.0780001 0 0 0 3 7 2 0 0 0 11.046216
741 4 4.797 15.4600001 2.0999999 0 0 0 3 6 3 0 0 0 11.885107
742 4 12.5299998 2.774 9.6920004 0 0 1 0 11 1 0 0 0 12.3605471
745 4 3.8770002 21.2000008 -21.1700001 0 0 0 1 10 3 0 0 0 12.4623652
755 5 14.1999998 -14.1800003 -17.7099991 0 0 0 1 10 3 0 0 0 12.7602358
758 2 6.5609999 10.9200002 14.7600003 0 0 0 2 8 2 0 0 0 11.5023794
760 1 8.639 8.8240004 -17.3799992 0 0 0 2 10 1 0 0 0 12.1111269
762 5 18.6499996 -5.401 -8.0279999 0 0 1 4 4 6 1 0 0 13.4656582
765 1 -1.6770001 11.2399998 -21.2800007 0 0 0 3 6 5 0 0 0 11.676692
809 2 23.7999993 20.1599999 -0.7188 0 0 0 0 12 2 0 0 0 11.5689335
818 5 7.671 10.4499998 6.1149998 0 0 0 2 8 4 0 0 0 12.907198
842 5 10.8400002 1.2690001 -6.0949998 0 0 0 3 6 5 0 0 0 12.0069704
849 4 -2.747 3.349 12.1400003 0 0 0 4 5 3 0 0 0 11.9097558
850 5 5.27 18.0599995 -17.7800007 0 0 0 0 12 0 0 0 0 11.808466
882 3 -7.6680002 17.1299992 15.7799998 0 0 0 1 10 2 0 0 0 12.1343975
899 4 -1.973 -9.4600001 -0.3804 0 0 0 2 10 2 0 0 0 12.5181685
901 4 1.169 19.0900002 -1.214 0 0 0 0 12 2 0 0 0 12.1984015
915 5 -6.4200001 -22.2199993 -3.925 0 0 0 2 8 5 0 0 0 12.7191382
926 5 -0.5308 7.8070002 8.7209997 0 0 0 2 9 3 1 0 0 13.1298695
936 1 2.046 13.0900002 -14.5799999 0 0 0 0 12 0 0 0 0 10.9998532
941 5 1.587 5.1799998 14.1599999 0 0 0 1 10 3 0 0 0 12.0363035
946 4 -3.2279999 -13.5799999 20.9599992 0 0 0 0 12 2 0 0 0 12.5866976
950 3 -2.655 -1.8220001 6.3179999 0 0 0 1 9 4 1 0 0 12.8489886
951 5 9.6140003 16.5400009 -1.074 0 0 0 0 12 3 0 0 0 14.3535643
958 5 13.2200003 7.7810002 -2.026 0 0 0 2 8 4 0 0 0 12.1412058
961 2 -1.56 18.5499993 -17.5400009 0 0 0 1 10 2 0 0 0 12.2725334
962 4 -7.5240002 -14.6499996 -11.3900004 0 0 0 1 10 3 0 0 0 12.2963839
963 5 -9.844 -12.6000004 -15.3199997 0 0 1 3 4 5 1 0 0 12.0088243
978 4 -19.6399994 -19.8099995 13.4799996 0 0 0 0 12 3 0 0 0 12.924779
990 4 12.7700005 16.8999996 -0.9998 0 0 1 0 11 4 0 0 0 14.0666294
993 4 21.3899994 1.986 -12.96 0 0 0 3 6 4 0 0 0 11.884099
995 1 0.3196 -17.2399998 13.3199997 0 0 0 0 12 2 0 0 0 11.8131838
1007 2 2.457 -4.968 -2.6410001 0 0 0 0 12 0 0 0 0 11.68956
1010 4 -16.8199997 3.0580001 -20.6499996 0 0 0 2 8 3 0 0 0 11.3986321
1025 1 1.333 -12.8999996 11.8800002 0 0 0 3 6 5 0 0 0 11.5933123
1027 4 17.2299996 -10.0100002 8.4530001 0 0 0 0 12 3 0 0 0 13.3301773
1047 4 -8.4530001 20.7000008 2.8110001 0 0 0 3 8 2 0 0 0 11.9511472
1050 1 0.1341 -10.3400002 18.5900002 0 0 0 0 12 0 0 0 0 11.3985405
1051 4 6.2420001 16.7199993 -19.5499993 0 0 0 1 10 2 0 0 0 11.5383883
1055 2 9.7910004 5.3000002 -7.0939999 0 0 2 3 4 5 0 0 0 11.4985161
1057 4 12.4499998 -7.8779998 -11.8900004 0 0 1 1 9 2 0 0 0 11.7992783
1059 4 -5.3130002 13.29 2.9300002 0 0 0 2 8 4 0 0 0 11.8300944
1063 5 -10.5900002 9.4510002 9.5570002 0 0 1 0 11 3 0 0 0 12.8576384
1089 4 11.96 -20.4400006 -16.5599995 0 0 0 0 12 3 0 0 0 12.2417383
1098 4 19.8099995 -18.6599999 20.1800003 0 0 0 3 8 5 0 0 0 13.3593311
1102 5 17.8500004 -19.1399994 -15.9399996 0 0 0 0 12 0 0 0 0 10.6083927
1110 5 1.916 -2.873 19.0400009 0 0 1 2 7 3 2 0 0 12.7348891
1118 1 14.0799999 -14.0600004 0.5296 0 0 0 3 6 4 0 0 0 12.2365208
1128 2 2.2149999 -19.3400002 0.6813 0 0 0 0 12 0 0 0 0 11.0285664
1153 5 6.6199999 -15.2100001 18.5 0 0 0 1 10 2 0 0 0 12.1349936
1159 4 3.1919999 -10.0600004 15.0799999 0 0 1 2 7 4 0 0 0 11.8589574
1167 4 -5.468 20.7900009 -12.54 0 0 0 3 6 4 0 0 0 12.3718147
1169 2 16.2099991 2.168 -19.8500004 0 0 1 2 7 5 0 0 0 12.3069639
1178 2 8.8400002 4.5780001 10.6700001 0 0 1 2 6 3 1 0 0 11.941022
1187 5 -2.3440001 18.4300003 -13.8000002 0 0 0 3 8 4 0 0 0 12.3412018
1188 4 13.0100002 15.96 8.3649998 0 0 0 0 12 2 0 0 0 11.825202
1190 2 5.0830002 -17.8799992 -16.9300004 0 0 0 2 8 2 0 0 0 10.9863596
1199 4 -15.4300003 -10.1599999 -14.9700004 0 0 0 1 10 3 0 0 0 12.3073979
1214 5 -8.809 9.0769997 -21.8299999 0 0 0 3 6 4 0 0 0 11.6039858
1217 5 20.4599991 -9.757 -15.9399996 0 0 0 1 10 2 0 0 0 11.7292967
1222 1 -7.152 16.5799999 -1.762 0 0 0 1 10 2 0 0 0 11.933816
1244 3 -9.2589998 -10.7399998 -9.2770004 0 0 0 0 12 0 0 0 0 11.6476784
1247 1 12.1899996 1.262 -19.5599995 0 0 1 3 4 5 1 0 0 11.7246294
1261 4 7.2290001 16.2399998 20.5200005 0 0 0 1 10 2 0 0 0 12.1300974
1264 2 12.1899996 17.1700001 10.3999996 0 0 1 0 9 3 0 0 0 11.0088835
1272 4 19.2199993 18.6800003 -9.2510004 0 0 0 3 6 4 0 0 0 12.1232224
1276 4 -20.0100002 -20.6700001 9.1400003 0 0 0 1 10 3 0 0 0 12.0225706
1280 5 -7.4289999 1.207 -11.3999996 0 0 1 1 9 3 0 0 0 12.1727495
1283 4 19.9500008 2.201 12.8299999 0 0 0 2 10 1 0 0 0 11.8274737
1288 5 -10.4300003 -9.1470003 15.7799998 0 0 0 3 6 3 0 0 0 11.5089607
1299 4 -3.796 -10.9899998 6.2930002 0 0 1 2 9 3 0 0 0 12.6791144
1302 4 7.8909998 -1.851 -19.1000004 0 0 0 2 10 2 0 0 0 12.0565653
1303 2 -3.4330001 5.0640001 0.03901 0 0 0 0 12 0 0 0 0 10.9794808
1305 5 10.2200003 14.2399998 4.9130002 0 0 1 1 9 4 0 0 0 13.3363705
1320 2 -10.8900004 12.8299999 12.2100001 0 0 0 0 12 0 0 0 0 11.5571213
1338 2 -6.3579998 20.75 -19.4200001 0 0 0 3 6 3 0 0 0 12.0540257
1339 5 6.6129999 1.936 3.908 0 0 0 2 8 4 0 0 0 11.8278208
1342 4 -8.04 18.8199997 17.9599992 0 0 0 1 10 4 0 0 0 13.1231165
1350 4 22.7700005 16.3400002 0.8287 0 0 0 2 10 3 0 0 0 13.2908297
1363 2 -7.6500001 -4.408 2.6170001 0 0 0 1 10 4 0 0 0 12.067688
1365 4 15.8299999 -9.7980004 -17.0100002 0 0 1 5 3 4 2 0 0 13.0875826
1370 4 -19.0200005 -19.7900009 15.8599998 0 0 0 2 9 2 1 0 0 12.5334063
1374 4 20.25 -10.3900004 -18.4200001 0 0 0 1 12 3 0 0 0 12.859683
1377 4 -5.5279999 -4.0320001 -12.3400002 0 0 1 2 7 3 0 0 0 12.2179279
1387 3 -14.7600003 -22.0499992 6.4180002 0 0 0 4 4 7 0 0 0 13.2222071
1391 4 7.7329998 21.4799996 -13.3400002 0 0 0 1 10 2 0 0 0 12.1788406
1403 4 20.1100006 -12.54 -16.3199997 0 0 0 1 10 4 0 0 0 12.947917
1434 5 -9.8610002 9.4460001 -11.5100003 0 0 1 3 5 6 0 0 0 13.0523586
1445 2 4.9169998 2.626 8.3690004 0 0 0 2 8 2 0 0 0 11.2123003
1456 4 -8.3100004 -10.2100001 -20.1000004 0 0 0 4 6 2 2 0 0 12.8573618
1457 4 -6.3280001 2.879 3.7520001 0 0 0 1 10 2 0 0 0 12.0975313
1463 4 7.118 17.5900002 0.324 0 0 0 3 6 3 0 1 0 12.8333063
1477 2 -3.1559999 -6.605 -19.4099999 0 0 2 4 2 6 0 0 0 11.1854992
1478 2 19.7700005 17.4400006 6.1789999 0 0 0 4 6 3 0 0 0 11.5748797
1492 5 -1.024 20.0499992 9.8059998 0 0 0 1 10 2 0 0 0 11.8197451
1502 5 3.3640001 6.1100001 -4.0879998 0 0 0 1 10 2 0 0 0 12.0175686
1505 4 -5.2410002 20.1100006 21.5 0 0 0 0 12 3 0 0 0 13.4683075
1509 5 4.7090001 -19.2999992 16.7000008 0 0 0 2 8 4 0 0 0 12.6094322
1515 5 -8.6479998 0.7704 -19.3400002 0 0 0 0 12 0 0 0 0 11.1974955
1523 2 -8.3479996 13.2700005 -21.4699993 0 0 0 2 8 2 0 0 0 11.1948595
1545 4 5.0029998 -8.7600003 -16.2800007 0 0 0 0 12 0 0 0 0 12.3145847
1556 5 14.1400003 -6.7410002 -7.5799999 0 0 0 4 6 6 0 0 0 12.8322907
1583 2 -4.6960001 -7.4200001 2.7230001 0 0 0 3 6 4 0 0 0 11.847127
1587 5 -16.7000008 -0.04318 -14.4099999 0 0 0 0 12 2 0 0 0 11.9413576
1599 4 15.4200001 18.5400009 -20.7399998 0 0 0 1 10 3 0 0 0 12.8254471
1605 5 13.4200001 12.25 -2.783 0 0 0 4 6 4 0 0 0 12.5447979
1607 4 -0.3019 10.7299996 18.3500004 0 0 0 0 12 0 0 0 0 11.4539929
1615 4 13.29 20.6700001 0.5845 0 0 0 3 6 4 0 0 0 11.4097109
1620 4 -12.3599997 -1.171 19.4599991 0 0 0 2 8 5 0 0 0 13.5432062
1627 4 -20.0100002 -19.7999993 -9.2049999 0 0 0 0 12 0 0 0 0 11.36794
1634 5 13.7700005 18.3400002 -5.881 0 0 1 2 7 5 0 0 0 12.4523688
1642 4 8.6180001 -19.6499996 6.322 0 0 1 2 7 6 0 0 0 12.4017058
1657 5 -7.7870002 15.6300001 13.6800003 0 0 0 1 10 3 0 0 0 12.5334854
1663 2 -7.3779998 -3.3440001 11.0900002 0 0 0 0 12 0 0 0 0 11.6387253
1669 4 -9.5970001 -20.25 -5.3410001 0 0 0 0 12 3 0 0 0 13.0524168
1671 4 24.1000004 18.9400006 -2.8010001 0 0 0 0 12 3 0 0 0 12.4327173
1692 5 -18.1299992 -20.8899994 11.7799998 0 0 0 1 10 3 0 0 0 12.3865442
1694 2 8.816 -17.6200009 -3.958 0 0 0 3 7 4 1 0 0 12.1492186
1698 4 -6.283 -1.179 21.0900002 0 0 0 2 8 2 0 0 0 11.2613974
1702 2 5.559 -10.5299998 14.6300001 0 0 0 3 8 1 0 0 0 11.9139634
1706 4 5.2449999 0.8885 -9.1219997 0 0 0 0 12 2 0 0 0 12.3517962
1722 5 -2.648 -2.082 -2.0869999 0 0 0 4 6 4 0 0 0 12.803874
1726 5 1.809 -8.3920002 -6.125 0 0 0 0 12 0 0 0 0 11.3884144
1730 5 15.0500002 19.6399994 9.3240004 0 0 0 3 8 2 0 0 0 11.8336087
1766 4 -8.4309998 -18.4300003 -3.076 0 0 0 0 12 2 0 0 0 12.2432118
1774 4 -1.044 1.1390001 -12.5799999 0 0 1 0 11 4 0 0 0 13.5373421
1795 4 -0.4893 20.3500004 -13.4300003 0 0 0 0 12 0 0 0 0 11.4257546
1805 4 -14.6599999 17.9899998 9.4370003 0 0 0 1 10 5 0 0 0 13.2771511
1807 4 17.4899998 -8.1280003 14.5500002 0 0 0 1 10 3 0 0 0 12.3845539
1812 4 10.1599999 -7.962 15.1499996 0 0 0 2 9 3 0 0 0 12.6933375
1818 4 -6.4229999 0.5325001 17.2700005 0 0 0 2 8 4 0 0 0 12.221242
1829 5 -9.2840004 16.5499993 -19.6299992 0 0 0 0 12 0 0 0 0 11.7461825
1847 4 2.81 -21.5499993 -10.9099998 0 0 0 0 12 0 0 0 0 11.3523979
1851 1 -2.1389999 20.2099991 16.1900005 0 0 0 0 12 0 0 0 0 11.2089939
1865 2 11.1099997 -7.0760002 5.6900001 0 0 0 0 12 3 0 0 0 12.9732982
1873 4 1.492 -19.9300004 5.6279998 0 0 0 1 12 1 0 0 0 12.9050542
1879 5 20.3600006 -16.1000004 -17.2299996 0 0 0 1 10 2 0 0 0 11.7482538
1882 2 11.3000002 11.8900004 15.4399996 0 0 0 2 10 0 0 0 0 11.0342236
1897 4 19.1399994 -0.6573 15.8199997 0 0 0 3 6 5 0 0 0 12.3335457
1905 4 -10.8500004 -5.836 12.1999998 0 0 1 1 9 4 0 0 0 12.4095516
1906 2 -5.89 17.2299996 0.5440001 0 0 0 1 10 2 0 0 0 11.2752724
1920 5 10.0299997 -5.3709998 7.3530002 0 0 0 1 12 2 0 0 0 13.289403
1942 5 2.941 -19.7999993 15.1300001 0 0 0 1 10 2 0 0 0 12.1212645
1947 5 3.6210001 6.3350001 10.25 0 0 0 3 8 4 0 0 0 12.4429713
1951 4 8.8120003 21.3799992 17.2099991 0 0 0 1 10 2 0 0 0 11.3948937
1965 2 -6.8410002 1.215 -20.9099998 0 0 0 3 6 4 0 0 0 11.7192374
1970 2 18.8400002 19.7299996 -19.1399994 0 0 0 0 12 0 0 0 0 11.4964867
1975 4 -6.8839998 2.708 -18.8600006 0 0 0 4 6 5 0 0 0 12.5672817
1976 5 23.4099999 16.3500004 15.5500002 0 0 0 2 10 2 0 0 0 12.5971833
1990 5 5.586 -8.9849998 -6.026 0 0 1 3 4 5 1 0 0 12.1290007
2013 5 0.9222 12.04 -5.8649998 0 0 2 2 6 3 0 0 0 11.6300831
2020 2 -1.6360001 -9.276 -17.2999992 0 0 0 0 12 0 0 0 0 10.6739073
2029 4 1.895 3.2909999 16.0499992 0 0 3 2 5 5 0 0 0 12.7667666
2041 5 16.9400006 0.8164 16.5599995 0 0 0 1 10 3 0 0 0 12.1951857
2046 2 -16.75 -9.6400004 4.6739998 0 0 1 2 4 3 1 0 0 11.4745159
2053 2 -15.0799999 6.4990001 -1.6310001 0 0 1 0 11 3 0 0 0 12.4563484
2054 4 14.0100002 -3.3729999 6.81 0 0 0 1 10 3 1 0 0 13.0122042
2066 5 -7.7329998 -17.2900009 10.5799999 0 0 0 1 10 4 0 0 0 12.7347641
2082 2 -16.0599995 -14.8900004 -13.1700001 0 0 1 2 6 3 1 0 0 11.9606582
2085 5 22.2999992 18.4699993 -17.8500004 0 0 0 0 12 0 0 0 0 11.6440668
2089 1 -12.9399996 -4.5910001 12.1700001 0 0 1 3 5 4 0 0 0 11.740573
2097 5 -0.8262 -7.2459998 -1.3530001 0 0 0 1 10 5 0 0 0 13.8155318
2104 2 15.7399998 -18.6800003 -16.1000004 0 0 0 0 12 0 0 0 0 11.1481676
2116 5 11.75 -13.8800002 -11.3599997 0 0 0 1 10 3 0 0 0 12.1662083
2119 2 -13.29 14.6599999 -4.0219998 0 0 0 0 12 0 0 0 0 11.4840679
2124 5 14.8800002 -15.7200003 13.6400004 0 0 0 1 10 2 0 0 0 11.717947
2126 5 13.5699997 -6.1420002 -13.2200003 0 0 1 3 4 5 1 0 0 12.4602337
2144 4 11.7399998 7.2350001 5.243 0 0 0 0 12 3 0 0 0 13.3440933
2147 1 11.9399996 -14.2399998 -16.0499992 0 0 1 1 9 0 2 0 0 11.8585406
2148 2 14.0900002 10.0900002 -6.2550001 0 0 1 1 9 3 0 0 0 11.8202162
2151 2 -9.3719998 6.7930002 21.5499993 0 0 0 0 12 0 0 0 0 11.3463183
2163 2 -2.319 15.5100003 10.3100004 0 0 0 0 12 0 0 0 0 11.2881222
2180 5 0.6043 0.8321 -10.4300003 0 0 1 2 7 4 0 0 0 12.0135813
2183 2 18.75 6.4829998 -12.7299996 0 0 0 2 10 1 0 0 0 12.2714033
2202 4 -12.9499998 12.1599999 18.8600006 0 0 0 1 10 4 0 0 0 12.7966757
2208 2 8.514 12.5500002 4.1570001 0 0 0 3 6 3 0 0 0 11.6747017
2214 2 3.569 -0.2291 -4.2709999 0 0 0 0 12 0 0 0 0 11.5357695
2219 5 18.3400002 -18.3099995 11.4799996 0 0 1 3 5 5 0 0 0 11.9242612
2224 5 -10.5699997 -18.3500004 -17.6000004 0 0 0 1 10 2 0 0 0 11.967765
2228 5 -9.4169998 16.3199997 -14.3699999 0 0 0 0 12 0 0 0 0 11.5646744
2231 5 8.6440001 21.5499993 21.3600006 0 0 0 1 10 5 0 0 0 13.6144705
2232 3 2.8169999 -17.7900009 -9.5850001 0 0 0 3 8 3 0 0 0 11.9637128
2256 2 -15.1599999 3.3369999 -16.6800003 0 0 0 2 10 1 0 0 0 11.9342766
2265 2 19.6900006 0.2099 -13.1800003 0 0 0 0 12 0 0 0 0 10.9627334
2273 5 9.6800003 -20.8400002 9.3520002 0 0 1 1 9 5 0 0 0 12.8828822
2274 1 19.8899994 6.086 7.467 0 0 1 1 9 4 0 0 0 11.76579
2284 5 13.9200002 14.8000002 -14.8800002 0 0 0 2 8 4 0 0 0 11.9459982
2285 4 -8.3350001 -8.0139999 -22.1700001 0 0 1 1 9 3 0 0 0 12.187664
2295 1 -13.8000002 12.3800001 5.8260002 0 0 0 0 12 0 0 0 0 11.2665177
2296 4 -17.1299992 3.006 8.5760002 0 0 1 1 8 3 1 0 0 12.3223581
2298 5 13.6300001 21.2700005 -6.4120002 0 0 0 0 12 2 0 0 0 12.929141
2304 4 12.4499998 -8.1000004 10.7299996 0 0 1 1 8 4 1 0 0 13.3338356
2314 4 -2.6760001 21.3700009 -20.6900006 0 0 0 3 6 4 0 0 0 11.7330742
2317 4 -2.389 1.679 19.6800003 0 0 1 0 9 3 0 0 0 11.2628088
2322 4 5.6199999 -7.5520001 -8.6099997 0 0 0 0 12 3 0 0 0 12.9933548
2337 5 16.5100003 -8.7030001 -14.8800002 0 0 2 2 6 5 0 0 0 12.7632418
2341 4 17.7399998 -5.4879999 -14.5500002 0 0 2 1 8 3 0 0 0 12.3694229
2368 2 1.3200001 -15.5900002 -15.6499996 0 0 0 1 10 2 0 0 0 11.7313404
2369 5 0.7283 14.0 -10.1700001 0 0 0 0 12 3 0 0 0 12.7879792
2385 4 -9.1009998 3.257 14.1300001 0 0 0 0 12 4 0 0 0 12.8963566
2386 2 21.0100002 21.0200005 -22.1100006 0 0 0 2 8 2 0 0 0 11.6730614
2407 2 1.859 8.2700005 2.6500001 0 0 1 3 5 4 0 0 0 11.5983286
2414 1 15.5200005 -12.3199997 -16.3299999 0 0 0 3 6 5 0 0 0 11.6210728
2427 4 -8.2600002 0.916 -16.8899994 0 0 0 0 12 2 0 0 0 12.4079905
2429 5 17.4699993 -17.5 20.9599992 0 0 0 3 6 5 0 0 0 12.1305075
2441 2 -9.434 -16.8099995 8.5010004 0 0 0 2 10 1 0 0 0 12.6251345
2442 4 19.0 2.207 -20.8700008 0 0 0 1 10 4 0 0 0 13.3909912
2443 5 21.7099991 20.5599995 2.879 0 0 0 3 6 5 0 0 0 12.0859127
2446 2 6.086 -9.809 -12.3900004 0 0 0 2 8 4 0 0 0 12.2448778
2451 2 -12.2600002 -4.3829999 1.461 0 0 1 3 5 4 0 0 0 11.4440966
2457 4 13.04 3.345 7.3670001 0 0 0 3 8 4 0 0 0 12.6737929
2482 5 -9.2670002 0.8803 -22.0100002 0 0 0 2 10 2 0 0 0 12.5609379
2489 2 5.0739999 -5.23 -7.962 0 0 0 4 8 0 0 0 0 11.6420508
2494 2 -13.54 -3.958 -8.8579998 0 0 0 2 8 5 0 0 0 13.0999165
2496 4 7.4460001 7.934 6.9190002 0 0 2 2 6 6 0 0 0 13.309186
2506 2 -8.0869999 20.5100003 0.4833 0 0 0 1 10 3 0 0 0 12.0901833
2513 5 17.6399994 17.4099999 -19.9799996 0 0 0 0 12 2 0 0 0 13.0539446
2520 4 -18.0699997 -11.6199999 18.8299999 0 0 1 2 7 6 0 0 0 12.260807
2521 2 1.6900001 14.54 9.9130002 0 0 0 0 12 0 0 0 0 11.6878567
2523 4 14.9099998 12.1800003 21.1100006 0 0 0 1 10 4 0 0 0 13.3827028
2527 1 -10.0900002 -11.1700001 -13.5699997 0 0 2 2 6 2 2 0 0 11.564251
2541 2 -6.277 14.0100002 19.9599992 0 0 1 4 5 4 0 0 0 11.8875628
2543 5 -13.0299997 1.151 -1.4270001 0 0 0 1 10 2 0 0 0 11.6754856
2545 5 -12.9099998 3.649 10.8400002 0 0 1 3 5 5 0 0 0 11.7815371
2548 2 -6.724 -6.7430001 -16.7399998 0 0 0 3 8 3 0 0 0 12.1231442
2553 2 -6.224 3.1619999 -12.3800001 0 0 0 2 8 4 0 0 0 12.3863583
2557 4 1.318 16.9500008 -14.3999996 0 0 0 2 8 4 0 0 0 12.5973397
2562 5 -2.0450001 18.7299996 -20.2900009 0 0 0 4 6 4 0 0 0 12.7332154
2564 4 9.1660004 8.7559996 -11.79 0 0 0 3 6 2 2 0 0 11.9801656
2573 5 13.7399998 -3.951 13.9700004 0 0 0 3 6 4 0 0 0 12.14293
2574 2 -7.0019999 -21.1100006 3.878 0 0 1 0 9 3 0 0 0 11.8618422
2594 2 8.7089997 -1.971 -7.5390001 0 0 1 2 7 3 2 0 0 12.1210518
2596 4 18.6100006 14.0699997 20.5300007 0 0 0 4 6 5 0 0 0 12.4513722
2600 1 19.6599999 -6.7670002 -1.801 0 0 0 0 12 0 0 0 0 11.3046265
2619 5 -6.2270002 -7.1690002 21.0300007 0 0 0 0 12 2 0 0 0 12.2031336
2627 4 -0.8376 -15.2600002 -16.9699994 0 0 2 2 10 2 0 0 0 13.071003
2632 4 3.6960001 0.7166 -20.7900009 0 0 0 1 10 2 0 0 0 12.5680228
2644 2 7.4130001 17.5599995 10.4200001 0 0 0 2 8 4 0 0 0 12.0258455
2647 4 16.2900009 -5.5370002 -18.6900006 0 0 0 0 12 2 0 0 0 12.2595854
2657 4 -9.5839997 18.7999993 -15.0200005 0 0 0 2 8 5 0 0 0 12.5878477
2664 5 -17.3299999 -5.375 -17.9799996 0 0 1 4 4 4 1 0 0 11.3799563
2666 2 20.1800003 -4.6160002 8.764 0 0 2 1 8 4 0 0 0 12.8239937
2675 4 -9.665 4.7750001 10.0799999 0 0 1 3 7 3 0 0 0 12.3426676
2680 4 -14.8500004 12.9899998 -2.3989999 0 0 0 0 12 3 0 0 0 12.6801605
2695 4 -2.0039999 -7.1849999 20.9500008 0 0 0 1 10 3 0 0 0 12.0325975
2700 1 21.0699997 0.1563 5.1350002 0 0 0 2 8 4 0 0 0 12.0262127
2719 4 -18.6200009 -15.9399996 8.4540005 0 0 0 0 12 0 0 0 0 11.2744293
2722 5 -13.8599998 21.0300007 1.0930001 0 0 0 2 8 3 0 1 0 12.5651551
2752 2 20.0200005 16.2299996 -4.9239998 0 0 2 1 8 2 2 0 0 12.2975931
2754 5 -15.25 9.3909998 16.0200005 0 0 0 1 10 2 0 0 0 11.5581951
2760 5 -2.8269999 0.4796 -20.2299996 0 0 0 1 10 2 0 0 0 12.3061314
2768 2 10.5200005 6.119 -4.9099998 0 0 0 3 6 6 0 0 0 11.7164307
2774 4 12.4499998 0.6619 6.9039998 0 0 1 1 9 4 0 0 0 12.4718237
2778 4 6.6680002 11.2100001 17.2999992 0 0 0 1 10 3 0 0 0 12.3368292
2782 4 -11.9399996 -20.9899998 13.1499996 0 0 0 1 10 4 0 0 0 13.3328581
2790 4 0.1668 17.7099991 3.2130001 0 0 0 2 8 5 0 0 0 12.7795592
2799 4 2.7890001 -12.0699997 -22.0100002 0 0 0 3 8 4 2 0 0 13.741148
2800 4 -11.2799997 16.7000008 -21.3299999 0 0 1 1 9 3 0 0 0 11.8603946
2802 5 -1.726 11.3999996 10.7799998 0 0 1 2 7 2 2 0 0 12.2279368
2820 4 15.0299997 -11.2100001 9.2629995 0 0 0 2 10 2 0 0 0 12.0253735
2823 4 -10.2100001 12.5100003 18.7399998 0 0 0 2 8 5 0 0 0 13.6435223
2824 4 18.0699997 7.0700002 5.691 0 0 0 1 12 1 0 0 0 12.2814465
2830 4 -17.4200001 -21.5799999 -16.25 0 0 0 1 10 3 0 0 0 12.7003451
2848 4 15.2799997 -17.7199993 1.016 0 0 0 4 6 3 0 0 0 11.2142878
2851 3 -13.0900002 2.382 -16.1000004 0 0 0 2 8 4 0 0 0 12.9368916
2857 4 -0.3287 20.8899994 -2.8800002 0 0 0 0 12 2 0 0 0 12.3143082
2885 2 18.3899994 17.6200009 -17.6800003 0 0 1 2 7 5 0 0 0 12.6575222
2895 4 5.0650001 -19.8799992 -4.9070002 0 0 0 4 6 4 0 0 0 12.0064983
2899 5 17.9200002 -12.4899998 -1.6260001 0 0 0 2 10 2 0 0 0 12.2150908
2906 4 16.9200002 9.7340002 2.3080001 0 0 0 1 10 2 0 0 0 12.6611109
2908 5 -0.1848 8.8290005 0.4711 0 0 1 1 7 5 0 0 0 12.3757792
2914 2 0.1344 -1.949 -6.7319999 0 0 0 2 8 2 0 0 0 11.1950321
2932 4 -10.7600003 -14.2600002 -1.3250001 0 0 0 2 8 4 0 0 0 12.3334055
2955 4 -6.0770001 8.5860005 -13.9300004 0 0 1 6 2 2 3 0 0 12.0045128
2975 5 8.7469998 -4.2649999 -6.7430001 0 0 0 0 12 0 0 0 0 11.7351246
2985 4 -1.689 3.629 -16.5100003 0 0 0 1 10 2 0 0 0 11.5562554
2993 4 15.0200005 -0.3987 10.04 0 0 0 4 6 4 0 0 0 12.2832766
2994 4 -10.8800002 -14.6999998 -14.4499998 0 0 0 1 10 4 0 0 0 12.3394232
3004 5 12.7299996 -1.993 -9.1470003 0 0 0 1 12 3 0 0 0 12.9955168
3009 4 8.467 -10.4600001 -7.848 0 0 0 0 12 0 0 0 0 11.369585
3020 5 10.9499998 20.3700009 -9.4610005 0 0 0 1 10 2 0 0 0 12.0533581
3025 2 -16.9599992 -9.073 -3.514 0 0 0 1 10 2 0 0 0 12.0823402
3038 2 -16.4200001 6.4980002 19.9099998 0 0 0 0 12 0 0 0 0 11.2036619
3060 4 -8.4280005 20.9400006 -15.75 0 0 0 2 8 2 0 0 0 11.1898298
3068 2 6.5749998 3.0769999 6.6750002 0 0 0 3 6 4 0 0 0 11.2586088
3090 5 19.8799992 -9.8879996 20.0699997 0 0 0 2 8 4 0 0 0 12.6162405
3100 4 -0.9783 1.914 0.2386 0 0 0 1 10 2 0 0 0 11.4869385
3113 2 -19.8899994 -19.1599999 -14.3400002 0 0 0 1 10 2 0 0 0 11.657835
3115 4 0.2614 8.0600004 -1.939 0 0 0 1 10 3 0 0 0 13.0581694
3118 4 3.6670001 -2.7690001 -3.4960001 0 0 0 0 12 3 0 0 0 13.7454119
3134 2 6.02 7.5510001 -14.5100003 0 0 0 0 12 0 0 0 0 10.786253
3150 2 19.0799999 18.9799996 8.1520004 0 0 0 3 6 4 0 0 0 11.8091469
3151 4 -14.4799996 16.9500008 20.3199997 0 0 0 1 10 4 0 0 0 12.6512747
3152 4 -0.5665 -17.3199997 -15.5200005 0 0 0 0 12 0 0 0 0 11.5705509
3158 2 13.1499996 -7.5510001 3.763 0 0 0 1 10 2 0 0 0 11.8233023
3159 5 -4.559 15.3400002 -5.6880002 0 0 0 2 8 4 0 0 0 11.7416086
3165 5 13.1599999 -15.3299999 18.4300003 0 0 0 2 8 4 0 0 0 12.7295437
3167 2 -0.566 2.961 20.3899994 0 0 1 1 9 2 0 0 0 11.5046587
3174 4 -3.4749999 -0.4123 -5.3350001 0 0 1 2 8 3 1 1 0 13.6572743
3178 4 19.3500004 -10.1700001 10.6899996 0 0 0 0 12 3 0 0 0 13.148036
3180 2 19.9599992 19.8799992 -6.9200002 0 0 1 4 4 5 1 0 0 12.3621607
3182 4 16.7800007 -18.4799996 -18.5900002 0 0 0 1 10 5 0 0 0 12.975359
3185 5 2.03 5.1950002 6.5679999 0 0 0 2 10 2 0 0 0 12.4150047
3186 5 7.4130001 -1.742 -1.6900001 0 0 0 2 10 1 0 0 0 11.7058983
3199 5 11.8299999 18.5499993 0.7079 0 0 0 3 8 3 0 0 0 12.4924679
3201 5 -13.4300003 18.9699994 -13.3000002 0 0 1 2 9 4 0 0 0 12.6056328
3220 4 -6.8350001 19.5499993 -14.4600001 0 0 1 2 6 6 1 0 0 13.1433153
3222 4 15.2399998 -2.368 -9.7430001 0 0 0 3 8 2 0 0 0 11.9473268
3234 4 -6.0700002 -7.4089999 5.2220001 0 0 0 1 10 4 0 0 0 12.8496896
3240 1 4.3319998 8.1780005 -12.7100001 0 0 0 0 12 0 0 0 0 11.2188597
3241 4 -10.6099997 21.4699993 -14.75 0 0 0 0 12 2 0 0 0 12.2888556
3246 5 -0.8045 -20.9599992 4.368 0 0 0 3 6 5 0 0 0 12.6691418
3267 5 5.211 -13.9300004 -7.6770001 0 0 0 1 12 2 0 0 0 12.7017756
3286 5 12.5799999 -7.914 15.0600004 0 0 0 0 12 0 0 0 0 11.3569555
3287 5 12.1499996 15.3299999 -16.6100006 0 0 0 1 10 2 0 0 0 12.009428
3298 5 4.8940002 -21.2199993 14.6999998 0 0 0 2 10 2 0 0 0 12.3185454
3301 5 20.6700001 16.0499992 -7.1869998 0 0 0 0 12 0 0 0 0 11.4574967
3315 4 4.4450002 -10.7799998 9.9870006 0 0 1 3 5 6 0 0 0 12.2911415
3323 5 -16.5799999 0.1609 12.3400002 0 0 2 1 6 3 0 0 0 10.7670765
3337 5 -8.0670004 -16.0300007 1.347 0 0 0 0 12 0 0 0 0 10.6000834
3343 5 -9.7030001 19.2999992 -6.711 0 0 0 0 12 0 0 0 0 11.7272635
3346 2 -17.6700001 -15.8100004 -4.3460002 0 0 0 2 8 2 0 0 0 11.3877516
3357 4 -11.0500002 12.79 -6.5450001 0 0 0 2 8 4 0 0 0 12.2514534
3362 1 -18.1499996 -5.8299999 -20.3600006 0 0 0 5 4 3 0 0 0 11.4078283
3365 5 -15.3599997 -3.119 -0.7317 0 0 1 4 5 4 0 0 0 12.7331705
3387 5 20.3600006 17.6599999 -19.5499993 0 0 0 0 12 2 0 0 0 12.5370894
3406 5 -9.5699997 6.6479998 -0.4338 0 0 1 1 9 3 0 0 0 11.8220091
3408 5 -14.5600004 4.6620002 -13.8199997 0 0 0 3 6 5 0 0 0 12.2014065
3414 2 20.3299999 21.0100002 -4.8140002 0 0 2 2 7 1 1 0 0 11.5066738
3433 4 -0.1246 17.9699994 -12.25 0 0 0 0 12 3 0 0 0 12.935794
3438 5 19.8700008 -17.1700001 -21.5900002 0 0 1 3 6 5 1 0 0 14.6094818
3444 5 13.3900004 -13.4300003 2.9860002 0 0 1 0 10 2 1 0 0 13.2947168
3446 4 11.5100003 -10.25 6.8709998 0 0 0 1 10 5 0 0 0 14.3277063
3454 2 11.7299996 14.4300003 2.806 0 0 1 2 6 3 1 0 0 12.0340023
3456 5 -18.9300004 -19.6800003 6.7610002 0 0 1 1 9 5 0 0 0 12.5590124
3465 5 -11.5900002 0.7741 -9.1129999 0 0 0 0 12 0 0 0 0 10.9894286
3467 4 4.3280001 -5.9120002 -10.0799999 0 0 0 2 8 2 0 0 0 11.8083554
3471 2 -16.8600006 -20.8700008 16.6100006 0 0 0 0 12 0 0 0 0 10.6399117
3481 4 1.648 -14.75 -17.8099995 0 0 0 1 10 2 0 0 0 11.3539572
3482 3 -14.3100004 8.5200005 4.1739998 0 0 1 2 7 2 2 0 0 12.0126219
3489 2 -5.3350001 -7.3390002 -19.5599995 0 0 1 2 7 4 0 0 0 11.6385212
3497 2 20.1200008 11.0100002 7.5289998 0 0 0 2 8 2 0 0 0 10.8858614
3501 4 9.474 -6.6300001 9.5039997 0 0 1 2 4 5 1 0 0 11.9160434
3516 4 18.7299996 -9.2010002 2.3529999 0 0 0 1 10 4 0 0 0 12.2899351
3529 5 13.4300003 -8.6350003 -2.1500001 0 0 0 2 8 5 0 0 0 12.3139448
3536 5 -18.3899994 -22.1299992 1.5570001 0 0 0 2 8 4 0 0 0 12.576747
3540 4 3.5550001 2.586 -7.9190002 0 0 0 0 12 0 0 0 0 11.6518383
3544 4 -10.1000004 2.916 21.4099999 0 0 0 1 10 2 0 0 0 11.8611232
3561 5 -2.2820001 14.3599997 6.1880002 0 0 0 2 8 4 0 0 0 12.2278738
3563 2 -10.6499996 -7.1620002 -22.1000004 0 0 0 1 10 2 0 0 0 11.968937
3569 2 -17.0 -6.856 -13.3900004 0 0 0 0 12 0 0 0 0 11.1063099
3571 4 1.043 10.9700004 0.5075 0 0 1 2 7 5 0 0 0 13.6176501
3589 4 -17.6200009 -7.0949998 -8.2259998 0 0 1 3 5 5 0 0 0 12.0692816
3597 2 14.5 -0.07833 -9.4779997 0 0 0 1 10 2 0 0 0 12.4059887
3613 4 -1.486 16.2199993 -13.2700005 0 0 0 2 8 4 0 0 0 12.2675324
3614 4 -4.0640001 2.2650001 7.1459999 0 0 0 2 8 4 0 0 0 11.9389334
3617 5 -12.4300003 -22.1299992 0.407 0 0 0 3 6 4 0 0 0 12.2293854
3634 5 16.25 -13.4099999 -6.4390002 0 0 0 1 10 4 0 0 0 12.1959276
3636 4 6.4130001 -16.3299999 -0.9055 0 0 0 2 8 4 0 0 0 12.0594988