ITEM: TIMESTEP
0
ITEM: NUMBER OF ATOMS
50688
ITEM: BOX BOUNDS xy xz yz pp pp pp
-20.3679009 76.7267151 16.8138047
-22.2159996 65.355896 0.0
-22.2159996 65.355896 0.0
ITEM: ATOMS id type x y z VoronoiIndex1 VoronoiIndex2 VoronoiIndex3 VoronoiIndex4 VoronoiIndex5 VoronoiIndex6 VoronoiIndex7 VoronoiIndex8 VoronoiIndex9 AtomicVolume
9 1 -13.3199997 -11.4700003 4.2379999 0 0 0 2 8 2 0 0 0 11.5190163
25 2 7.7649999 19.9200002 18.1900005 0 0 0 0 12 0 0 0 0 11.2079401
35 2 21.0699997 15.3400002 -13.0600004 0 0 0 4 6 4 0 0 0 12.340066
42 2 21.8799992 15.6400004 -9.0979996 0 0 0 2 10 0 0 0 0 11.6483574
57 5 4.6700001 -3.395 -19.5599995 0 0 0 1 10 2 0 0 0 12.1325216
71 2 3.158 18.9200002 -13.8599998 0 0 0 0 12 0 0 0 0 11.4760952
81 4 12.9099998 -2.949 -9.2449999 0 0 0 0 12 0 0 0 0 10.927004
82 5 -15.0500002 -12.79 -21.3500004 0 0 0 1 12 1 0 0 0 12.4386425
91 2 2.2880001 19.8400002 -10.1899996 0 0 0 2 8 2 0 0 0 11.348444
101 1 -10.8500004 -17.6000004 -3.684 0 0 0 3 6 3 2 0 0 12.7022333
105 4 2.2019999 14.1400003 -15.9499998 0 0 0 5 4 4 0 0 0 11.5644961
110 5 -9.2530003 -15.87 2.6080001 0 0 1 3 7 4 0 0 0 12.4010182
112 2 10.0299997 -3.5539999 14.8500004 0 0 1 2 7 3 0 0 0 11.9155828
128 5 -15.6999998 -13.6899996 8.0579996 0 0 0 2 7 3 1 0 0 12.7256193
141 5 3.5280001 8.6309996 -9.1870003 0 0 0 4 4 6 0 0 0 12.4746657
147 5 10.79 -1.808 11.2799997 0 0 1 1 8 3 1 0 0 12.2169075
159 4 14.0699997 -2.6640001 15.3699999 0 0 0 2 8 4 0 0 0 12.2235766
165 1 20.1200008 -10.7600003 -14.7700005 0 0 0 0 12 0 0 0 0 10.7946568
168 5 2.972 -6.8850002 -15.1099997 0 0 0 0 12 0 0 0 0 11.4684181
171 2 -1.851 8.323 -10.3900004 0 0 0 4 4 6 0 0 0 11.5965128
174 4 -7.5040002 17.25 11.8900004 0 0 0 3 6 6 0 0 0 12.0196352
184 2 12.3699999 -0.9727 13.0799999 0 0 0 2 8 4 0 0 0 11.8152323
186 5 13.3000002 12.9899998 -15.7700005 0 0 0 4 6 3 0 0 0 11.7025709
196 5 9.2629995 -7.013 -1.919 0 0 0 2 10 1 0 0 0 11.7262936
214 2 0.3954 17.7700005 -18.0900002 0 0 0 2 8 2 0 0 0 11.5514937
217 2 -16.6399994 -6.6170001 19.2700005 0 0 1 3 5 5 0 0 0 12.0107336
243 4 2.25 2.701 14.2600002 0 0 0 3 6 6 0 0 0 13.0761585
244 5 9.3870001 -11.9200002 19.0599995 0 0 0 4 6 4 0 0 0 12.6243706
245 1 -10.5200005 4.8270002 -19.7299996 0 0 0 1 10 2 0 0 0 10.7852164
247 2 10.9200002 14.6400004 -4.9380002 0 0 0 2 10 0 0 0 0 11.5213175
254 2 -7.9400002 18.9200002 -7.467 0 0 0 2 8 2 0 0 0 11.264081
273 4 18.2399998 -11.7299996 0.3728 0 0 0 2 8 2 2 0 0 12.8647662
275 4 14.5699997 -0.07418 12.1099997 0 0 0 3 5 4 1 0 0 11.8180275
295 4 -3.9300002 4.4990001 -9.1190004 0 0 1 1 9 4 0 0 0 12.3671703
299 5 0.2292 20.1900005 -18.8899994 0 0 0 0 12 3 0 0 0 12.2909231
300 2 17.0300007 -8.4460001 1.576 0 0 0 3 5 3 1 0 0 11.9162102
313 5 -2.3710001 -12.5500002 3.4330001 0 0 0 2 10 3 0 0 0 13.5232392
314 5 -17.9400006 -20.1200008 3.276 0 0 0 2 8 2 0 0 0 11.2071877
327 4 -3.017 -0.7901 14.7700005 0 0 0 3 6 4 0 0 0 11.9197932
335 1 -9.4069996 17.9699994 -14.1800003 0 0 0 0 12 0 0 0 0 11.7635279
341 5 27.2299996 18.2099991 10.2700005 0 0 0 1 10 2 0 0 0 11.942359
348 4 -8.877 4.79 11.7700005 0 0 0 4 4 4 0 0 0 11.4746914
360 4 8.3940001 -20.4400006 -7.8350001 0 0 0 3 8 6 0 0 0 14.4336033
364 4 -8.0389996 5.3150001 -16.2900009 0 0 1 3 6 3 1 0 0 13.0218439
387 4 13.8999996 -11.1899996 0.8302 0 0 0 3 8 4 0 0 0 12.2001877
397 1 -8.3030005 3.8120001 19.2600002 0 0 0 1 10 2 0 0 0 11.3525753
410 4 7.0700002 -3.4000001 7.5879998 0 0 0 2 10 2 0 0 0 12.6991501
412 1 -5.8239999 14.3599997 -5.9000002 0 0 1 4 5 4 0 0 0 12.1772289
415 2 -7.949 3.648 -12.4799996 0 0 0 3 6 4 0 0 0 12.2011013
419 2 4.4619999 -9.4560004 -11.25 0 0 0 3 6 4 0 0 0 11.4246454
420 5 8.3509998 -9.9659996 -10.6999998 0 0 0 2 8 3 0 0 0 11.9824944
432 5 3.9360002 10.4899998 8.3800001 0 0 0 2 10 3 0 0 0 12.6461516
438 4 -14.0 -19.0599995 16.7299996 0 0 1 3 6 4 1 0 0 13.0773354
439 4 -7.5419998 19.0699997 -15.4099999 0 0 0 1 12 1 0 0 0 13.0144091
442 4 6.0560002 18.6499996 -18.3199997 0 0 2 3 4 5 0 0 0 12.3072424
453 4 0.1519 2.849 7.901 0 0 0 4 5 4 1 0 0 12.8615438
459 4 -11.8199997 2.7219999 -20.6700001 0 0 0 1 10 2 0 0 0 11.8020287
465 3 18.1100006 -9.9820004 -15.5900002 0 0 1 0 11 1 0 0 0 11.8434468
477 5 -14.4300003 -4.5749998 -3.494 0 0 1 4 5 3 2 0 0 12.7154627
485 4 6.7480002 5.8540002 -15.5299998 0 0 0 0 12 2 0 0 0 12.6961966
515 5 -2.4530001 -12.1000004 16.8999996 0 0 0 0 12 2 0 0 0 11.9288636
520 5 3.3269999 -15.1800003 11.0600004 0 0 1 3 4 6 1 0 0 13.3515139
533 4 10.5299998 5.844 -4.5890003 0 0 0 4 10 2 0 0 0 13.4695492
537 2 16.6100006 9.1800003 -9.4820004 0 0 0 2 8 1 0 0 0 11.2543469
540 5 -10.7399998 -15.2700005 0.643 0 0 0 0 12 0 0 0 0 11.1653538
550 4 6.5900002 -9.2139998 12.25 0 0 0 1 10 3 0 0 0 11.9016132
562 2 1.88 -11.2399998 -21.9400006 0 0 0 3 8 2 0 0 0 11.590993
564 4 12.7299996 -0.1071 17.9099998 0 0 0 4 6 5 0 0 0 12.6001511
567 4 4.929 -12.7100001 20.8700008 0 0 0 0 12 0 0 0 0 11.0363894
574 5 14.8100004 -16.0300007 -12.9799996 0 0 0 1 10 3 0 0 0 12.7301197
580 2 14.7700005 -15.0 -10.6999998 0 0 1 3 4 4 1 0 0 11.4635258
585 4 10.4099999 -8.5850001 -11.6999998 0 0 0 2 8 5 0 0 0 13.236682
603 5 -12.25 -16.8299999 -0.6312 0 0 0 1 10 3 0 0 0 12.9358168
604 4 21.1700001 -8.4239998 16.6499996 0 0 0 2 10 2 0 0 0 12.1816807
616 4 23.0300007 -4.2560001 16.1299992 0 0 0 1 10 4 0 0 0 13.363205
620 4 2.4730001 18.1299992 8.052 0 0 1 1 8 3 1 0 0 12.7035914
622 5 0.9392 -3.1389999 5.4130001 0 0 0 0 12 2 0 0 0 12.0716724
634 4 -8.0410004 -21.6900006 -0.2426 0 0 0 2 8 4 0 0 0 12.1545515
642 4 -5.487 4.6139999 -19.9099998 0 0 0 0 12 3 0 0 0 13.2353192
643 5 14.4399996 0.6989 -17.6100006 0 0 0 2 8 2 0 0 0 11.5811997
650 2 15.6800003 -12.6199999 17.2299996 0 0 0 0 12 0 0 0 0 11.707635
653 4 -1.97 -15.1899996 3.257 0 0 0 1 10 6 0 0 0 14.4876499
654 4 0.2604 -6.8369999 -0.5396 0 0 0 2 10 2 0 0 0 12.2099371
656 4 4.546 -12.9300004 14.9499998 0 0 0 1 10 2 0 0 0 12.3850842
665 4 -9.1610003 -5.9780002 -22.0499992 0 0 0 3 6 5 0 0 0 11.962677
666 4 -11.8999996 -9.592 -0.03945 0 0 1 2 7 3 0 0 0 11.7243223
667 5 24.0300007 0.9378 7.5250001 0 0 0 0 12 0 0 0 0 10.517664
671 2 17.6700001 -0.6055 17.3299999 0 0 1 0 9 3 0 0 0 11.6333647
673 2 9.5839997 6.6799999 12.5900002 0 0 0 0 12 0 0 0 0 11.2538071
679 4 9.6709996 14.6199999 17.6000004 0 0 0 0 12 0 0 0 0 12.1119022
683 5 -6.2880001 13.0299997 18.3799992 0 0 1 0 8 3 1 0 0 12.3389177
687 5 12.9399996 -9.87 19.7299996 0 0 0 1 10 2 0 0 0 11.5006361
712 4 24.7000008 10.6700001 -15.5799999 0 0 0 2 8 5 0 0 0 12.9198732
716 4 0.9525 6.231 4.4499998 0 0 0 2 10 1 0 0 0 11.6525345
717 4 4.0110002 -18.6599999 1.729 0 0 1 2 7 5 0 0 0 12.2939663
719 4 23.9699994 2.1429999 -11.1199999 0 0 0 3 6 5 0 0 0 11.994753
728 5 4.7779999 1.507 4.0830002 0 0 0 2 10 4 0 0 0 13.0357428
740 2 20.8999996 4.468 17.7700005 0 0 1 2 7 4 0 0 0 11.996479
743 5 20.7199993 -14.7700005 -18.9300004 0 0 1 2 7 2 2 0 0 12.384181
745 4 -1.163 -14.1199999 -17.9099998 0 0 0 1 10 3 0 0 0 12.1654835
761 5 -5.2100001 13.7600003 -12.2100001 0 0 0 3 6 4 0 0 0 11.3933268
775 2 -4.862 -11.4600001 21.3500004 0 0 0 3 6 4 0 0 0 11.2737627
776 4 19.0 6.9060002 4.9250002 0 0 0 2 10 0 0 0 0 11.5875359
781 4 -9.4930001 -17.8999996 -11.5200005 0 0 1 2 6 3 1 1 0 12.6465893
799 4 23.8899994 4.8299999 -1.332 0 0 1 0 9 3 0 0 0 11.5239926
806 4 -7.717 6.2470002 16.4899998 0 0 0 1 10 2 0 0 0 11.87955
832 5 21.3500004 -11.9399996 8.5089998 0 0 0 3 8 1 0 0 0 12.0043716
843 2 2.451 -2.2090001 -8.0699997 0 0 0 3 8 1 0 0 0 11.3702555
846 3 16.6200009 -14.5100003 -14.5500002 0 0 1 1 7 3 2 0 0 12.1903772
860 4 22.8799992 2.2449999 14.3100004 0 0 0 2 8 4 0 0 0 11.7142658
864 2 4.9050002 -2.1730001 0.9419 0 0 0 2 8 2 0 0 0 11.8940172
897 5 4.803 -3.2490001 11.0200005 0 0 0 2 8 2 0 0 0 11.3140516
902 2 -19.3999996 -21.2900009 20.5100003 0 0 1 2 7 2 0 0 0 11.096077
905 4 18.7299996 -3.763 -2.8610002 0 0 0 0 12 2 0 0 0 11.9605122
917 5 7.2329998 -12.25 20.2999992 0 0 0 2 8 2 0 0 0 11.7242508
949 2 13.75 4.5570002 20.8799992 0 0 0 1 10 3 0 0 0 12.4524489
952 2 10.5600004 1.5240001 1.076 0 0 0 0 12 2 0 0 0 13.1984005
961 2 -3.7650001 -18.6800003 -6.2059999 0 0 0 4 4 5 0 0 0 10.9339142
990 4 3.0250001 -12.8900004 -20.2900009 0 0 1 1 10 1 1 0 0 12.1381731
996 5 12.0 -8.4829998 15.8800002 0 0 0 1 10 3 0 0 0 11.4679537
999 4 2.148 10.6899996 -10.2200003 0 0 0 1 10 3 0 0 0 12.302352
1009 5 8.4980002 12.5600004 18.1900005 0 0 1 0 11 1 0 0 0 11.1651697
1018 3 23.75 18.4599991 13.4899998 0 0 0 1 10 3 0 0 0 12.6635828
1023 2 16.6000004 -2.5109999 -16.0100002 0 0 0 1 10 2 0 0 0 12.1134043
1027 4 -7.0440002 -8.2799997 19.2600002 0 0 0 3 8 2 0 0 0 11.8916216
1034 4 13.1700001 7.9200002 -14.1599999 0 0 0 1 10 2 0 0 0 11.7795992
1039 5 9.9230004 11.9099998 -21.0200005 0 0 0 3 7 3 1 0 0 12.118062
1040 1 6.2069998 -13.8199997 -21.1000004 0 0 2 1 7 3 1 0 0 11.5529604
1063 5 15.2700005 -19.7600003 -14.8800002 0 0 0 1 10 2 0 0 0 11.7539234
1067 3 16.7199993 -6.2919998 -19.3099995 0 0 1 2 7 5 0 0 0 12.86366
1068 5 -4.4520002 7.0809999 -1.919 0 0 1 2 9 2 0 0 0 12.075202
1087 4 -12.8999996 15.8800002 -0.5247 0 0 0 3 6 4 0 0 0 12.392725
1089 4 -4.2270002 -5.981 4.0450001 0 0 0 0 12 4 0 0 0 13.3873263
1091 5 -3.039 -14.6899996 8.1730003 0 0 1 1 9 3 0 0 0 12.2329826
1094 5 9.7060004 3.395 19.3299999 0 0 1 2 9 2 0 0 0 12.7192288
1097 1 22.6800003 0.8981 -17.5400009 0 0 0 0 12 0 0 0 0 11.04531
1101 4 -10.0200005 -14.3800001 11.0500002 0 0 0 0 12 3 0 0 0 13.0796862
1111 4 -15.7799998 -18.9599992 19.8999996 0 0 0 3 6 4 0 0 0 12.0407667
1113 4 13.4600001 5.6040001 18.7199993 0 0 0 2 10 0 0 0 0 11.1472797
1119 4 16.6200009 -6.599 19.7299996 0 0 0 3 6 4 0 0 0 12.2025013
1127 2 -5.1259999 16.3999996 -2.312 0 0 1 2 9 2 0 0 0 12.0446968
1129 2 18.2999992 20.4400006 19.9500008 0 0 0 2 10 0 0 0 0 11.4581003
1143 5 -4.579 13.1700001 0.3038 0 0 0 2 8 5 0 0 0 12.8981944
1147 4 -13.2299996 0.8763 -9.9420004 0 0 0 3 8 3 0 0 0 12.440589
1152 2 -12.4200001 -11.2100001 -6.5040002 0 0 0 0 12 0 0 0 0 11.5934773
1158 2 3.3840001 15.0900002 13.4300003 0 0 0 0 12 0 0 0 0 11.6103621
1161 4 9.4320002 -0.4814 -2.9920002 0 0 0 0 12 3 0 0 0 12.748785
1167 4 19.2000008 -4.5850001 -0.6441 0 0 0 0 12 0 0 0 0 11.087554
1171 5 -1.4980001 1.6030001 14.1099997 0 0 0 2 8 5 0 0 0 12.159543
1175 4 7.4510002 18.3899994 16.0400009 0 0 0 0 12 3 0 0 0 12.2445383
1185 2 8.2749996 -3.204 -21.5100003 0 0 0 0 12 0 0 0 0 11.8566618
1190 2 -11.4899998 -13.9099998 -16.2800007 0 0 0 1 10 2 0 0 0 11.4800864
1191 4 -12.0699997 20.4099999 -11.7299996 0 0 0 5 8 2 0 0 0 12.6472082
1207 5 12.1899996 19.25 18.2999992 0 0 0 2 10 0 0 0 0 11.6222048
1208 4 15.8199997 18.5599995 -4.883 0 0 0 2 8 5 0 0 0 12.8981362
1212 4 8.4309998 -2.421 11.5500002 0 0 0 3 6 4 1 0 0 12.6132765
1214 5 17.2600002 5.0110002 15.8000002 0 0 0 3 8 1 0 0 0 11.5008259
1217 5 -7.7950001 11.0900002 4.2839999 0 0 0 1 10 4 0 0 0 12.3744221
1226 4 11.6300001 19.9799996 -15.9700004 0 0 0 5 6 2 0 0 0 11.9138862
1243 2 -1.168 -20.8099995 18.8500004 0 0 0 2 8 2 0 0 0 11.5044174
1245 5 17.6399994 -14.3500004 1.36 0 0 1 1 9 3 0 0 0 12.3579664
1246 4 9.8800002 12.1599999 -10.7600003 0 0 1 1 9 5 0 0 0 13.4666252
1249 2 -10.0299997 -6.6820002 21.0 0 0 0 0 12 0 0 0 0 10.8708316
1250 2 -5.4400001 13.5699997 6.9569998 0 0 0 1 10 2 0 0 0 11.3975201
1252 4 -17.2900009 -16.3799992 -18.9300004 0 0 0 1 10 5 0 0 0 13.3151894
1261 4 5.3150001 -0.1441 -0.7052 0 0 0 1 10 2 0 0 0 11.5819454
1269 5 -18.5 -18.3899994 -7.349 0 0 1 3 4 5 1 0 0 11.9801016
1270 2 -0.05264 7.7800002 0.2239 0 0 0 2 8 3 0 0 0 12.1301432
1295 4 -4.7379999 -19.9500008 -4.27 0 0 0 2 8 4 0 0 0 12.596385
1305 5 -1.182 18.8999996 14.5 0 0 1 4 3 7 0 0 0 12.9617558
1306 5 -3.674 17.2700005 -8.6759997 0 0 0 0 12 0 0 0 0 11.4008341
1318 5 -1.566 -2.3770001 -13.6899996 0 0 1 2 8 4 1 0 0 13.282115
1328 2 6.3140001 15.4099999 -5.243 0 0 0 0 12 0 0 0 0 10.9857818
1333 5 22.4799996 -6.1300001 11.7200003 0 0 0 2 8 4 0 0 0 12.8855228
1335 5 -4.7430001 2.118 20.8799992 0 0 0 1 10 3 0 0 0 12.871026
1337 4 14.7399998 -13.1899996 -7.5450001 0 0 0 3 6 4 0 0 0 12.1209612
1340 4 15.1000004 15.7399998 -0.3085 0 0 0 3 6 6 0 0 0 13.0819454
1352 4 -19.6000004 -21.1800003 17.8999996 0 0 0 1 10 4 0 0 0 12.4905615
1357 5 15.2700005 -9.1540003 -4.9990002 0 0 0 1 10 4 0 0 0 12.7459526
1371 4 17.1200008 9.2849999 -1.704 0 0 1 0 11 1 0 0 0 11.7232056
1374 4 15.54 -6.6279998 1.559 0 0 0 1 9 2 1 0 0 12.3449583
1384 2 20.2199993 -12.8500004 -13.4399996 0 0 0 2 8 4 0 0 0 11.6702919
1386 2 6.89 2.628 4.7449999 0 0 1 2 7 3 0 0 0 11.4887095
1388 5 11.7399998 -2.2130001 -7.3020001 0 0 0 2 8 2 0 0 0 11.2966461
1393 4 2.988 -5.0339999 5.0100002 0 0 0 1 10 2 0 0 0 12.365592
1410 1 24.7199993 12.4399996 0.3267 0 0 0 0 12 0 0 0 0 10.7686033
1415 4 0.4344 -11.9799996 -2.3340001 0 0 1 1 9 5 0 0 0 13.3728705
1419 4 10.7600003 -17.3700009 -14.04 0 0 0 0 12 2 0 0 0 12.4080706
1426 5 26.5300007 13.1099997 19.9099998 0 0 0 0 12 0 0 0 0 11.3701239
1427 5 17.4099999 -16.2900009 -3.0079999 0 0 0 0 12 0 0 0 0 11.1795731
1433 5 -0.4159 -3.3239999 14.7299996 0 0 0 2 8 5 0 0 0 13.0338154
1444 4 -5.2709999 3.995 11.4200001 0 0 0 1 10 2 0 0 0 12.0724773
1447 4 1.5520001 -18.4799996 15.04 0 0 0 2 10 3 0 0 0 13.3270111
1450 1 17.7700005 5.5999999 -6.1820002 0 0 1 4 3 5 0 0 0 11.3939667
1452 4 -9.5419998 -7.1350002 -19.6700001 0 0 2 1 6 4 2 0 0 11.7045279
1469 2 1.8150001 -15.7100001 -1.958 0 0 0 1 10 2 0 0 0 11.9647608
1471 5 -19.5100003 -19.7600003 -11.3599997 0 0 0 0 12 2 0 0 0 11.8841926
1476 5 3.119 -21.9400006 -0.9073 0 0 1 4 3 6 0 0 0 12.9851418
1487 4 -0.01624 -14.0500002 -9.1669998 0 0 0 3 8 3 0 0 0 12.9942446
1504 5 9.3120003 6.3200002 -16.5599995 0 0 1 3 5 5 0 0 0 12.2318735
1516 2 17.2800007 19.0599995 -2.9820002 0 0 1 0 9 3 0 0 0 11.1321955
1528 2 17.9699994 -19.8500004 17.0400009 0 0 0 0 12 0 0 0 0 11.1686373
1533 2 8.0830002 2.4070001 -5.8220001 0 0 0 0 12 0 0 0 0 11.3853541
1534 4 8.0719996 17.0699997 0.9422 0 0 0 2 9 3 1 0 0 13.416543
1548 4 9.2720003 -15.1999998 16.6100006 0 0 0 2 8 5 0 0 0 13.093894
1550 4 -3.9070002 -12.2399998 -13.3100004 0 0 1 2 7 5 0 0 0 12.8091831
1561 4 -13.1099997 3.8410002 5.2919998 0 0 0 1 10 3 0 0 0 11.7816067
1566 1 7.612 2.3829999 -8.4860001 0 0 0 1 10 4 0 0 0 12.7350178
1581 2 4.2020001 10.7100001 -4.0479999 0 0 0 0 12 0 0 0 0 11.8181057
1584 2 20.0900002 19.1399994 19.0599995 0 0 0 0 12 0 0 0 0 11.0058212
1585 3 -10.3800001 -16.5599995 16.1299992 0 0 0 0 12 2 0 0 0 12.3366728
1595 5 2.3280001 2.5320001 -12.7200003 0 0 1 2 7 3 0 1 0 12.406826
1605 5 5.982 -4.1160002 0.08922 0 0 0 2 8 4 0 0 0 12.254839
1619 5 25.3600006 20.5900002 -11.9300004 0 0 0 1 10 3 0 0 0 11.9147158
1622 4 8.5290003 15.7200003 -1.6030001 0 0 0 0 12 3 0 0 0 13.5278368
1625 4 7.0240002 -5.8239999 8.382 0 0 0 2 12 1 0 0 0 12.7479477
1630 4 -1.2410001 -14.6000004 12.6300001 0 0 0 1 12 2 0 0 0 13.1934357
1632 4 -1.01 -4.4260001 -12.6300001 0 0 0 3 6 4 0 0 0 11.8220005
1644 4 5.7529998 14.1700001 13.8999996 0 0 0 0 12 3 0 0 0 13.1739483
1661 5 19.9099998 2.2560001 -19.6900006 0 0 0 1 10 2 0 0 0 12.3695469
1667 4 -5.2090001 10.9200002 -9.1459999 0 0 0 2 8 5 0 0 0 12.5444536
1672 4 5.9499998 -18.4500008 -20.5699997 0 0 0 2 8 2 0 0 0 11.935403
1687 5 14.1300001 -0.347 14.54 0 0 0 4 6 5 0 0 0 12.2522287
1694 2 16.0400009 -0.6075 3.3380001 0 0 1 0 9 3 0 0 0 11.4311476
1699 4 16.3199997 -7.651 8.3350001 0 0 0 2 8 4 0 0 0 12.2037916
1700 5 11.5900002 13.2399998 20.5900002 0 0 0 4 6 4 0 0 0 11.8309679
1705 1 -3.764 -12.6599999 -0.7647 0 0 0 1 10 2 0 0 0 11.6406565
1707 4 16.0499992 5.151 -12.25 0 0 0 2 8 4 0 0 0 12.6042452
1712 2 12.7600003 -13.6099997 -21.3899994 0 0 0 3 10 0 0 0 0 11.531723
1714 4 16.2000008 0.7219 16.0300007 0 0 0 0 12 0 0 0 0 11.3137446
1724 2 -3.648 1.397 -12.6499996 0 0 0 0 12 0 0 0 0 11.276124
1730 5 -4.698 0.1304 19.3400002 0 0 2 0 8 2 2 0 0 12.2923708
1733 1 -10.0900002 -13.4200001 19.0100002 0 0 0 0 12 0 0 0 0 11.356143
1737 4 9.9560004 -19.3999996 -0.7815 0 0 0 0 12 0 0 0 0 11.3903341
1743 4 -8.2539997 -15.7100001 0.3267 0 0 0 1 10 4 0 0 0 12.261797
1745 4 -17.1599999 -21.7199993 16.9400006 0 0 0 1 10 2 0 0 0 12.2306051
1750 4 0.3749 6.0050001 -1.5670001 0 0 0 3 8 2 0 0 0 12.2918654
1751 4 -3.046 -9.5489998 -3.4289999 0 0 0 2 8 1 2 0 0 11.755354
1796 2 10.1999998 -7.658 -20.6399994 0 0 0 1 10 2 0 0 0 11.7610932
1803 2 13.8100004 -3.6010001 -7.0289998 0 0 1 0 9 3 0 0 0 11.288578
1805 4 20.7600003 16.7399998 -18.2099991 0 0 1 0 11 1 0 0 0 11.1509018
1834 4 18.8899994 18.0799999 21.1000004 0 0 1 1 9 4 0 0 0 13.0882025
1838 2 6.8850002 19.5799999 -2.858 0 0 0 2 10 0 0 0 0 11.0364895
1847 4 15.3299999 -15.8000002 -18.2999992 0 0 0 4 6 3 0 0 0 12.6025133
1849 5 -2.836 -6.0009999 -11.9300004 0 0 1 3 4 5 1 0 0 11.7509985
1854 4 14.3299999 -6.4819999 8.3610001 0 0 0 0 12 0 0 0 0 11.0451956
1860 2 -9.0139999 -3.2179999 -16.7399998 0 0 0 0 12 0 0 0 0 10.7820072
1864 5 22.4500008 6.0110002 20.9200002 0 0 1 2 9 2 0 0 0 12.0077477
1868 4 -13.75 7.395 7.7600003 0 0 0 2 10 2 0 0 0 11.5648661
1873 4 10.8500004 -19.0200005 -8.5539999 0 0 0 0 12 0 0 0 0 11.8293524
1880 5 4.573 -17.9699994 20.3299999 0 0 0 1 10 2 0 0 0 11.8752222
1882 2 25.0699997 16.3600006 21.5599995 0 0 0 4 4 5 0 0 0 11.5737276
1890 4 -13.8199997 -19.0200005 8.422 0 0 1 1 9 3 0 0 0 11.8152447
1893 2 8.1309996 -9.8190003 0.8984 0 0 0 0 12 0 0 0 0 11.42976
1911 4 13.9799996 -13.0500002 5.4130001 0 0 1 1 10 2 1 0 0 13.2761879
1921 4 13.3599997 16.8899994 4.4860001 0 0 0 3 8 2 0 0 0 12.0492325
1925 2 11.0100002 -19.4099999 -15.0600004 0 0 0 3 8 2 0 0 0 12.9594804
1926 4 -2.985 9.6180001 -8.6210003 0 0 0 1 10 2 0 0 0 11.7509146
1928 4 -2.0940001 7.7690001 1.414 0 0 0 2 8 4 0 0 0 12.8854886
1934 4 -3.3280001 18.5799999 -6.3969998 0 0 0 0 12 2 0 0 0 12.2763357
1935 4 4.6240001 -0.3802 5.7030001 0 0 0 0 12 0 0 0 0 11.4799872
1938 4 -5.85 -1.505 -9.0799999 0 0 0 2 8 4 0 0 0 12.5614329
1943 5 -6.6960001 21.1900005 -17.4599991 0 0 0 2 8 3 0 0 0 11.9936094
1947 5 -6.7870002 3.949 17.3299999 0 0 0 2 10 3 0 0 0 12.7717943
1948 4 -5.5809999 -2.6359999 -11.4300003 0 0 0 0 12 4 0 0 0 13.3513689
1954 5 -11.6400004 -8.3839998 14.1199999 0 0 0 3 8 2 0 0 0 11.8221588
1979 5 21.3500004 -9.3120003 8.4860001 0 0 0 0 12 3 0 0 0 12.7942162
1984 5 16.8999996 -21.6499996 1.255 0 0 0 1 10 4 0 0 0 12.3712435
1986 4 -5.0609999 11.79 13.0 0 0 0 1 10 2 0 0 0 11.5635748
1993 5 -12.96 -5.7610002 -16.0900002 0 0 0 2 8 5 0 0 0 13.4011908
1996 4 -5.059 16.1000004 6.862 0 0 0 0 12 2 0 0 0 11.701541
1998 2 -2.085 5.7919998 7.809 0 0 0 4 7 2 1 0 0 11.8677168
2001 4 7.4520002 -4.5939999 5.593 0 0 0 2 8 6 0 0 0 12.9180118
2006 5 -13.5799999 -7.988 -21.4200001 0 0 0 1 10 2 0 0 0 11.5621424
2009 4 -14.5200005 -16.7900009 -1.4420001 0 0 0 1 10 3 0 0 0 12.637476
2020 2 12.3599997 -2.3940001 4.1090002 0 0 2 1 8 3 0 0 0 12.1847334
2022 5 14.5100003 -11.8400002 19.3799992 0 0 0 0 12 2 0 0 0 12.3457899
2027 4 -5.3400002 -2.1719999 14.1800003 0 0 1 1 9 5 0 0 0 13.1780491
2028 2 -8.9069996 8.2019997 1.2690001 0 0 0 1 10 2 0 0 0 11.8150006
2047 4 -15.9099998 -4.77 -22.2099991 0 0 0 2 8 3 0 0 0 11.9945822
2050 2 -18.9500008 -18.1900005 -15.2600002 0 0 0 0 12 2 0 0 0 12.4099312
2055 4 6.5840001 -2.54 -10.2100001 0 0 0 0 12 2 0 0 0 12.5609827
2056 5 16.2099991 12.0900002 9.7180004 0 0 0 1 10 2 0 0 0 12.8036413
2062 2 8.4639998 16.8400002 -15.3199997 0 0 0 3 6 4 0 0 0 10.9375592
2070 2 -12.6099997 -20.5200005 -14.6400004 0 0 0 0 12 0 0 0 0 11.1983996
2073 4 -6.276 -13.0900002 -19.8299999 0 0 0 4 8 1 0 0 0 11.4641638
2082 2 17.0900002 16.3600006 11.4700003 0 0 1 0 11 1 0 0 0 11.7402878
2083 4 -5.2930002 -18.0799999 -14.0299997 0 0 0 1 10 2 0 0 0 11.1178017
2087 5 -14.0799999 -7.7579999 -7.3319998 0 0 0 0 12 0 0 0 0 10.8867254
2089 1 16.5699997 -13.5 -18.7800007 0 0 0 6 4 3 0 0 0 11.4652062
2093 5 -6.2490001 -12.4700003 11.5200005 0 0 0 0 12 0 0 0 0 11.3491717
2095 4 -3.138 -7.9580002 -20.2800007 0 0 0 1 10 2 0 0 0 11.5739327
2106 2 21.8500004 -5.1110001 7.4029999 0 0 0 4 6 2 0 0 0 11.6033001
2112 4 21.6100006 -2.2920001 10.0200005 0 0 0 1 10 2 0 0 0 12.3723469
2143 2 5.052 4.4629998 17.1000004 0 0 0 4 8 3 2 0 0 13.8183127
2145 1 19.0499992 -21.2000008 -20.2000008 0 0 0 1 10 2 0 0 0 11.1374502
2154 4 17.25 15.04 -1.7000001 0 0 1 3 5 4 0 0 0 13.0439034
2160 2 11.3199997 10.3199997 2.691 0 0 0 3 6 4 0 0 0 11.5140057
2167 5 16.7700005 14.79 9.257 0 0 1 1 11 4 0 0 0 13.7524681
2176 5 8.1079998 14.6000004 0.7908 0 0 0 4 5 3 1 0 0 12.3765106
2178 4 -14.7399998 -18.3899994 -5.7140003 0 0 0 2 8 4 0 0 0 12.6285181
2181 4 -10.4799996 9.533 16.1000004 0 0 2 2 5 2 3 0 0 12.4540825
2185 2 -19.1399994 -20.7099991 -7.2940002 0 0 1 1 9 3 0 0 0 12.3665257
2187 2 -4.4289999 11.5900002 17.9699994 0 0 0 0 12 0 0 0 0 11.214428
2197 2 19.6700001 17.5 5.8870002 0 0 0 3 8 0 0 0 0 11.3217869
2207 5 11.6800003 -7.8350001 -8.0249996 0 0 0 4 6 4 0 0 0 12.8459206
2212 4 -12.8299999 -3.3310001 -17.0799999 0 0 0 2 8 4 0 0 0 11.967271
2222 2 0.7514 -21.7600003 3.0280001 0 0 0 2 8 3 0 0 0 11.7626314
2241 4 2.9990002 -3.902 0.9051 0 0 0 1 10 4 0 0 0 13.3896303
2274 1 -10.2600002 -17.4899998 0.8152 0 0 0 0 10 2 0 0 0 11.4213238
2290 4 -7.165 -18.2800007 12.8199997 0 0 0 2 10 1 0 0 0 11.7694321
2295 1 5.1869998 -0.04603 17.9200002 0 0 0 0 12 0 0 0 0 12.0665617
2306 4 22.0100002 9.0450001 4.6230002 0 0 0 2 10 1 0 0 0 11.9897176
2309 5 -7.9460002 -20.6700001 -6.5819998 0 0 0 4 4 7 0 0 0 12.7436257
2315 4 14.8599998 0.8989 -21.5300007 0 0 0 3 8 2 0 0 0 12.1954546
2324 1 10.3699999 -9.0480003 10.25 0 0 1 4 3 5 0 0 0 12.0433331
2334 5 -1.5440001 10.6599999 15.0900002 0 0 0 2 10 2 0 0 0 11.9896852
2341 4 20.5400009 9.2290001 -10.0299997 0 0 0 2 8 4 0 0 0 11.7126999
2342 3 -0.05573 8.3290005 -16.0200005 0 0 0 2 8 5 0 0 0 12.9229584
2356 3 17.2199993 -1.492 -9.9490004 0 0 0 2 10 2 0 0 0 12.1342478
2376 5 23.3299999 10.75 -18.7999993 0 0 0 3 6 3 2 0 0 11.865675
2377 4 2.069 -18.2999992 21.3899994 0 0 0 0 12 0 0 0 0 11.1446743
2388 4 -5.7399998 9.2069998 -1.704 0 0 0 5 6 4 0 0 0 12.7349119
2400 2 -15.0200005 0.8266 21.0499992 0 0 0 3 6 4 0 0 0 12.149086
2411 4 13.9499998 -17.6299992 -2.694 0 0 0 2 8 4 0 0 0 11.8758688
2414 1 0.4907 9.6560002 15.5299998 0 0 0 5 4 5 0 0 0 12.0652275
2428 4 -6.967 15.1599999 14.1999998 0 0 1 3 7 3 0 0 0 12.495863
2430 2 15.8599998 -21.6499996 -22.2000008 0 0 3 1 6 2 1 1 0 12.7106495
2437 2 -13.0699997 11.3199997 19.1800003 0 0 0 2 8 3 0 0 0 12.0130873
2438 1 7.7779999 -8.7939997 -1.18 0 0 0 0 12 0 0 0 0 10.5521155
2440 4 8.8660002 -11.1599999 -1.2410001 0 0 0 3 6 6 0 0 0 13.073102
2465 5 -4.777 -8.6940003 6.7340002 0 0 0 1 10 3 0 0 0 12.1266499
2476 1 7.955 -20.7800007 19.3999996 0 0 0 2 8 2 0 0 0 11.1936178
2480 4 12.4200001 12.5600004 -20.2399998 0 0 0 2 10 3 0 0 0 13.1310434
2502 4 -8.1940003 -8.5719996 -3.023 0 0 1 2 7 3 0 0 0 11.8544036
2504 2 -11.25 -7.3400002 -14.9399996 0 0 0 2 8 2 0 0 0 11.8121033
2509 4 -9.7679997 19.9699994 -20.3299999 0 0 0 2 8 5 0 0 0 12.6302357
2510 4 21.7399998 -0.09741 6.6880002 0 0 1 2 7 3 2 0 0 12.2075062
2511 5 -7.1989999 7.5359998 -3.6459999 0 0 0 2 8 4 0 0 0 12.896781
2519 4 5.2859998 -7.4819999 17.2700005 0 0 1 1 9 3 0 0 0 11.9997196
2520 4 -0.2893 -17.2299996 -6.052 0 0 1 2 7 5 0 0 0 12.4186392
2521 2 4.77 6.9899998 13.54 0 0 1 1 9 3 0 0 0 12.0570269
2526 2 -6.4070001 17.8799992 18.5499993 0 0 0 2 10 1 0 0 0 12.3718615
2534 5 -7.5409999 10.4200001 -17.8199997 0 0 0 4 6 3 0 0 0 11.9346132
2535 5 -7.6290002 -3.207 3.7379999 0 0 0 3 6 6 0 0 0 14.2930308
2577 3 -2.7019999 -0.8446 10.4899998 0 0 0 0 12 3 0 0 0 12.3684797
2582 2 2.2579999 15.9799996 -11.9499998 0 0 1 2 7 5 0 0 0 11.7101364
2587 4 23.3500004 16.5499993 9.2390003 0 0 0 1 10 4 0 0 0 13.3772879
2588 2 21.3199997 13.5699997 -10.2700005 0 0 0 2 8 3 0 0 0 11.0275345
2590 4 -7.106 13.2200003 12.1099997 0 0 0 0 12 3 0 0 0 12.5940285
2594 2 3.089 5.0229998 -17.1800003 0 0 0 3 6 3 0 0 0 11.2715445
2600 1 12.0299997 19.3799992 10.2600002 0 0 0 3 6 4 0 0 0 11.7189484
2608 5 0.9989 -8.5570002 9.7180004 0 0 0 4 4 5 0 0 0 12.2001352
2613 5 -13.1700001 -9.658 20.5799999 0 0 0 2 9 3 1 0 0 12.7251711
2615 2 4.3400002 -19.5300007 6.5300002 0 0 2 3 6 2 0 0 0 11.6358156
2648 2 0.6723 -3.75 -14.2200003 0 0 0 3 6 4 0 0 0 11.2495299
2651 4 10.5299998 -19.5 9.7510004 0 0 0 0 12 2 0 0 0 11.8429204
2659 4 15.3100004 -2.566 -8.6590004 0 0 0 2 10 1 0 0 0 11.3868132
2672 2 -12.1099997 -12.4600001 11.5900002 0 0 0 2 8 5 0 0 0 12.7461024
2677 4 21.1100006 19.3899994 6.1490002 0 0 0 1 10 2 0 0 0 12.3545017
2680 4 14.6800003 -6.1620002 18.3500004 0 0 0 4 4 6 0 0 0 12.8638582
2706 4 13.3699999 4.8649998 -12.5500002 0 0 0 1 10 3 0 0 0 12.6781845
2715 4 3.9820002 -3.7449999 17.9599992 0 0 0 3 6 4 0 0 0 11.6238127
2719 4 -0.1862 -6.6420002 -11.0699997 0 0 0 2 8 4 0 0 0 13.0635157
2723 4 21.5 10.3199997 2.708 0 0 0 3 10 3 0 0 0 13.6537504
2741 5 13.1400003 14.1099997 1.416 0 0 0 2 8 2 0 0 0 11.21877
2771 5 4.868 -16.7900009 9.7489996 0 0 0 3 8 2 0 0 0 11.8973466
2773 2 6.7540002 -17.1000004 -15.6000004 0 0 0 2 10 0 0 0 0 12.0221701
2784 5 -5.3429999 -18.3700009 1.9960002 0 0 0 1 10 2 0 0 0 11.3717909
2803 5 -11.2600002 -12.7299996 -8.0950003 0 0 0 2 8 4 0 0 0 12.6590557
2805 4 13.9700004 12.3500004 -2.652 0 0 0 3 10 2 0 0 0 13.2317934
2813 4 -9.4879999 -4.547 -10.7100001 0 0 0 4 4 6 0 0 0 11.930872
2823 4 -2.0699999 -19.2299996 20.3999996 0 0 0 0 12 2 0 0 0 12.5732937
2840 2 -4.606 20.7199993 3.8870002 0 0 0 3 6 4 0 0 0 11.3984709
2848 4 -5.3060002 -5.8790002 6.5079999 0 0 1 3 5 6 0 0 0 12.4926014
2850 4 -4.322 6.1300001 11.25 0 0 0 0 12 0 0 0 0 11.7369194
2860 1 2.3829999 0.5547 -18.6800003 0 0 1 4 5 2 1 0 0 12.1917181
2862 3 15.8800002 -20.0799999 -10.7399998 0 0 0 1 10 4 0 0 0 12.6891012
2864 4 -3.661 19.7299996 21.1000004 0 0 0 0 12 0 0 0 0 11.7388907
2871 5 -8.8540002 15.8900004 -12.75 0 0 0 1 9 3 1 0 0 11.973547
2878 2 -0.2957 -4.9390002 8.8500004 0 0 0 0 12 0 0 0 0 11.3633528
2900 4 2.31 6.2930002 -21.2600002 0 0 0 3 8 2 0 0 0 11.7323761
2911 4 2.435 20.8999996 -12.4700003 0 0 0 0 12 2 0 0 0 12.3254824
2921 5 18.6800003 -13.9399996 3.8900002 0 0 0 1 10 3 0 0 0 12.9865666
2929 4 -16.1800003 -11.3199997 -13.0100002 0 0 0 0 12 2 0 0 0 12.7474041
2942 4 -6.6469999 -15.9499998 14.0799999 0 0 0 1 12 2 0 0 0 12.8538066
2945 4 26.1599999 16.2199993 16.1599999 0 0 1 2 8 4 1 0 0 13.3625202
2961 4 -0.3054 -9.1560001 -9.9820004 0 0 0 3 8 4 0 0 0 13.0557213
2994 4 -6.5809999 -7.4439998 -1.5570001 0 0 1 2 7 4 0 0 0 11.9615212
2995 2 6.1560001 -0.6443 15.5200005 0 0 2 1 7 4 1 0 0 12.4000397
3019 4 19.8400002 17.4300003 -8.962 0 0 0 1 12 3 0 0 0 14.3643885
3020 5 15.4399996 6.8530002 -19.1599999 0 0 1 3 6 3 1 1 0 12.6612215
3021 5 -5.5159998 -7.8119998 0.5789 0 0 0 0 10 2 0 0 0 11.1757536
3024 5 -2.3199999 10.1099997 -21.3700009 0 0 1 1 9 3 0 0 0 12.1509161
3048 4 3.5639999 12.8299999 14.6400004 0 0 0 0 12 3 0 0 0 13.3899565
3056 4 10.1899996 -14.1099997 -7.9250002 0 0 0 5 6 3 0 0 0 13.4657583
3064 2 14.3000002 -13.9899998 -19.8199997 0 0 0 5 6 2 0 0 0 12.2224732
3070 4 13.2799997 5.652 14.6199999 0 0 0 3 8 3 0 0 0 12.6633902
3072 4 -14.1199999 -3.0910001 -19.0900002 0 0 0 0 12 0 0 0 0 11.2218027
3083 4 -14.7700005 -10.1999998 -7.0970001 0 0 0 1 10 3 0 0 0 12.8057232
3101 5 19.8600006 1.7430001 -6.0760002 0 0 1 3 4 5 1 0 0 11.7680865
3110 2 7.132 19.2600002 2.053 0 0 1 1 6 3 0 0 0 11.4077578
3119 5 14.0500002 12.0299997 13.8000002 0 0 0 0 12 2 0 0 0 11.9492246
3126 2 -15.3900004 -1.103 17.8799992 0 0 0 2 8 1 0 0 0 11.1817789
3129 2 2.708 17.2199993 -7.546 0 0 0 0 12 0 0 0 0 11.3271065
3137 2 3.108 -1.5900001 -19.2600002 0 0 2 1 8 0 2 0 0 12.0224552
3142 2 -8.658 14.6999998 -16.7399998 0 0 1 0 9 3 0 0 0 11.811635
3145 2 -6.0469999 -20.1100006 -9.007 0 0 0 2 10 1 0 0 0 11.885253
3160 2 20.1100006 -13.5299998 13.5699997 0 0 0 0 12 0 0 0 0 11.5238524
3164 2 15.5799999 -15.0799999 0.2751 0 0 0 0 12 0 0 0 0 11.0987072
3169 5 -1.675 18.6399994 7.2090001 0 0 0 0 11 3 1 0 0 12.945631
3174 4 -5.0900002 -2.2360001 18.2000008 0 0 0 1 12 1 0 0 0 11.7893696
3190 2 1.104 15.8500004 8.8299999 0 0 0 1 10 3 0 0 0 12.2419338
3193 2 16.6200009 3.1659999 8.8570004 0 0 0 2 8 1 2 0 0 12.4237061
3198 4 5.8790002 8.7489996 -22.1200008 0 0 0 2 8 4 0 0 0 12.3292761
3219 4 -4.3579998 9.6049996 19.3700009 0 0 0 1 10 2 0 0 0 12.1661921
3223 4 16.5400009 -15.0500002 -20.7900009 0 0 0 3 8 2 0 0 0 12.5410176
3231 5 13.1599999 19.8700008 3.3699999 0 0 0 1 10 3 0 0 0 12.3112106
3238 5 0.6706 -19.5400009 19.3799992 0 0 0 1 10 4 0 0 0 12.1683703
3242 2 -3.5580001 2.6700001 13.0200005 0 0 0 1 10 2 0 0 0 11.5373955
3253 5 8.1800003 6.0209999 10.6199999 0 0 0 2 10 2 0 0 0 12.6892786
3257 4 -0.07095 -14.75 -21.4599991 0 0 0 0 12 0 0 0 0 11.1708984
3274 2 -1.3150001 17.3600006 17.4599991 0 0 0 4 6 4 0 0 0 12.1419754
3278 4 14.8000002 -7.6599999 -18.6399994 0 0 0 2 8 3 0 0 0 11.5320568
3282 5 6.6230002 16.6499996 20.5900002 0 0 0 1 10 4 0 0 0 13.1903343
3298 5 -5.7470002 2.3250001 9.1479998 0 0 0 2 8 7 0 0 0 13.5610295
3303 5 -7.8379998 -5.7540002 15.4700003 0 0 0 2 8 2 0 0 0 11.1283836
3313 2 -3.119 -6.6609998 6.0980001 0 0 0 2 8 2 0 0 0 11.7833071
3317 5 14.0299997 5.1820002 1.1390001 0 0 0 0 12 0 0 0 0 11.1515856
3323 5 12.9799996 15.4200001 -16.2099991 0 0 1 1 8 4 1 0 0 12.7529431
3338 5 -0.2736 -3.8900002 -19.4500008 0 0 1 1 9 3 0 0 0 11.7330618
3351 1 -9.0 18.8299999 10.8100004 0 0 0 0 12 0 0 0 0 10.8972922
3355 5 -12.6099997 17.5799999 -8.4239998 0 0 0 2 8 4 0 0 0 12.3087645
3361 5 -11.3299999 9.1450005 12.6800003 0 0 1 1 8 3 1 0 0 11.988658
3366 1 6.3520002 20.6000004 -19.8799992 0 0 0 1 10 2 0 0 0 11.744052
3370 4 8.6429997 1.902 6.1009998 0 0 0 4 6 4 0 0 0 11.6579342
3383 4 -12.1899996 2.6370001 7.289 0 0 2 4 4 2 2 1 0 12.873003
3386 2 -15.29 -2.062 9.2340002 0 0 0 0 12 0 0 0 0 11.9191256
3387 5 -5.6040001 -5.5029998 -17.1599999 0 0 0 2 8 2 0 0 0 11.7501669
3390 4 13.7799998 15.9799996 15.5699997 0 0 0 3 6 5 0 0 0 11.9631586
3403 5 -14.9300004 3.006 -18.2099991 0 0 0 3 6 4 0 0 0 12.5907879
3432 4 5.0240002 1.295 -18.1900005 0 0 1 2 7 5 0 0 0 13.4164934
3434 2 -10.2200003 1.169 0.4005 0 0 1 2 7 3 0 0 0 11.6557732
3439 5 10.3000002 -9.0179996 -0.6328 0 0 0 2 8 4 0 0 0 12.3885203
3449 4 1.576 9.8649998 20.2099991 0 0 0 2 8 5 0 0 0 12.3588467