ITEM: TIMESTEP
0
ITEM: NUMBER OF ATOMS
50688
ITEM: BOX BOUNDS xy xz yz pp pp pp
-40.1340523 45.0399895 4.9059368
-43.8030052 43.8030052 0.0
-43.7915344 43.7915344 0.0
ITEM: ATOMS id type x y z VoronoiIndex1 VoronoiIndex2 VoronoiIndex3 VoronoiIndex4 VoronoiIndex5 VoronoiIndex6 VoronoiIndex7 VoronoiIndex8 VoronoiIndex9 AtomicVolume
2 2 -12.2200003 -19.7999993 -9.8360005 0 0 0 2 8 1 1 0 0 11.6723318
4 2 -28.6900006 -20.5400009 -19.6700001 0 0 0 0 12 0 0 0 0 10.7819853
15 4 -5.9829998 -26.3799992 -21.5 0 0 2 1 7 4 1 0 0 11.5706682
23 2 -14.5 -31.6000004 -13.9799996 0 0 0 1 10 2 0 0 0 11.8497964
32 5 -36.0499992 -22.6100006 -35.7599983 0 0 0 4 4 5 0 0 0 12.3290501
33 1 -12.7799998 -5.4419999 -27.0100002 0 0 0 0 12 0 0 0 0 10.9600086
39 4 -20.6299992 -34.0299988 -41.6800003 0 0 0 0 12 3 0 0 0 13.7742424
45 4 -3.0139999 -15.2299996 -15.6899996 0 0 0 0 12 0 0 0 0 11.4365101
46 4 -28.4500008 -11.6999998 -43.0 0 0 2 1 8 2 2 0 0 12.7172785
68 4 -12.3299999 -9.6809998 -9.6370001 0 0 0 1 12 1 0 0 0 12.3595524
88 5 -30.3799992 -30.8400002 -0.0207 0 0 0 0 12 0 0 0 0 11.2537413
90 4 -10.1000004 -43.3100014 -35.869999 0 0 0 2 8 5 0 0 0 12.4952612
93 2 -32.7799988 -19.0699997 -25.6000004 0 0 0 3 6 4 0 0 0 11.91679
97 5 -21.7199993 -8.6669998 -0.4537 0 0 1 1 8 3 1 0 0 12.5560723
106 4 -10.2200003 -32.7999993 -2.4820001 0 0 0 1 10 3 0 0 0 12.338172
109 4 -32.0600014 -9.9060002 -26.1599999 0 0 0 1 10 4 0 0 0 12.9396782
114 2 -7.5079999 -40.3199997 -6.6370001 0 0 0 1 10 2 0 0 0 11.959489
118 2 -1.533 -35.6300011 -30.4599991 0 0 0 0 12 0 0 0 0 11.2838373
119 4 -32.8300019 -22.3299999 -19.4300003 0 0 0 1 10 4 0 0 0 12.5426922
141 4 -19.9500008 -10.9300004 -40.25 0 0 0 1 10 4 0 0 0 12.4876766
162 4 -3.046 -14.1400003 -34.5099983 0 0 0 0 12 2 0 0 0 11.777174
164 1 -6.2080002 -8.2100001 -40.4199982 0 0 0 1 10 2 0 0 0 11.1638556
169 1 -0.5523 -12.8299999 -19.0599995 0 0 0 2 8 4 0 0 0 11.7435436
174 5 1.3890001 -8.3389998 -30.0599995 0 0 0 2 8 5 0 0 0 13.1170263
187 4 0.8022 -10.9899998 -21.7299996 0 0 0 1 10 2 0 0 0 11.549594
199 1 -5.0019999 -31.5300007 -27.5300007 0 0 0 4 6 3 0 0 0 11.7278738
211 2 -35.2599983 -24.4899998 -37.3699989 0 0 0 2 8 2 0 0 0 11.6633425
223 2 -1.221 -37.5299988 -22.9500008 0 0 1 2 7 4 2 0 0 12.5395355
227 4 -16.5400009 -6.4520002 -28.8400002 0 0 0 2 8 2 2 0 0 12.7678318
237 2 -11.2700005 -38.4000015 -34.2799988 0 0 0 1 10 2 0 0 0 11.9891748
253 5 -2.056 -4.7090001 -34.8499986 0 0 0 4 6 4 0 0 0 13.1273947
254 4 -5.3870001 -25.9500008 -4.54 0 0 0 4 6 4 0 0 0 12.5197869
258 2 -4.5780001 -37.7000008 -42.0299988 0 0 2 2 5 4 1 0 0 11.6944046
259 5 -1.569 -37.3600006 -34.8300019 0 0 0 0 12 0 0 0 0 12.2954846
265 5 -33.0499992 -21.8500004 -25.4500008 0 0 0 4 4 7 0 0 0 13.0711365
275 5 -33.0600014 -21.3899994 -32.4199982 0 0 1 2 9 2 0 0 0 12.1173554
281 4 -29.5499993 -43.5900002 -41.1599999 0 0 0 1 10 4 0 0 0 12.6827307
286 3 -11.5699997 -33.2900009 -23.3899994 0 0 0 1 10 4 0 0 0 12.3329783
290 4 -37.1699982 -42.6599999 -3.2980001 0 0 0 3 8 3 0 0 0 12.0077467
293 5 -19.1800003 -8.6309996 -43.7200012 0 0 0 4 6 3 0 0 0 12.8368473
297 5 -18.8899994 -8.2690001 -20.5499993 0 0 1 3 5 5 0 0 0 11.9489822
306 1 0.3143 -17.2000008 -1.355 0 0 0 0 12 0 0 0 0 10.8474674
321 2 -37.9799996 -20.1000004 -22.1000004 0 0 0 0 12 0 0 0 0 11.0925264
326 4 -22.7600003 -23.4500008 -10.0299997 0 0 0 3 6 5 0 0 0 12.6093292
329 2 -37.7099991 -25.8199997 -7.982 0 0 1 2 6 2 1 0 0 11.9364042
338 5 -23.3299999 -33.3400002 -29.8799992 0 0 0 2 8 4 0 0 0 12.1055145
339 4 -0.472 -38.7599983 -10.2399998 0 0 0 2 8 4 0 0 0 13.5361738
349 4 -21.8700008 -41.9300004 -16.4500008 0 0 0 2 10 3 0 0 0 13.0568018
350 4 -32.9300004 -14.4399996 -37.5 0 0 0 2 8 4 0 0 0 12.4613905
364 4 -4.1799998 -21.9300004 -42.0200005 0 0 0 2 8 5 0 0 0 12.532651
378 1 -3.1540001 -43.7900009 -17.3199997 0 0 0 2 10 0 0 0 0 11.1625958
387 3 -15.4899998 -23.3400002 -33.1899986 0 0 0 1 10 3 0 0 0 12.8432494
397 1 -6.2579999 -27.6599999 -26.9500008 0 0 0 0 12 0 0 0 0 10.8031216
403 4 -32.6800003 -32.869999 -14.9399996 0 0 0 3 8 1 0 0 0 11.5803824
414 4 -11.5500002 -1.118 -7.5630002 0 0 0 0 12 2 0 0 0 11.9676418
415 4 -13.1499996 -3.056 -27.5699997 0 0 0 1 10 4 0 0 0 12.5821362
423 2 -28.0699997 -13.1599999 -26.0300007 0 0 2 0 8 4 0 0 0 12.2459631
424 3 -19.6399994 -37.4900017 -30.3099995 0 0 0 2 10 1 0 0 0 12.4099932
440 2 -8.8649998 -31.6200009 -36.3199997 0 0 0 2 8 2 0 0 0 11.5837593
458 1 -34.1399994 -27.9500008 -39.0 0 0 0 0 12 0 0 0 0 10.7755604
461 2 -20.9599992 -0.6428 -6.4619999 0 0 1 3 5 3 0 0 0 11.718174
463 3 -36.7400017 -3.7620001 -14.4899998 0 0 0 2 10 3 0 0 0 13.0268364
469 2 -6.6900001 -15.87 -6.8080001 0 0 0 3 6 4 0 0 0 11.616046
477 2 -17.7600003 -18.5400009 -26.2900009 0 0 0 1 10 2 0 0 0 11.8546476
478 5 -12.3900004 -9.8649998 -32.3899994 0 0 1 2 7 5 0 0 0 12.3815079
483 4 -9.5419998 -6.7579999 -30.9300004 0 0 1 0 9 3 0 0 0 11.2160931
485 4 -14.6599999 -17.1200008 -4.2950001 0 0 0 2 10 2 0 0 0 12.1746845
495 4 -31.7700005 -25.3500004 -1.721 0 0 0 1 10 3 0 0 0 12.5142222
497 5 -1.087 -38.4099999 -42.7000008 0 0 1 0 11 1 0 0 0 11.3936195
501 2 -38.8400002 -30.1299992 -20.2000008 0 0 0 1 10 2 0 0 0 12.1874609
508 4 -20.5400009 -23.5499993 -14.3699999 0 0 0 2 10 3 0 0 0 12.6760426
511 4 -19.2600002 -24.3799992 -36.2200012 0 0 1 2 7 5 0 0 0 12.6909256
514 2 -13.2200003 -24.9300004 -39.2400017 0 0 0 1 10 3 0 0 0 11.6156426
537 5 -19.2700005 -19.4500008 -13.9799996 0 0 0 3 8 3 0 0 0 12.003108
544 3 -30.5100003 -12.7399998 -39.3699989 0 0 2 1 7 3 1 1 0 12.8542604
546 2 -15.5500002 -12.9300004 -33.5900002 0 0 0 3 8 2 0 0 0 11.831398
553 4 -30.5599995 -27.5699997 -5.4860001 0 0 0 1 10 2 0 0 0 11.3851204
554 5 -17.0499992 -39.2000008 -18.6599999 0 0 0 1 10 2 0 0 0 11.593194
567 2 -6.941 -43.0 -18.1000004 0 0 1 2 7 3 0 0 0 11.8305302
574 4 -29.4300003 -23.5699997 -16.3899994 0 0 0 1 12 2 0 0 0 12.8360033
579 5 -17.7399998 -26.4599991 -25.0599995 0 0 1 3 5 4 0 0 0 11.4412585
595 4 -3.171 -24.3400002 -24.3199997 0 0 0 3 6 5 0 0 0 12.0909786
621 2 -26.7800007 -32.5099983 -6.8800002 0 0 0 4 8 0 0 0 0 11.5565071
634 4 0.8588 -0.3084 -11.2399998 0 0 0 0 12 3 0 0 0 12.8058253
639 5 -35.9199982 -11.5200005 -28.7600003 0 0 0 2 8 5 0 0 0 13.0437584
644 2 -14.2299996 -8.375 -20.7299996 0 0 0 0 12 0 0 0 0 11.1963806
664 4 -1.322 -31.5599995 -37.4900017 0 0 0 1 10 4 0 0 0 13.0885038
670 4 -25.1399994 -19.2000008 -40.6699982 0 0 0 1 12 2 0 0 0 12.5802965
690 2 -16.8299999 -32.6899987 -36.7099991 0 0 0 2 8 0 2 0 0 11.441515
691 5 -37.3800011 -9.7530003 -40.6599999 0 0 0 2 10 2 0 0 0 12.4225273
699 4 -5.04 -22.25 -27.4099999 0 0 0 3 8 5 0 0 0 13.4993334
701 5 -16.1100006 -32.3800011 -2.9100002 0 0 0 3 6 3 0 0 0 11.973179
702 5 -5.4120002 -34.6899987 -14.0200005 0 0 0 0 12 0 0 0 0 11.2084351
708 4 0.2124 -3.3369999 -34.3699989 0 0 1 3 4 5 1 0 0 12.9183818
718 4 -20.5400009 -13.79 -30.8299999 0 0 0 1 10 4 0 0 0 12.9200002
731 4 -2.599 -20.3700009 -29.3600006 0 0 0 2 8 4 0 0 0 12.1661978
733 4 -16.0900002 -20.1299992 -25.7000008 0 0 0 2 8 2 2 0 0 12.8771868
740 2 -32.1899986 -37.2299996 -42.0299988 0 0 0 0 12 0 0 0 0 11.3041973
766 4 -28.3500004 -11.8500004 -12.8599998 0 0 0 3 8 3 0 0 0 12.3002682
773 2 -12.6099997 -26.4099999 -30.1599999 0 0 0 1 10 2 0 0 0 11.7708159
779 5 -9.7770005 -35.1800003 -18.7800007 0 0 0 3 6 5 0 0 0 12.3621588
800 2 -35.0999985 -37.0699997 -19.3700009 0 0 0 1 10 2 0 0 0 11.648469
804 2 -8.5970001 -1.535 -39.9700012 0 0 0 3 8 2 0 0 0 11.636528
824 5 -24.9400006 -22.4599991 -2.03 0 0 1 2 6 5 1 0 0 11.8540878
827 2 -3.6129999 -36.9599992 -23.4099999 0 0 1 2 4 4 1 0 0 12.156353
833 4 -37.0699997 -18.8099995 -36.2099991 0 0 0 2 8 2 0 0 0 11.3458538
839 2 -22.8299999 -41.2599983 -2.178 0 0 0 4 8 2 0 0 0 12.6318035
853 4 -31.5200005 -8.547 -28.6200009 0 0 0 2 8 4 0 0 0 12.9822522
857 5 -27.5499993 -14.6800003 -17.4799996 0 0 0 1 10 3 0 0 0 12.9698068
858 4 -23.6599999 -10.1000004 -4.2319999 0 0 0 1 10 4 0 0 0 13.7343979
862 2 -38.3100014 -23.5499993 -35.2599983 0 0 0 2 8 2 0 0 0 11.5593519
864 4 -0.1454 -12.3299999 -27.9799996 0 0 0 2 8 4 0 0 0 11.8409548
907 5 -22.7999993 -27.25 -43.5800019 0 0 0 1 10 4 0 0 0 12.3230047
912 5 -19.5 -42.8499986 -39.3899994 0 0 0 0 12 0 0 0 0 11.2007637
913 1 -11.5699997 -10.5100003 -23.7399998 0 0 0 2 10 0 0 0 0 11.5081911
918 4 -13.25 -18.6900006 -34.1199989 0 0 0 2 8 5 0 0 0 12.9122066
919 5 -3.481 -15.3299999 -9.4930001 0 0 0 2 8 5 0 0 0 12.7884751
927 5 -14.8199997 -25.2600002 -29.5 0 0 0 0 12 3 0 0 0 12.3261423
934 4 -21.0599995 -7.8189998 -26.9099998 0 0 0 0 12 0 0 0 0 10.9303284
935 2 -26.6000004 -5.6820002 -26.0 0 0 0 2 8 1 0 0 0 11.4545298
939 2 -36.8800012 -36.75 -30.9799996 0 0 0 2 8 2 0 0 0 11.64394
942 2 -37.6599999 -9.9169998 -15.1700001 0 0 1 2 9 2 0 0 0 11.4058275
949 2 -23.7099991 -5.1820002 -32.5699997 0 0 0 2 9 1 1 0 0 12.1167145
959 4 -19.2800007 -24.9200002 -9.2069998 0 0 0 0 12 3 0 0 0 13.4934798
961 2 -14.9099998 -40.5 -41.619999 0 0 1 0 11 1 0 0 0 12.0086613
969 2 -31.7000008 -9.606 -12.1199999 0 0 0 1 10 2 0 0 0 11.8835088
979 2 -7.8249998 -14.3500004 -20.1200008 0 0 0 2 8 2 0 0 0 11.6360951
983 2 0.4942 -4.586 -8.8050003 0 0 0 3 6 5 0 0 0 12.2361164
990 5 -23.1200008 -24.6499996 -42.5699997 0 0 0 2 8 4 0 0 0 12.333066
1001 4 -7.7090001 -20.4300003 -23.7099991 0 0 0 2 8 4 0 0 0 12.8072062
1015 5 -37.2000008 -39.4300003 -13.79 0 0 0 3 10 2 0 0 0 12.613082
1016 2 -2.27 -30.5799999 -8.1199999 0 0 0 0 12 0 0 0 0 12.0216818
1033 2 -21.8099995 -34.3400002 -11.1400003 0 0 0 1 10 2 0 0 0 11.7692452
1051 4 -15.2100001 -15.87 -18.4400006 0 0 0 3 8 2 0 0 0 12.074297
1064 5 -4.29 -19.9200002 -31.3799992 0 0 1 4 7 2 0 0 0 12.2561102
1065 2 -8.5970001 -19.5 -8.4060001 0 0 0 0 12 0 0 0 0 11.1749792
1075 4 -34.4000015 -1.78 -35.0400009 0 0 1 3 6 1 1 0 0 11.4390021
1086 1 -14.2299996 -39.0099983 -23.9300004 0 0 0 1 10 2 0 0 0 11.6947823
1089 3 -25.7999993 -33.2000008 -38.0 0 0 1 1 9 4 0 0 0 12.6656866
1102 1 -9.6009999 -36.7999993 -37.2999992 0 0 0 0 12 0 0 0 0 11.3821468
1110 2 -22.6200009 -21.2399998 -5.4629998 0 0 0 2 8 4 0 0 0 12.7240286
1111 5 -34.5499993 -5.4920001 -6.039 0 0 0 2 8 4 0 0 0 11.9540644
1122 4 -18.0499992 -23.8799992 -15.4300003 0 0 0 1 10 2 0 0 0 11.7231198
1131 2 -5.7459998 -3.0569999 -20.9699994 0 0 1 3 5 5 0 0 0 12.2275992
1133 2 -7.9109998 -42.3800011 -7.8779998 0 0 0 5 4 4 0 0 0 11.2425776
1138 4 -31.7099991 -29.2000008 -0.2835 0 0 0 1 10 2 0 0 0 12.0771685
1152 1 -29.4500008 -32.8600006 -0.09919 0 0 0 0 12 0 0 0 0 10.6135321
1163 2 -32.7700005 -19.1700001 -12.29 0 0 1 0 11 1 0 0 0 11.9776802
1166 5 -22.0900002 -28.7000008 -9.4949999 0 0 0 1 10 2 0 0 0 12.3699665
1170 2 -7.7989998 -4.237 -16.7399998 0 0 1 2 6 2 1 0 0 11.6263991
1178 1 -22.9899998 -33.9799996 -6.1069999 0 0 1 2 6 5 1 0 0 12.2706661
1195 5 -10.75 -39.4300003 -9.125 0 0 1 3 6 2 1 0 0 11.939293
1198 5 -6.303 -35.0800018 -38.3100014 0 0 0 1 10 2 0 0 0 11.9305134
1209 2 -11.7399998 -5.863 -9.6990004 0 0 0 1 10 2 0 0 0 11.7415562
1211 5 -25.9799996 -23.0 -21.1299992 0 0 0 0 12 0 0 0 0 11.2915697
1219 5 -24.0100002 -32.9399986 -39.4599991 0 0 1 1 9 2 0 0 0 11.7445441
1237 2 -37.9799996 -42.0 -8.5489998 0 0 0 2 8 1 0 0 0 10.7715531
1238 4 -35.1399994 -32.0299988 -39.0099983 0 0 0 2 10 4 0 0 0 13.18435
1239 2 -18.5400009 -10.3900004 -19.4599991 0 0 0 0 12 0 0 0 0 10.9433738
1251 4 -36.25 -31.6900006 -7.5370002 0 0 0 1 10 5 0 0 0 13.4609881
1253 5 -36.9300004 -0.05823 -7.9039998 0 0 0 3 8 3 0 0 0 12.5478068
1256 4 -13.9300004 -5.9099998 -8.4060001 0 0 0 1 10 4 0 0 0 13.5314369
1259 2 -33.9199982 -43.4000015 -15.7399998 0 0 0 0 12 0 0 0 0 11.236248
1262 4 -27.9899998 -21.9400006 -15.0 0 0 0 3 6 3 0 0 0 11.760233
1266 4 0.3899 -22.5100003 -36.9799996 0 0 0 1 10 4 0 0 0 13.0734673
1280 4 -35.2999992 -27.6100006 -32.4099999 0 0 0 0 12 2 0 0 0 12.3516884
1286 5 -5.5900002 -11.3599997 -36.5200005 0 0 2 2 5 4 1 1 0 11.9420652
1289 2 -6.724 -10.8299999 -23.1399994 0 0 0 1 10 2 0 0 0 12.3063631
1298 4 -37.9199982 -19.9699994 -42.3600006 0 0 0 2 8 6 0 0 0 13.2488537
1299 2 -6.5700002 -15.8599998 -40.4599991 0 0 0 0 12 0 0 0 0 10.8479252
1303 4 -11.87 -20.2999992 -35.4399987 0 0 0 0 12 0 0 0 0 11.2045631
1304 5 -10.1300001 -18.6299992 -15.5200005 0 0 0 1 10 2 0 0 0 12.166462
1306 5 -0.6215 -10.87 -29.8400002 0 0 1 3 5 5 0 0 0 11.6415415
1315 2 -35.9000016 -34.1399994 -42.7799988 0 0 0 0 12 0 0 0 0 10.8380537
1319 2 -19.1100006 -28.6399994 -1.249 0 0 0 3 6 4 0 0 0 11.4831448
1322 4 0.7789001 -27.6599999 -3.517 0 0 0 1 10 3 0 0 0 12.7957592
1336 4 -8.6669998 -5.0370002 -23.4300003 0 0 0 1 12 2 0 0 0 12.6625939
1337 4 -13.9700004 -19.8500004 -36.7099991 0 0 0 1 10 2 0 0 0 11.4805651
1340 2 -25.8099995 -24.2199993 -39.0099983 0 0 0 3 8 3 0 0 0 12.5943938
1342 2 -35.4900017 -32.2099991 -32.2599983 0 0 1 2 7 5 0 0 0 12.5403939
1343 2 -23.0400009 -4.632 -35.0400009 0 0 0 1 10 2 0 0 0 11.6400852
1352 5 -10.6400004 -15.4600001 -42.4099999 0 0 0 1 10 2 0 0 0 11.9630404
1372 2 -16.1499996 -23.4599991 -28.8700008 0 0 0 4 6 3 0 0 0 11.915021
1399 4 -36.1599999 -17.3199997 -2.148 0 0 1 3 5 4 0 0 0 11.706564
1407 5 -33.9300004 -6.6069999 -24.7800007 0 0 0 0 12 0 0 0 0 10.8189297
1408 1 -18.7199993 -34.75 -8.125 0 0 0 1 10 2 0 0 0 11.5396824
1414 2 -29.7900009 -19.1100006 -31.0499992 0 0 1 2 7 2 0 0 0 11.3942604
1419 2 -31.5900002 -43.5999985 -15.3000002 0 0 0 1 10 2 0 0 0 12.0467138
1421 2 -15.5900002 -36.25 -33.0800018 0 0 1 1 9 3 0 0 0 12.202033
1437 4 -36.3600006 -19.6599999 -20.1499996 0 0 0 3 8 4 0 0 0 12.9194126
1495 5 -13.4600001 -23.0599995 -6.4299999 0 0 2 1 8 4 0 0 0 12.7658806
1502 4 -4.2270002 -13.1899996 -38.4500008 0 0 0 3 6 4 0 0 0 11.5825262
1505 2 -25.0900002 -19.2099991 -43.3199997 0 0 0 1 10 2 0 0 0 11.4459095
1521 5 -14.3299999 -24.4099999 -3.3770001 0 0 2 2 6 5 0 0 0 12.7798701
1526 4 -15.4700003 -9.1199999 -35.4099999 0 0 0 0 12 2 0 0 0 12.3890381
1527 5 -15.0200005 -40.1300011 -35.5800019 0 0 0 3 8 3 0 0 0 11.462143
1529 2 -12.1300001 -36.8300019 -26.6399994 0 0 1 2 7 3 0 0 0 11.5937205
1539 5 -29.5799999 -1.683 -30.2999992 0 0 0 4 6 0 2 0 0 11.9296856
1540 5 -0.1598 -9.4280005 -23.5100003 0 0 1 3 7 5 0 0 0 13.060751
1546 4 -8.3859997 -42.2700005 -38.3400002 0 0 2 1 8 2 2 0 0 12.1880503
1552 4 -32.2599983 -40.9199982 -29.6000004 0 0 1 3 5 2 2 0 0 11.3898192
1555 2 -12.4300003 -19.1200008 -41.9099998 0 0 0 1 10 2 0 0 0 12.5804444
1563 5 -3.0309999 -30.7600003 -16.6399994 0 0 2 1 8 3 0 0 0 12.3808842
1566 5 -5.5739999 -8.092 -18.6800003 0 0 0 2 8 4 0 0 0 11.9732114
1585 4 -33.1500015 -27.5799999 -6.3829999 0 0 0 2 10 2 0 0 0 12.5824423
1593 2 -22.7600003 -4.0149999 -29.2399998 0 0 0 0 12 0 0 0 0 11.1775923
1595 4 -35.8800012 -16.9599992 -28.6700001 0 0 2 2 6 4 0 0 0 11.9700576
1597 5 -4.8049999 -17.5799999 -5.9660002 0 0 1 2 7 5 0 0 0 12.3254833
1611 5 -14.9899998 -7.901 -0.4146 0 0 0 1 10 2 0 0 0 11.9379206
1617 4 -17.7099991 -2.6359999 -38.1199989 0 0 0 1 10 2 0 0 0 11.7875862
1625 2 -35.9599992 -35.0400009 -29.1000004 0 0 0 3 6 4 0 0 0 11.2104244
1626 2 -16.0 -35.8400002 -27.7900009 0 0 0 0 12 0 0 0 0 10.7660275
1632 5 -2.665 -23.5900002 -33.3699989 0 0 0 1 10 4 0 0 0 13.7449208
1651 2 -2.553 -1.956 -6.6430002 0 0 0 4 6 3 0 0 0 12.316618
1656 4 -8.5570002 -3.974 -18.9599992 0 0 1 2 7 5 0 0 0 12.8222113
1658 4 -35.6500016 -14.8800002 -6.3480001 0 0 0 0 12 2 0 0 0 12.0437059
1660 4 -31.6800003 -5.6630001 -25.6499996 0 0 0 0 12 2 0 0 0 11.8699646
1670 2 -22.1800003 -22.8799992 -24.6000004 0 0 2 2 7 3 1 0 0 12.6442862
1671 4 0.4162 -28.6800003 -34.8899994 0 0 0 0 12 0 0 0 0 11.3152609
1672 4 -38.4700012 -24.1299992 -22.3199997 0 0 0 1 10 4 0 0 0 12.5858689
1683 4 -26.2299996 -15.6199999 -38.5999985 0 0 0 1 10 2 0 0 0 12.1479082
1686 5 -8.7849999 -17.4099999 -26.5499993 0 0 1 2 7 3 0 0 0 11.6911412
1687 2 -20.1000004 -29.2999992 -30.4300003 0 0 1 4 3 5 0 0 0 11.1911736
1707 4 -14.4300003 -30.3099995 -3.451 0 0 0 1 10 2 0 0 0 12.0204659
1709 2 -38.8800012 -24.0200005 -32.9900018 0 0 0 3 6 4 0 0 0 11.9186754
1727 5 -17.7999993 -9.6409998 -15.5799999 0 0 0 2 10 1 0 0 0 12.153142
1733 4 -6.4559999 -27.2399998 -29.4500008 0 0 0 1 10 4 0 0 0 13.4162626
1741 3 -20.5699997 -36.8600006 -37.0200005 0 0 0 2 8 4 0 0 0 12.7016945
1748 2 0.2737 -9.4960003 -15.9099998 0 0 0 2 8 4 0 0 0 11.716734
1749 5 -33.6399994 -24.4300003 -29.7800007 0 0 1 3 7 4 0 0 0 13.0358906
1755 2 -35.5999985 -8.9750004 -20.9200002 0 0 0 3 6 4 0 0 0 11.6755581
1759 1 -15.1700001 -20.6200009 -6.448 0 0 0 2 10 1 0 0 0 11.7074919
1771 5 -16.6800003 -13.6899996 -14.3599997 0 0 0 1 10 2 0 0 0 11.6487503
1772 2 -16.3999996 -10.5299998 -4.908 0 0 0 2 8 2 0 0 0 11.7785177
1786 2 -9.2180004 -19.6700001 -1.824 0 0 1 1 8 3 1 0 0 12.1895418
1795 2 -8.6260004 -8.7609997 -11.7799998 0 0 0 1 10 2 0 0 0 11.824275
1796 4 -25.0699997 -4.1350002 -36.6800003 0 0 0 1 10 4 0 0 0 12.6013947
1798 5 -26.5200005 -21.1800003 -28.6100006 0 0 0 4 4 6 0 0 0 11.9453154
1804 5 -33.5200005 -14.7100001 -32.7999993 0 0 0 1 10 4 0 0 0 13.0072727
1810 2 -23.4599991 -39.6899987 -31.6800003 0 0 0 0 12 0 0 0 0 11.8625498
1826 4 -38.8800012 -39.5400009 -11.8299999 0 0 0 3 7 3 1 0 0 13.1939812
1834 1 -10.2200003 -27.4200001 -15.8000002 0 0 0 3 5 4 1 0 0 11.855649
1835 2 -12.4099999 -3.141 -16.0100002 0 0 0 2 8 3 0 0 0 11.6437178
1844 2 -26.2000008 -42.0800018 -29.6700001 0 0 1 2 6 2 1 0 0 11.5362787
1849 5 -5.7160001 -32.0800018 -9.6009999 0 0 0 3 8 2 0 0 0 12.5842791
1850 4 -25.7600003 -27.5499993 -19.4699993 0 0 0 2 10 2 0 0 0 13.5117407
1855 2 -1.1900001 -36.3800011 -18.1000004 0 0 0 0 12 0 0 0 0 11.1135321
1870 5 -9.4759999 -30.4799996 -25.9599992 0 0 1 0 10 3 1 0 0 12.7884903
1876 4 -30.6299992 -28.8999996 -35.8300019 0 0 0 1 10 4 0 0 0 12.8172102
1893 4 -26.6700001 -7.3000002 -19.9799996 0 0 0 0 12 4 0 0 0 13.5226975
1908 2 -34.0400009 -8.882 -24.8500004 0 0 0 0 12 0 0 0 0 10.8426238
1914 2 -26.5499993 -6.5819998 -36.0800018 0 0 0 0 12 0 0 0 0 11.0453911
1919 4 -7.6360002 -11.8400002 -1.984 0 0 1 1 9 4 0 0 0 13.3983584
1923 4 -7.514 -7.625 -9.8500004 0 0 1 4 3 8 0 0 0 12.5879908
1927 2 -35.3100014 -27.9300004 -34.8800012 0 0 1 1 9 2 2 0 0 12.2510939
1928 2 -30.8099995 -11.8400002 -12.2600002 0 0 0 4 4 6 0 0 0 12.1831055
1934 3 -25.1800003 -20.3199997 -21.6700001 0 0 0 2 10 2 0 0 0 12.6922627
1937 4 -32.1899986 -41.0499992 -24.2299996 0 0 0 3 6 5 0 0 0 12.1426201
1955 5 -20.0200005 -7.6609998 -8.5850001 0 0 0 4 8 2 0 0 0 12.6821985
1957 3 -37.7999993 -7.2249999 -40.3199997 0 0 0 1 9 2 1 0 0 12.1527348
1958 5 -28.3799992 -1.018 -11.1999998 0 0 0 0 12 0 0 0 0 10.8512602
1960 4 -24.7999993 -35.2299996 -16.2000008 0 0 1 0 9 3 0 0 0 12.5648909
1967 4 -13.6800003 -9.6789999 -30.0499992 0 0 0 1 10 2 0 0 0 11.5713673
1980 2 -10.8100004 -13.7799998 -38.9700012 0 0 0 2 8 1 0 0 0 11.6417742
2006 4 -18.7800007 -40.2700005 -38.1800003 0 0 0 2 8 6 0 0 0 13.3354111
2013 4 -12.9099998 -13.5 -1.655 0 0 0 0 12 3 0 0 0 13.1091404
2014 4 -9.6269999 -42.75 -9.6759997 0 0 0 3 6 4 0 0 0 11.872141
2021 5 -35.0999985 -20.3400002 -41.9000016 0 0 0 1 10 4 0 0 0 13.498931
2034 4 -26.6100006 -30.4799996 -39.2999992 0 0 1 4 5 5 0 0 0 12.9860812
2038 4 -1.961 -2.0250001 -35.0200005 0 0 1 2 7 6 0 0 0 12.7864065
2055 1 -2.7490001 -17.3199997 -40.7200012 0 0 0 2 8 2 0 0 0 11.2666273
2062 4 -27.3799992 -33.6500016 -21.2199993 0 0 0 3 6 4 0 0 0 11.8737508
2079 4 -5.5190001 -11.4499998 -30.0499992 0 0 0 2 10 2 0 0 0 12.5732384
2085 4 -12.29 -38.9599992 -28.0699997 0 0 0 2 8 6 0 0 0 12.837657
2090 2 -2.22 -22.1100006 -5.8800002 0 0 0 0 12 0 0 0 0 11.3351536
2108 1 -22.8899994 -15.8800002 -0.3055 0 0 0 2 10 0 0 0 0 10.4969378
2110 1 -9.0220003 -19.4699993 -32.5200005 0 0 0 3 6 4 0 0 0 11.5226469
2113 1 -35.7000008 -3.8239999 -31.2099991 0 0 0 0 12 0 0 0 0 11.0316496
2118 5 -6.8870002 -15.2299996 -22.1599999 0 0 0 2 8 5 0 0 0 12.8432818
2133 1 -13.9399996 -42.6399994 -42.4099999 0 0 0 0 12 0 0 0 0 10.5888491
2147 4 -36.5999985 -14.1199999 -19.7299996 0 0 1 1 9 3 0 0 0 11.9395686
2149 4 -12.25 -28.6000004 -37.2200012 0 0 0 1 10 4 0 0 0 12.6623612
2161 2 -12.1999998 -33.7000008 -8.5480004 0 0 0 3 6 4 0 0 0 11.6554861
2195 2 -20.6700001 -35.6699982 -15.6300001 0 0 0 2 8 1 0 0 0 11.4049063
2208 4 -36.7799988 -27.7600003 -39.0600014 0 0 1 1 8 3 1 0 0 11.993412
2216 5 -14.5 -18.0 -29.1100006 0 0 0 0 12 2 0 0 0 12.7782078
2229 4 -27.0100002 -36.2000008 -25.6599999 0 0 0 1 10 3 0 0 0 12.3207159
2232 5 -36.5800019 -27.0599995 -10.3900004 0 0 0 2 8 4 0 0 0 12.3924141
2234 5 -29.3799992 -22.8199997 -33.2799988 0 0 0 1 10 3 0 0 0 12.5552254
2238 4 -26.1800003 -12.1599999 -14.2799997 0 0 0 0 10 2 0 0 0 11.6092415
2243 2 -14.0799999 -25.5300007 -15.8800002 0 0 1 0 9 3 0 0 0 12.0699854
2246 4 -27.3600006 -7.4429999 -4.8280001 0 0 0 0 12 2 0 0 0 12.468174
2247 2 -16.4300003 -25.5499993 -19.1000004 0 0 1 2 8 1 1 0 0 10.8078099
2256 4 -15.2299996 -15.5100003 -41.6399994 0 0 0 0 12 4 0 0 0 13.5657959
2265 5 -3.2780001 -35.3899994 -17.2999992 0 0 0 0 12 2 0 0 0 12.0920763
2266 2 -9.842 -3.6180001 -25.2099991 0 0 0 3 5 3 1 0 0 11.6199503
2270 5 -21.9599992 -20.6399994 -35.1500015 0 0 2 3 4 4 2 0 0 13.2398491
2272 4 -20.9200002 -24.1599999 -39.1300011 0 0 0 2 10 1 0 0 0 12.9400588
2277 5 -11.0900002 -28.2999992 -42.0800018 0 0 0 2 8 5 0 0 0 12.2267542
2278 4 -37.7000008 -35.7400017 -37.25 0 0 0 2 10 1 0 0 0 12.7674494
2282 4 -28.5 -37.1399994 -5.9050002 0 0 0 2 8 4 0 0 0 12.5858221
2283 4 -4.3439999 -15.2200003 -21.9200002 0 0 0 3 6 4 0 0 0 11.7441397
2287 4 -26.9500008 -6.855 -15.6899996 0 0 0 2 8 5 0 0 0 12.8911304
2288 4 -17.7700005 -2.231 -22.4300003 0 0 0 1 10 2 0 0 0 12.3929253
2294 4 -27.6100006 -5.0890002 -37.8499986 0 0 0 0 12 2 0 0 0 11.7950506
2295 5 -20.5900002 -26.6499996 -39.6100006 0 0 0 0 12 3 0 0 0 13.0693216
2298 4 -19.0599995 -21.5300007 -15.2200003 0 0 0 3 8 3 0 0 0 12.0785065
2301 2 -38.5900002 -17.4200001 -40.1899986 0 0 1 2 6 4 1 0 0 12.6008654
2309 4 -15.9499998 -10.9099998 -24.1599999 0 0 2 2 7 2 1 1 0 12.2238655
2313 4 -6.0040002 -35.2799988 -4.0380001 0 0 3 1 7 3 0 0 0 12.7461691
2315 2 -35.9900018 -38.7900009 -20.8700008 0 0 0 0 10 2 0 0 0 11.959756
2322 1 -24.7600003 -13.9200002 -11.5299998 0 0 2 2 3 5 0 0 1 11.8308583
2346 5 -11.5699997 -20.0699997 -38.0600014 0 0 0 2 8 4 0 0 0 11.5512686
2347 4 -30.1900005 -1.978 -1.087 0 0 0 3 8 2 0 0 0 12.1979017
2365 2 -3.451 -8.5760002 -26.7299996 0 0 0 1 10 2 0 0 0 11.3213911
2388 4 -20.5100003 -30.0499992 -8.1569996 0 0 0 2 10 3 0 0 0 12.9804506
2394 2 -20.7999993 -6.2690001 -6.829 0 0 0 4 6 2 0 0 0 11.4708653
2412 5 -31.1299992 -36.9700012 -9.507 0 0 0 0 12 0 0 0 0 11.6155663
2414 1 -14.1300001 -38.0800018 -7.85 0 0 0 0 12 0 0 0 0 10.9396868
2423 5 -4.2199998 -17.5799999 -32.4099999 0 0 0 1 10 4 0 0 0 13.4920044
2446 5 -10.5200005 -10.5600004 -19.0 0 0 0 1 10 2 0 0 0 11.4972725
2457 1 -33.2000008 -40.6500016 -12.5299998 0 0 1 0 9 3 0 0 0 11.5371809
2464 4 -17.1399994 -34.9300004 -14.6700001 0 0 0 0 12 0 0 0 0 11.3579998
2469 5 -6.7389999 -5.7820001 -37.1399994 0 0 0 1 10 3 0 0 0 12.6353112
2479 4 -12.29 -3.5480001 -8.2060003 0 0 1 1 9 4 0 0 0 12.416522
2492 2 -4.5689998 -12.6700001 -28.2000008 0 0 0 1 10 2 0 0 0 11.6355448
2499 4 -9.099 -38.7299996 -0.6235 0 0 0 3 8 4 0 0 0 12.867775
2506 2 -10.9799996 -37.1399994 -11.5 0 0 1 2 7 4 0 0 0 11.8956194
2507 2 -25.6100006 -40.0200005 -33.0099983 0 0 1 1 9 3 0 0 0 12.9519912
2509 4 -17.8199997 -11.4200001 -41.4099999 0 0 0 4 4 5 0 0 0 12.1991425
2515 4 -17.4500008 -0.3536 -9.9650002 0 0 0 2 8 4 0 0 0 11.8598976
2523 2 -38.9599992 -23.7000008 -16.9899998 0 0 0 3 6 4 0 0 0 11.9081632
2529 4 -35.1399994 -15.8400002 -37.6399994 0 0 0 1 10 2 0 0 0 11.5310135
2536 5 -18.7299996 -3.7230001 -26.2199993 0 0 0 1 10 2 0 0 0 11.7277861
2537 5 -0.1894 -11.3199997 -25.6700001 0 0 0 0 12 0 0 0 0 11.333211
2542 2 -5.2789998 -19.7000008 -37.8199997 0 0 0 0 12 0 0 0 0 11.4004498
2545 2 -17.7000008 -20.8099995 -37.6699982 0 0 0 0 12 0 0 0 0 10.8893528
2570 2 -19.25 -28.6800003 -38.2099991 0 0 0 0 12 0 0 0 0 11.0988617
2574 4 -28.5300007 -0.9631 -26.4500008 0 0 0 3 10 2 0 0 0 13.1397562
2585 3 -31.4599991 -4.954 -3.4170001 0 0 0 2 8 5 0 0 0 13.053895
2593 4 -17.3700009 -29.5200005 -39.3699989 0 0 0 0 11 1 0 0 0 11.291172
2597 5 -36.2000008 -32.8800012 -21.2999992 0 0 0 0 12 0 0 0 0 11.4060803
2606 4 -7.942 -31.4500008 -7.882 0 0 0 3 8 3 0 0 0 12.3841772
2614 4 -27.8700008 -14.8199997 -2.954 0 0 0 5 6 2 0 0 0 11.2563667
2620 4 -3.2520001 -26.1399994 -6.0640001 0 0 0 1 10 2 0 0 0 12.2018509
2621 2 -1.14 -2.977 -19.2600002 0 0 0 3 6 3 0 0 0 11.5211697
2634 2 -21.4200001 -32.3800011 -9.4910002 0 0 1 3 5 5 0 0 0 11.969185
2635 2 -27.9300004 -19.1700001 -4.0970001 0 0 0 2 8 2 0 0 0 11.1203737
2646 5 -13.7700005 -29.5799999 -10.6599999 0 0 0 0 12 2 0 0 0 12.9731808
2649 4 -37.0800018 -40.5600014 -4.5739999 0 0 0 4 8 2 0 0 0 12.0140114
2653 4 -37.5600014 -5.0320001 -22.7199993 0 0 0 2 10 2 0 0 0 12.9224072
2659 2 -27.9300004 -22.5799999 -25.1800003 0 0 0 2 6 4 0 0 0 11.3048573
2665 5 -20.6299992 -19.7999993 -41.3600006 0 0 0 4 8 2 0 0 0 13.6610079
2667 4 -34.0699997 -22.8899994 -13.3000002 0 0 0 3 8 3 0 0 0 12.7025042
2690 4 -20.0900002 -2.3269999 -4.6469999 0 0 0 3 8 1 0 0 0 11.5529509
2691 2 1.425 -3.935 -2.4419999 0 0 0 0 12 0 0 0 0 10.7329149
2694 4 -17.6299992 -32.5999985 -32.7799988 0 0 0 1 10 3 0 0 0 12.4079676
2704 5 -6.5450001 -5.6360002 -39.6899987 0 0 0 3 8 3 0 0 0 12.1807013
2711 5 -7.0749998 -16.4200001 -17.1599999 0 0 0 2 8 3 0 0 0 11.5457669
2713 2 -26.5 -20.6800003 -41.9700012 0 0 1 2 7 3 0 0 0 11.7501784
2717 2 -23.1900005 -25.1100006 -39.9199982 0 0 0 2 8 3 0 0 0 12.5814324
2721 2 -1.953 -13.8900004 -32.2900009 0 0 0 1 10 2 0 0 0 11.6225004
2731 4 -33.6800003 -35.0600014 -17.9099998 0 0 1 2 7 3 2 0 0 12.7598362
2740 1 -1.355 -18.8999996 -1.953 0 0 0 2 8 2 0 0 0 11.3109303
2749 4 -12.2299996 -16.0300007 -38.4500008 0 0 1 3 7 3 0 0 0 11.545044
2764 2 -23.6900006 -34.619999 -1.856 0 0 0 0 12 0 0 0 0 10.901803
2765 5 -2.5810001 -16.1800003 -5.4499998 0 0 0 4 4 5 0 0 0 12.5887823
2766 4 -23.1000004 -23.5100003 -26.7800007 0 0 0 3 6 4 0 0 0 11.5220957
2769 4 -18.5699997 -31.0900002 -15.0900002 0 0 0 1 10 4 0 0 0 12.971818
2778 4 -15.1599999 -29.2199993 -17.2700005 0 0 0 1 10 2 0 0 0 12.0561304
2783 4 -9.731 -29.4799996 -21.9300004 0 0 0 3 8 2 0 0 0 12.2323895
2800 5 -28.7199993 -43.0999985 -8.2670002 0 0 0 3 8 3 0 0 0 11.5923186
2802 5 -28.4599991 -26.6800003 -13.4799996 0 0 0 3 7 3 1 0 0 12.8981104
2818 4 -31.1599999 -15.3299999 -17.8799992 0 0 1 4 5 4 0 0 0 12.3600035
2823 2 -19.0300007 -30.0599995 -17.4699993 0 0 0 2 8 1 2 0 0 11.6894017
2825 5 -16.6499996 -9.0880003 -20.4099999 0 0 1 1 8 3 1 0 0 11.937664
2832 4 -25.7000008 -1.724 -1.153 0 0 0 1 10 4 0 0 0 12.7581377
2834 5 -21.1599999 -32.1599999 -11.9399996 0 0 0 3 6 4 0 0 0 12.5353575
2836 4 -21.1599999 -14.3400002 -26.3099995 0 0 0 1 10 4 0 0 0 13.2455769
2839 5 -28.0499992 -16.4099999 -0.8426 0 0 0 2 8 4 0 0 0 12.4691983
2861 4 -8.7819996 -33.9300004 -31.5699997 0 0 0 2 8 4 0 0 0 12.3114977
2863 5 -23.6200009 -35.0600014 -38.1699982 0 0 0 0 12 3 0 0 0 13.1475411
2878 2 -14.1800003 -18.3500004 -14.6400004 0 0 1 3 5 2 2 0 0 11.4285631
2884 2 -15.9499998 -32.7799988 -19.1700001 0 0 0 0 12 0 0 0 0 11.3046341
2910 4 -24.8199997 -1.057 -23.7800007 0 0 0 1 12 2 0 0 0 12.848362
2940 5 -38.0699997 -8.6289997 -17.2600002 0 0 2 0 8 4 0 0 0 11.9803314
2945 5 -3.829 -24.4599991 -17.3299999 0 0 0 4 5 3 1 0 0 11.9586812
2954 5 -19.1399994 -35.3100014 -38.8600006 0 0 0 0 12 2 0 0 0 12.8063183
2956 2 -17.5200005 -31.9899998 -28.5699997 0 0 0 3 6 4 0 0 0 11.7857113
2963 4 -31.2399998 -6.7069998 -41.0499992 0 0 0 1 10 4 0 0 0 12.8592272
2964 2 -0.931 -26.7700005 -5.1170001 0 0 0 4 4 6 0 0 0 11.92441
2973 4 -36.6100006 -19.2900009 -29.0699997 0 0 0 4 3 6 0 0 0 12.1610556
2979 4 -25.2700005 -32.7099991 -0.8921 0 0 0 0 12 3 0 0 0 12.6118536
2992 4 -34.4900017 -2.359 -37.4099999 0 0 2 1 8 2 2 0 0 12.1923389
2998 2 -33.3800011 -37.7200012 -9.2650004 0 0 0 2 8 2 0 0 0 11.905344
3012 4 -37.2400017 -29.0200005 -4.0580001 0 0 0 1 10 5 0 0 0 13.3962717
3014 5 -14.1599999 -3.0450001 -30.1499996 0 0 0 1 10 3 0 0 0 12.6237316
3016 1 -5.606 -38.7900009 -38.2999992 0 0 0 0 12 0 0 0 0 10.6114016
3025 5 -13.6000004 -9.2440004 -36.6899987 0 0 0 2 10 2 0 0 0 12.2423487
3032 4 -36.1100006 -34.9500008 -17.8099995 0 0 0 1 10 2 0 0 0 11.6675377
3047 2 -39.2700005 -34.5400009 -8.0380001 0 0 0 1 10 2 0 0 0 11.2473879
3049 4 -30.7000008 -13.5200005 -36.9099998 0 0 2 1 7 3 1 1 0 12.2775574
3056 5 -11.8900004 -32.2299996 -13.1599999 0 0 0 4 4 6 0 0 0 12.2405186
3059 4 -24.9200002 -29.9500008 -15.2200003 0 0 0 2 10 3 0 0 0 12.8362646
3072 4 -20.0400009 -13.6199999 -33.4700012 0 0 0 1 10 4 0 0 0 12.2115431
3076 2 -30.8199997 -10.6000004 -43.2700005 0 0 1 0 10 3 1 0 0 13.1301918
3078 1 0.3455 -37.5499993 -5.6040001 0 0 0 0 12 0 0 0 0 10.9271688
3093 2 -3.1919999 -14.1599999 -30.2299996 0 0 0 2 8 2 0 0 0 11.1207619
3095 4 -25.5300007 -16.3400002 -20.9699994 0 0 0 4 4 6 0 0 0 12.0947571
3096 2 -33.1100006 -31.3400002 -40.8300019 0 0 0 2 8 4 0 0 0 12.0534067
3099 5 -0.275 -25.9300004 -11.5799999 0 0 0 1 12 2 0 0 0 13.2738667
3100 2 -17.1200008 -43.1599999 -17.6299992 0 0 0 0 12 2 0 0 0 12.2364197
3104 1 -19.7099991 -9.7700005 -37.4300003 0 0 1 2 7 4 0 0 0 11.3663921
3105 5 -38.4099999 -15.5500002 -25.8400002 0 0 0 1 10 2 0 0 0 11.809722
3112 5 -39.7200012 -37.1800003 -16.25 0 0 0 1 10 2 0 0 0 11.5808363
3117 2 -26.4099999 -3.2349999 -18.0400009 0 0 0 2 10 1 0 0 0 11.8725204
3134 5 -32.3199997 -16.5 -41.4500008 0 0 0 2 9 2 1 0 0 12.9749452
3138 5 -8.2480002 -9.1330004 -22.0799999 0 0 1 2 7 6 0 0 0 12.4736243
3146 4 -11.96 -19.1800003 -14.1899996 0 0 0 0 12 2 0 0 0 12.2194471
3159 5 -31.7800007 -34.3600006 -21.7099991 0 0 0 2 8 2 0 0 0 11.1154566
3182 4 -4.8790002 -38.1399994 -29.3999996 0 0 0 4 4 6 0 0 0 11.8871794
3188 5 -13.6800003 -22.3999996 -22.1000004 0 0 0 3 6 4 0 0 0 11.7862921
3193 5 -31.2900009 -35.1199989 -3.728 0 0 0 0 12 0 0 0 0 10.5737696
3200 2 -11.5200005 -2.658 -29.5799999 0 0 0 0 12 0 0 0 0 10.5302115
3201 4 -12.04 -29.4400006 -26.3700009 0 0 1 1 9 3 0 0 0 12.5105944
3202 5 -22.8500004 -36.25 -12.4899998 0 0 0 1 10 2 0 0 0 11.9846002