ITEM: TIMESTEP
0
ITEM: NUMBER OF ATOMS
16384
ITEM: BOX BOUNDS pp pp pp
0.0000000000000000e+00 3.2722960268131899e+01
0.0000000000000000e+00 3.2722960268131899e+01
0.0000000000000000e+00 3.2722960268131899e+01
ITEM: ATOMS id type x y z
1 4 0 0 0
2 4 1.03071 1.03071 0
3 4 3.09213 1.03071 0
4 4 3.09213 0 1.03071
5 4 2.06142 1.03071 1.03071
32 4 1.03071 2.06142 1.03071
33 4 0 3.09213 1.03071
34 4 3.09213 2.06142 1.03071
35 4 2.06142 3.09213 1.03071
522 4 3.09213 0 3.09213
523 4 2.06142 1.03071 3.09213
553 4 1.03071 3.09213 2.06142
554 4 0 3.09213 3.09213
555 4 3.09213 3.09213 2.06142
556 4 3.09213 2.06142 3.09213
557 4 2.06142 3.09213 3.09213
8193 2 0 0 0
8194 2 1.03071 1.03071 0
8195 2 1.03071 0 1.03071
8196 2 0 1.03071 1.03071
8197 2 3.09213 0 1.03071
8226 2 0 2.06142 0
8227 2 1.03071 3.09213 0
8228 2 3.09213 2.06142 1.03071
8730 2 1.03071 1.03071 2.06142
8731 2 0 1.03071 3.09213
8732 2 3.09213 1.03071 2.06142
8733 2 3.09213 0 3.09213
8734 2 2.06142 1.03071 3.09213
8760 2 2.06142 2.06142 2.06142
8761 2 3.09213 3.09213 2.06142
6 4 5.15354 0 1.03071
7 4 4.12283 1.03071 1.03071
10 4 6.18425 1.03071 1.03071
36 4 4.12283 2.06142 0
37 4 5.15354 3.09213 0
38 4 5.15354 2.06142 1.03071
39 4 4.12283 3.09213 1.03071
42 4 6.18425 3.09213 1.03071
524 4 5.15354 0 3.09213
527 4 6.18425 1.03071 3.09213
558 4 4.12283 2.06142 2.06142
559 4 5.15354 2.06142 3.09213
560 4 4.12283 3.09213 3.09213
561 4 6.18425 2.06142 2.06142
8198 2 4.12283 0 0
8199 2 5.15354 1.03071 0
8229 2 4.12283 2.06142 0
8230 2 5.15354 3.09213 0
8735 2 4.12283 0 2.06142
8736 2 5.15354 0 3.09213
8737 2 4.12283 1.03071 3.09213
8739 2 6.18425 1.03071 3.09213
8762 2 5.15354 3.09213 2.06142
8763 2 5.15354 2.06142 3.09213
8764 2 6.18425 3.09213 3.09213
8 4 7.21496 1.03071 0
9 4 7.21496 0 1.03071
11 4 8.24567 0 0
12 4 8.24567 1.03071 1.03071
40 4 7.21496 3.09213 0
41 4 7.21496 2.06142 1.03071
43 4 8.24567 2.06142 0
44 4 9.27638 3.09213 0
45 4 8.24567 3.09213 1.03071
525 4 7.21496 1.03071 2.06142
526 4 7.21496 0 3.09213
528 4 8.24567 0 2.06142
529 4 9.27638 0 3.09213
562 4 7.21496 3.09213 2.06142
563 4 9.27638 3.09213 2.06142
564 4 9.27638 2.06142 3.09213
8200 2 7.21496 1.03071 0
8201 2 9.27638 0 1.03071
8231 2 8.24567 2.06142 0
8232 2 9.27638 2.06142 1.03071
8738 2 7.21496 0 3.09213
8740 2 8.24567 0 2.06142
8741 2 8.24567 1.03071 3.09213
8765 2 9.27638 3.09213 2.06142
8766 2 9.27638 2.06142 3.09213
8767 2 8.24567 3.09213 3.09213
13 4 12.3685 0 0
46 4 11.3378 2.06142 1.03071
47 4 10.3071 3.09213 1.03071
48 4 12.3685 2.06142 0
51 4 12.3685 3.09213 1.03071
530 4 11.3378 0 3.09213
531 4 10.3071 1.03071 3.09213
565 4 10.3071 2.06142 2.06142
566 4 11.3378 3.09213 2.06142
567 4 11.3378 2.06142 3.09213
568 4 12.3685 2.06142 2.06142
8202 2 11.3378 0 1.03071
8203 2 10.3071 1.03071 1.03071
8204 2 12.3685 0 0
8206 2 12.3685 1.03071 1.03071
8233 2 11.3378 3.09213 0
8742 2 10.3071 1.03071 3.09213
8743 2 12.3685 0 2.06142
8745 2 12.3685 1.03071 3.09213
8768 2 11.3378 3.09213 2.06142
8769 2 10.3071 3.09213 3.09213
8770 2 12.3685 2.06142 2.06142
8772 2 12.3685 3.09213 3.09213
14 4 14.4299 0 0
15 4 15.4606 0 1.03071
16 4 14.4299 1.03071 1.03071
49 4 13.3992 3.09213 0
50 4 13.3992 2.06142 1.03071
52 4 14.4299 3.09213 1.03071
532 4 13.3992 1.03071 2.06142
533 4 13.3992 0 3.09213
534 4 14.4299 0 2.06142
535 4 14.4299 1.03071 3.09213
569 4 13.3992 3.09213 2.06142
570 4 13.3992 2.06142 3.09213
8205 2 13.3992 1.03071 0
8207 2 14.4299 0 0
8208 2 15.4606 0 1.03071
8234 2 13.3992 3.09213 0
8235 2 13.3992 2.06142 1.03071
8236 2 14.4299 2.06142 0
8237 2 14.4299 3.09213 1.03071
8744 2 13.3992 1.03071 2.06142
8746 2 14.4299 0 2.06142
8747 2 15.4606 0 3.09213
8771 2 13.3992 3.09213 2.06142
8773 2 14.4299 2.06142 2.06142
8774 2 15.4606 2.06142 3.09213
8775 2 14.4299 3.09213 3.09213
17 4 16.4913 0 0
18 4 17.522 1.03071 0
19 4 17.522 0 1.03071
20 4 19.5835 1.03071 0
21 4 19.5835 0 1.03071
53 4 16.4913 2.06142 0
54 4 17.522 3.09213 0
55 4 17.522 2.06142 1.03071
56 4 16.4913 3.09213 1.03071
57 4 18.5528 2.06142 0
58 4 19.5835 3.09213 0
59 4 18.5528 3.09213 1.03071
536 4 16.4913 0 2.06142
537 4 17.522 1.03071 2.06142
538 4 17.522 0 3.09213
539 4 16.4913 1.03071 3.09213
571 4 16.4913 2.06142 2.06142
572 4 17.522 3.09213 2.06142
573 4 17.522 2.06142 3.09213
574 4 16.4913 3.09213 3.09213
575 4 18.5528 2.06142 2.06142
576 4 19.5835 3.09213 2.06142
577 4 18.5528 3.09213 3.09213
8209 2 17.522 1.03071 0
8210 2 19.5835 1.03071 0
8211 2 19.5835 0 1.03071
8212 2 18.5528 1.03071 1.03071
8238 2 16.4913 2.06142 0
8239 2 17.522 3.09213 0
8240 2 19.5835 2.06142 1.03071
8241 2 18.5528 3.09213 1.03071
8748 2 16.4913 0 2.06142
8749 2 16.4913 1.03071 3.09213
8750 2 19.5835 1.03071 2.06142
8751 2 19.5835 0 3.09213
8752 2 18.5528 1.03071 3.09213
8776 2 17.522 3.09213 2.06142
8777 2 16.4913 3.09213 3.09213
8778 2 18.5528 2.06142 2.06142
22 4 21.6449 1.03071 0
23 4 22.6756 0 0
60 4 21.6449 2.06142 1.03071
61 4 20.6142 3.09213 1.03071
540 4 20.6142 0 2.06142
541 4 22.6756 0 2.06142
578 4 20.6142 3.09213 3.09213
581 4 22.6756 3.09213 3.09213
8213 2 20.6142 0 0
8214 2 21.6449 0 1.03071
8215 2 20.6142 1.03071 1.03071
8217 2 22.6756 1.03071 1.03071
8242 2 21.6449 2.06142 1.03071
8243 2 22.6756 2.06142 0
8753 2 20.6142 1.03071 3.09213
8779 2 21.6449 2.06142 3.09213
8780 2 20.6142 3.09213 3.09213
8782 2 22.6756 3.09213 3.09213
24 4 23.7063 1.03071 0
25 4 25.7677 1.03071 0
62 4 23.7063 2.06142 1.03071
63 4 24.737 2.06142 0
64 4 25.7677 3.09213 0
65 4 25.7677 2.06142 1.03071
542 4 23.7063 1.03071 2.06142
543 4 25.7677 1.03071 2.06142
544 4 25.7677 0 3.09213
545 4 24.737 1.03071 3.09213
579 4 23.7063 3.09213 2.06142
580 4 23.7063 2.06142 3.09213
582 4 25.7677 3.09213 2.06142
8216 2 23.7063 1.03071 0
8218 2 24.737 0 0
8219 2 25.7677 1.03071 0
8220 2 24.737 1.03071 1.03071
8244 2 23.7063 3.09213 0
8245 2 24.737 2.06142 0
8246 2 25.7677 2.06142 1.03071
8754 2 23.7063 1.03071 2.06142
8755 2 23.7063 0 3.09213
8756 2 24.737 1.03071 3.09213
8781 2 23.7063 2.06142 3.09213
8783 2 24.737 2.06142 2.06142
8784 2 25.7677 3.09213 2.06142
8785 2 24.737 3.09213 3.09213
26 4 27.8291 1.03071 0
27 4 28.8598 0 0
29 4 28.8598 1.03071 1.03071
66 4 27.8291 3.09213 0
67 4 27.8291 2.06142 1.03071
68 4 28.8598 2.06142 0
546 4 26.7984 0 2.06142
547 4 27.8291 1.03071 2.06142
548 4 27.8291 0 3.09213
549 4 26.7984 1.03071 3.09213
550 4 28.8598 1.03071 3.09213
583 4 26.7984 2.06142 2.06142
584 4 27.8291 3.09213 2.06142
8221 2 26.7984 0 0
8222 2 27.8291 0 1.03071
8223 2 26.7984 1.03071 1.03071
8247 2 26.7984 2.06142 0
8248 2 27.8291 3.09213 0
8249 2 27.8291 2.06142 1.03071
8250 2 26.7984 3.09213 1.03071
8251 2 28.8598 2.06142 0
8757 2 26.7984 0 2.06142
8758 2 27.8291 0 3.09213
8786 2 26.7984 3.09213 3.09213
8787 2 28.8598 2.06142 2.06142
28 4 29.8906 0 1.03071
30 4 30.9213 0 0
31 4 31.952 1.03071 0
69 4 29.8906 3.09213 0
70 4 30.9213 2.06142 0
71 4 31.952 3.09213 0
72 4 30.9213 3.09213 1.03071
551 4 30.9213 0 2.06142
552 4 30.9213 1.03071 3.09213
585 4 29.8906 2.06142 3.09213
586 4 31.952 3.09213 2.06142
8224 2 29.8906 0 1.03071
8225 2 30.9213 0 0
8252 2 30.9213 2.06142 0
8253 2 31.952 3.09213 0
8254 2 31.952 2.06142 1.03071
8255 2 30.9213 3.09213 1.03071
8759 2 31.952 1.03071 2.06142
8788 2 29.8906 2.06142 3.09213
8789 2 31.952 3.09213 2.06142
73 4 1.03071 4.12283 1.03071
74 4 3.09213 4.12283 1.03071
75 4 2.06142 5.15354 1.03071
99 4 1.03071 6.18425 1.03071
101 4 2.06142 6.18425 0
103 4 3.09213 6.18425 1.03071
587 4 0 4.12283 2.06142
588 4 1.03071 5.15354 2.06142
589 4 1.03071 4.12283 3.09213
590 4 3.09213 5.15354 2.06142
591 4 2.06142 5.15354 3.09213
8256 2 1.03071 4.12283 1.03071
8257 2 0 5.15354 1.03071
8258 2 2.06142 4.12283 0
8259 2 3.09213 5.15354 0
8295 2 0 6.18425 0
8296 2 2.06142 6.18425 0
8298 2 3.09213 6.18425 1.03071
8790 2 0 4.12283 2.06142
8791 2 1.03071 4.12283 3.09213
8792 2 0 5.15354 3.09213
8793 2 2.06142 4.12283 2.06142
8794 2 3.09213 5.15354 2.06142
8795 2 2.06142 5.15354 3.09213
8824 2 0 6.18425 2.06142
8826 2 2.06142 6.18425 2.06142
76 4 6.18425 4.12283 0
104 4 4.12283 6.18425 0
105 4 5.15354 6.18425 1.03071
613 4 4.12283 6.18425 2.06142
8260 2 4.12283 4.12283 0
8261 2 5.15354 4.12283 1.03071
8262 2 4.12283 5.15354 1.03071
8263 2 6.18425 4.12283 0
8264 2 6.18425 5.15354 1.03071
8299 2 4.12283 6.18425 0
8301 2 6.18425 6.18425 0
8796 2 5.15354 4.12283 3.09213
8797 2 4.12283 5.15354 3.09213
8799 2 6.18425 5.15354 3.09213
8827 2 4.12283 6.18425 2.06142
77 4 7.21496 4.12283 1.03071
78 4 9.27638 4.12283 1.03071
107 4 7.21496 6.18425 1.03071
592 4 8.24567 4.12283 2.06142
593 4 9.27638 4.12283 3.09213
8265 2 8.24567 4.12283 0
8266 2 9.27638 5.15354 0
8267 2 9.27638 4.12283 1.03071
8305 2 9.27638 6.18425 1.03071
8798 2 7.21496 5.15354 2.06142
8800 2 8.24567 5.15354 3.09213
8831 2 8.24567 6.18425 2.06142
79 4 11.3378 5.15354 0
80 4 11.3378 4.12283 1.03071
81 4 12.3685 4.12283 0
108 4 10.3071 6.18425 0
110 4 11.3378 6.18425 1.03071
111 4 12.3685 6.18425 0
594 4 10.3071 4.12283 2.06142
595 4 11.3378 5.15354 2.06142
596 4 12.3685 4.12283 2.06142
618 4 10.3071 6.18425 2.06142
619 4 11.3378 6.18425 3.09213
8268 2 10.3071 4.12283 0
8269 2 11.3378 5.15354 0
8270 2 11.3378 4.12283 1.03071
8272 2 12.3685 5.15354 1.03071
8801 2 11.3378 5.15354 2.06142
8802 2 11.3378 4.12283 3.09213
8803 2 12.3685 5.15354 3.09213
82 4 13.3992 4.12283 1.03071
83 4 14.4299 5.15354 1.03071
112 4 13.3992 6.18425 1.03071
114 4 14.4299 6.18425 0
116 4 15.4606 6.18425 1.03071
597 4 13.3992 4.12283 3.09213
598 4 14.4299 4.12283 2.06142
599 4 15.4606 5.15354 2.06142
600 4 15.4606 4.12283 3.09213
8271 2 13.3992 5.15354 0
8273 2 14.4299 5.15354 1.03071
8309 2 14.4299 6.18425 0
8310 2 15.4606 6.18425 1.03071
8804 2 14.4299 4.12283 2.06142
84 4 17.522 4.12283 1.03071
85 4 19.5835 5.15354 0
86 4 18.5528 5.15354 1.03071
119 4 18.5528 6.18425 0
121 4 19.5835 6.18425 1.03071
601 4 17.522 5.15354 2.06142
602 4 16.4913 5.15354 3.09213
603 4 18.5528 4.12283 2.06142
623 4 16.4913 6.18425 2.06142
626 4 18.5528 6.18425 2.06142
627 4 19.5835 6.18425 3.09213
8274 2 16.4913 4.12283 0
8275 2 17.522 5.15354 0
8276 2 16.4913 5.15354 1.03071
8277 2 18.5528 4.12283 0
8278 2 19.5835 5.15354 0
8279 2 19.5835 4.12283 1.03071
8280 2 18.5528 5.15354 1.03071
8312 2 16.4913 6.18425 0
8314 2 18.5528 6.18425 0
8315 2 19.5835 6.18425 1.03071
8805 2 17.522 5.15354 2.06142
8806 2 17.522 4.12283 3.09213
8807 2 16.4913 5.15354 3.09213
8808 2 18.5528 5.15354 3.09213
8835 2 16.4913 6.18425 2.06142
87 4 21.6449 4.12283 1.03071
88 4 20.6142 5.15354 1.03071
90 4 22.6756 5.15354 1.03071
123 4 20.6142 6.18425 0
124 4 21.6449 6.18425 1.03071
604 4 22.6756 4.12283 2.06142
628 4 20.6142 6.18425 2.06142
8281 2 20.6142 4.12283 0
8282 2 21.6449 5.15354 0
8283 2 21.6449 4.12283 1.03071
8316 2 20.6142 6.18425 0
8317 2 22.6756 6.18425 0
8809 2 21.6449 5.15354 2.06142
8810 2 21.6449 4.12283 3.09213
8811 2 20.6142 5.15354 3.09213
8812 2 22.6756 4.12283 2.06142
8815 2 22.6756 5.15354 3.09213
8839 2 20.6142 6.18425 2.06142
8841 2 21.6449 6.18425 3.09213
89 4 23.7063 4.12283 1.03071
91 4 25.7677 5.15354 0
92 4 24.737 5.15354 1.03071
126 4 25.7677 6.18425 1.03071
605 4 24.737 5.15354 3.09213
631 4 23.7063 6.18425 3.09213
633 4 24.737 6.18425 2.06142
8284 2 23.7063 5.15354 0
8285 2 24.737 4.12283 0
8813 2 23.7063 5.15354 2.06142
8814 2 23.7063 4.12283 3.09213
8816 2 24.737 4.12283 2.06142
8817 2 25.7677 5.15354 2.06142
8818 2 25.7677 4.12283 3.09213
8819 2 24.737 5.15354 3.09213
93 4 26.7984 5.15354 1.03071
94 4 28.8598 4.12283 0
128 4 26.7984 6.18425 0
129 4 27.8291 6.18425 1.03071
130 4 28.8598 6.18425 0
606 4 27.8291 4.12283 3.09213
607 4 26.7984 5.15354 3.09213
608 4 28.8598 5.15354 3.09213
8286 2 27.8291 5.15354 0
8287 2 27.8291 4.12283 1.03071
8288 2 26.7984 5.15354 1.03071
8289 2 28.8598 4.12283 0
8291 2 28.8598 5.15354 1.03071
8319 2 27.8291 6.18425 1.03071
8321 2 28.8598 6.18425 0
8820 2 27.8291 4.12283 3.09213
8821 2 28.8598 5.15354 3.09213
8847 2 28.8598 6.18425 2.06142
95 4 30.9213 4.12283 0
96 4 31.952 5.15354 0
97 4 30.9213 5.15354 1.03071
609 4 30.9213 4.12283 2.06142
610 4 31.952 5.15354 2.06142
637 4 30.9213 6.18425 2.06142
638 4 31.952 6.18425 3.09213
8290 2 29.8906 5.15354 0
8292 2 30.9213 4.12283 0
8293 2 31.952 5.15354 0
8294 2 30.9213 5.15354 1.03071
8323 2 30.9213 6.18425 0
8822 2 31.952 5.15354 2.06142
8823 2 31.952 4.12283 3.09213
8849 2 29.8906 6.18425 3.09213
98 4 1.03071 7.21496 0
100 4 0 7.21496 1.03071
102 4 3.09213 7.21496 0
132 4 1.03071 9.27638 0
133 4 3.09213 9.27638 0
611 4 0 7.21496 3.09213
612 4 3.09213 7.21496 2.06142
640 4 1.03071 9.27638 2.06142
641 4 1.03071 8.24567 3.09213
642 4 0 9.27638 3.09213
643 4 3.09213 8.24567 3.09213
8297 2 3.09213 7.21496 0
8326 2 1.03071 9.27638 0
8327 2 1.03071 8.24567 1.03071
8328 2 0 9.27638 1.03071
8329 2 2.06142 8.24567 0
8330 2 3.09213 9.27638 0
8331 2 3.09213 8.24567 1.03071
8332 2 2.06142 9.27638 1.03071
8825 2 1.03071 7.21496 2.06142
8852 2 0 8.24567 2.06142
8853 2 1.03071 9.27638 2.06142
8854 2 1.03071 8.24567 3.09213
8855 2 0 9.27638 3.09213
8856 2 2.06142 8.24567 2.06142
8857 2 3.09213 9.27638 2.06142
8858 2 3.09213 8.24567 3.09213
8859 2 2.06142 9.27638 3.09213
134 4 5.15354 8.24567 1.03071
135 4 6.18425 9.27638 1.03071
614 4 5.15354 7.21496 2.06142
615 4 4.12283 7.21496 3.09213
617 4 6.18425 7.21496 3.09213
645 4 6.18425 9.27638 3.09213
8300 2 5.15354 7.21496 0
8303 2 6.18425 7.21496 1.03071
8333 2 4.12283 8.24567 0
8334 2 5.15354 9.27638 0
8335 2 4.12283 9.27638 1.03071
8828 2 5.15354 7.21496 2.06142
8830 2 6.18425 7.21496 3.09213
8860 2 5.15354 9.27638 2.06142
8861 2 4.12283 9.27638 3.09213
8862 2 6.18425 9.27638 3.09213
106 4 7.21496 7.21496 0
136 4 8.24567 9.27638 1.03071
616 4 7.21496 7.21496 2.06142
644 4 7.21496 8.24567 3.09213
646 4 9.27638 8.24567 3.09213
647 4 8.24567 9.27638 3.09213
8302 2 7.21496 7.21496 0
8304 2 9.27638 7.21496 0
8336 2 7.21496 9.27638 0
8337 2 9.27638 9.27638 0
8338 2 9.27638 8.24567 1.03071
8339 2 8.24567 9.27638 1.03071
8829 2 7.21496 7.21496 2.06142
8832 2 8.24567 7.21496 3.09213
8863 2 9.27638 9.27638 2.06142
109 4 11.3378 7.21496 0
113 4 12.3685 7.21496 1.03071
137 4 10.3071 8.24567 0
138 4 11.3378 9.27638 0
139 4 12.3685 8.24567 0
648 4 11.3378 8.24567 3.09213
649 4 10.3071 9.27638 3.09213
651 4 12.3685 9.27638 3.09213
8306 2 11.3378 7.21496 0
8308 2 12.3685 7.21496 1.03071
8340 2 10.3071 8.24567 0
8341 2 11.3378 8.24567 1.03071
8342 2 10.3071 9.27638 1.03071
8345 2 12.3685 9.27638 1.03071
8864 2 10.3071 8.24567 2.06142
8865 2 11.3378 8.24567 3.09213
8866 2 12.3685 8.24567 2.06142
115 4 15.4606 7.21496 0
117 4 14.4299 7.21496 1.03071
140 4 13.3992 9.27638 0
141 4 15.4606 9.27638 0
142 4 14.4299 9.27638 1.03071
620 4 13.3992 7.21496 2.06142
621 4 15.4606 7.21496 2.06142
622 4 14.4299 7.21496 3.09213
650 4 13.3992 8.24567 3.09213
652 4 15.4606 9.27638 2.06142
653 4 14.4299 9.27638 3.09213
8307 2 13.3992 7.21496 0
8311 2 14.4299 7.21496 1.03071
8343 2 13.3992 9.27638 0
8344 2 13.3992 8.24567 1.03071
8346 2 14.4299 9.27638 1.03071
8833 2 13.3992 7.21496 2.06142
8834 2 15.4606 7.21496 2.06142
8867 2 13.3992 9.27638 2.06142
8868 2 14.4299 8.24567 2.06142
8869 2 15.4606 9.27638 2.06142
118 4 16.4913 7.21496 1.03071
120 4 19.5835 7.21496 0
122 4 18.5528 7.21496 1.03071
143 4 17.522 8.24567 1.03071
144 4 16.4913 9.27638 1.03071
145 4 19.5835 9.27638 0
146 4 19.5835 8.24567 1.03071
147 4 18.5528 9.27638 1.03071
624 4 17.522 7.21496 2.06142
625 4 16.4913 7.21496 3.09213
654 4 16.4913 8.24567 2.06142
655 4 17.522 9.27638 2.06142
656 4 17.522 8.24567 3.09213
657 4 18.5528 8.24567 2.06142
658 4 19.5835 9.27638 2.06142
8313 2 17.522 7.21496 0
8347 2 17.522 9.27638 0
8348 2 16.4913 9.27638 1.03071
8349 2 19.5835 8.24567 1.03071
8350 2 18.5528 9.27638 1.03071
8836 2 17.522 7.21496 2.06142
8837 2 16.4913 7.21496 3.09213
8838 2 19.5835 7.21496 2.06142
8870 2 17.522 9.27638 2.06142
8871 2 19.5835 9.27638 2.06142
8872 2 19.5835 8.24567 3.09213
8873 2 18.5528 9.27638 3.09213
148 4 20.6142 8.24567 0
149 4 21.6449 9.27638 0
150 4 20.6142 9.27638 1.03071
629 4 21.6449 7.21496 2.06142
630 4 20.6142 7.21496 3.09213
632 4 22.6756 7.21496 3.09213
659 4 21.6449 9.27638 2.06142
660 4 22.6756 8.24567 2.06142
8318 2 22.6756 7.21496 1.03071
8351 2 21.6449 9.27638 0
8352 2 20.6142 9.27638 1.03071
8353 2 22.6756 8.24567 0
8355 2 22.6756 9.27638 1.03071
8840 2 21.6449 7.21496 2.06142
8842 2 20.6142 7.21496 3.09213
8844 2 22.6756 7.21496 3.09213
8874 2 21.6449 9.27638 2.06142
8875 2 21.6449 8.24567 3.09213
8876 2 20.6142 9.27638 3.09213
125 4 25.7677 7.21496 0
127 4 24.737 7.21496 1.03071
151 4 23.7063 9.27638 0
152 4 24.737 8.24567 0
153 4 25.7677 9.27638 0
154 4 24.737 9.27638 1.03071
661 4 23.7063 9.27638 2.06142
662 4 24.737 8.24567 2.06142
663 4 25.7677 9.27638 2.06142
8354 2 23.7063 8.24567 1.03071
8356 2 24.737 8.24567 0
8357 2 25.7677 8.24567 1.03071
8358 2 24.737 9.27638 1.03071
8843 2 23.7063 7.21496 2.06142
8845 2 24.737 7.21496 3.09213
8877 2 25.7677 8.24567 3.09213
155 4 26.7984 8.24567 0
156 4 27.8291 8.24567 1.03071
157 4 26.7984 9.27638 1.03071
158 4 28.8598 8.24567 0
634 4 26.7984 7.21496 3.09213
636 4 28.8598 7.21496 3.09213
664 4 26.7984 8.24567 2.06142
665 4 27.8291 8.24567 3.09213
666 4 26.7984 9.27638 3.09213
667 4 28.8598 8.24567 2.06142
8320 2 26.7984 7.21496 1.03071
8322 2 28.8598 7.21496 1.03071
8359 2 27.8291 8.24567 1.03071
8360 2 26.7984 9.27638 1.03071
8846 2 26.7984 7.21496 3.09213
8850 2 28.8598 7.21496 3.09213
8878 2 26.7984 8.24567 2.06142
131 4 31.952 7.21496 0
159 4 30.9213 9.27638 1.03071
635 4 29.8906 7.21496 2.06142
639 4 30.9213 7.21496 3.09213
668 4 29.8906 9.27638 2.06142
669 4 29.8906 8.24567 3.09213
670 4 31.952 8.24567 3.09213
671 4 30.9213 9.27638 3.09213
8324 2 31.952 7.21496 0
8325 2 30.9213 7.21496 1.03071
8361 2 29.8906 9.27638 0
8362 2 30.9213 8.24567 0
8363 2 31.952 9.27638 0
8364 2 31.952 8.24567 1.03071
8365 2 30.9213 9.27638 1.03071
8848 2 29.8906 7.21496 2.06142
8851 2 31.952 7.21496 2.06142
8879 2 31.952 8.24567 3.09213
160 4 0 10.3071 0
161 4 1.03071 11.3378 0
162 4 1.03071 10.3071 1.03071
163 4 0 11.3378 1.03071
164 4 2.06142 10.3071 0
165 4 3.09213 10.3071 1.03071
194 4 1.03071 12.3685 1.03071
196 4 2.06142 12.3685 0
672 4 0 10.3071 2.06142
673 4 1.03071 10.3071 3.09213
674 4 0 11.3378 3.09213
675 4 2.06142 10.3071 2.06142
676 4 3.09213 11.3378 2.06142
677 4 3.09213 10.3071 3.09213
678 4 2.06142 11.3378 3.09213
711 4 0 12.3685 2.06142
713 4 2.06142 12.3685 2.06142
8366 2 0 10.3071 0
8367 2 1.03071 11.3378 0
8368 2 1.03071 10.3071 1.03071
8369 2 0 11.3378 1.03071
8370 2 2.06142 10.3071 0
8371 2 3.09213 11.3378 0
8372 2 3.09213 10.3071 1.03071
8373 2 2.06142 11.3378 1.03071
8404 2 2.06142 12.3685 0
8880 2 0 10.3071 2.06142
8881 2 1.03071 10.3071 3.09213
8882 2 0 11.3378 3.09213
8883 2 2.06142 10.3071 2.06142
8884 2 3.09213 11.3378 2.06142
8885 2 3.09213 10.3071 3.09213
8918 2 0 12.3685 2.06142
8920 2 2.06142 12.3685 2.06142
8922 2 3.09213 12.3685 3.09213
166 4 5.15354 11.3378 0
167 4 5.15354 10.3071 1.03071
168 4 4.12283 11.3378 1.03071
170 4 6.18425 11.3378 1.03071
198 4 4.12283 12.3685 0
200 4 5.15354 12.3685 1.03071
202 4 6.18425 12.3685 0
679 4 4.12283 10.3071 2.06142
680 4 5.15354 11.3378 2.06142
681 4 5.15354 10.3071 3.09213
682 4 6.18425 10.3071 2.06142
684 4 6.18425 11.3378 3.09213
716 4 5.15354 12.3685 3.09213
718 4 6.18425 12.3685 2.06142
8374 2 4.12283 10.3071 0
8375 2 5.15354 11.3378 0
8406 2 4.12283 12.3685 0
8408 2 6.18425 12.3685 0
8886 2 4.12283 10.3071 2.06142
8887 2 5.15354 11.3378 2.06142
8889 2 6.18425 11.3378 3.09213
8923 2 4.12283 12.3685 2.06142
8925 2 5.15354 12.3685 3.09213
8926 2 6.18425 12.3685 2.06142
169 4 7.21496 10.3071 1.03071
171 4 8.24567 10.3071 0
172 4 9.27638 11.3378 0
173 4 9.27638 10.3071 1.03071
174 4 8.24567 11.3378 1.03071
204 4 7.21496 12.3685 1.03071
206 4 9.27638 12.3685 1.03071
683 4 7.21496 11.3378 2.06142
685 4 8.24567 10.3071 2.06142
686 4 9.27638 11.3378 2.06142
687 4 9.27638 10.3071 3.09213
721 4 8.24567 12.3685 2.06142
8376 2 7.21496 11.3378 0
8377 2 7.21496 10.3071 1.03071
8378 2 8.24567 10.3071 0
8379 2 9.27638 11.3378 0
8380 2 9.27638 10.3071 1.03071
8381 2 8.24567 11.3378 1.03071
8410 2 8.24567 12.3685 0
8888 2 7.21496 11.3378 2.06142
8890 2 8.24567 10.3071 2.06142
8891 2 9.27638 11.3378 2.06142
8928 2 8.24567 12.3685 2.06142
8929 2 9.27638 12.3685 3.09213
175 4 10.3071 10.3071 0
176 4 10.3071 11.3378 1.03071
177 4 12.3685 10.3071 0
209 4 12.3685 12.3685 0
688 4 10.3071 10.3071 2.06142
689 4 11.3378 11.3378 2.06142
690 4 11.3378 10.3071 3.09213
693 4 12.3685 11.3378 3.09213
724 4 11.3378 12.3685 3.09213
8382 2 11.3378 11.3378 0
8383 2 11.3378 10.3071 1.03071
8413 2 10.3071 12.3685 0
8414 2 11.3378 12.3685 1.03071
8892 2 11.3378 11.3378 2.06142
8893 2 11.3378 10.3071 3.09213
8894 2 12.3685 10.3071 2.06142
8896 2 12.3685 11.3378 3.09213
8931 2 11.3378 12.3685 3.09213
178 4 13.3992 11.3378 0
179 4 15.4606 11.3378 0
691 4 13.3992 11.3378 2.06142
692 4 13.3992 10.3071 3.09213
725 4 13.3992 12.3685 3.09213
8384 2 13.3992 11.3378 0
8385 2 13.3992 10.3071 1.03071
8386 2 14.4299 10.3071 0
8387 2 15.4606 11.3378 0
8416 2 13.3992 12.3685 1.03071
8417 2 14.4299 12.3685 0
8418 2 15.4606 12.3685 1.03071
8895 2 13.3992 11.3378 2.06142
8897 2 14.4299 10.3071 2.06142
8933 2 14.4299 12.3685 2.06142
180 4 18.5528 10.3071 0
181 4 19.5835 11.3378 0
182 4 18.5528 11.3378 1.03071
212 4 16.4913 12.3685 0
214 4 17.522 12.3685 1.03071
217 4 19.5835 12.3685 1.03071
694 4 17.522 10.3071 3.09213
695 4 16.4913 11.3378 3.09213
696 4 19.5835 10.3071 3.09213
728 4 16.4913 12.3685 2.06142
730 4 17.522 12.3685 3.09213
731 4 18.5528 12.3685 2.06142
732 4 19.5835 12.3685 3.09213
8388 2 16.4913 11.3378 1.03071
8389 2 19.5835 11.3378 0
8390 2 19.5835 10.3071 1.03071
8419 2 16.4913 12.3685 0
8420 2 17.522 12.3685 1.03071
8421 2 18.5528 12.3685 0
8423 2 19.5835 12.3685 1.03071
8898 2 17.522 11.3378 2.06142
8899 2 19.5835 11.3378 2.06142
8900 2 19.5835 10.3071 3.09213
8901 2 18.5528 11.3378 3.09213
8937 2 18.5528 12.3685 2.06142
8939 2 19.5835 12.3685 3.09213
183 4 20.6142 10.3071 0
184 4 22.6756 10.3071 0
185 4 22.6756 11.3378 1.03071
218 4 20.6142 12.3685 0
219 4 21.6449 12.3685 1.03071
220 4 22.6756 12.3685 0
697 4 20.6142 11.3378 3.09213
698 4 22.6756 10.3071 2.06142
700 4 22.6756 11.3378 3.09213
734 4 20.6142 12.3685 2.06142
8391 2 20.6142 10.3071 0
8392 2 21.6449 11.3378 0
8393 2 21.6449 10.3071 1.03071
8394 2 22.6756 11.3378 1.03071
8424 2 20.6142 12.3685 0
8902 2 20.6142 10.3071 2.06142
8903 2 21.6449 11.3378 2.06142
8904 2 20.6142 11.3378 3.09213
8942 2 21.6449 12.3685 3.09213
8943 2 22.6756 12.3685 2.06142
186 4 25.7677 10.3071 1.03071
223 4 25.7677 12.3685 1.03071
699 4 23.7063 11.3378 2.06142
701 4 24.737 10.3071 2.06142
737 4 23.7063 12.3685 3.09213
739 4 24.737 12.3685 2.06142
8395 2 24.737 10.3071 0
8396 2 25.7677 10.3071 1.03071
8397 2 24.737 11.3378 1.03071
8905 2 23.7063 10.3071 3.09213
8906 2 24.737 10.3071 2.06142
8907 2 25.7677 11.3378 2.06142
8908 2 25.7677 10.3071 3.09213
8945 2 25.7677 12.3685 3.09213
187 4 27.8291 11.3378 0
188 4 27.8291 10.3071 1.03071
189 4 26.7984 11.3378 1.03071
224 4 26.7984 12.3685 0
226 4 28.8598 12.3685 0
702 4 26.7984 10.3071 2.06142
703 4 27.8291 11.3378 2.06142
704 4 27.8291 10.3071 3.09213
705 4 28.8598 10.3071 2.06142
708 4 28.8598 11.3378 3.09213
741 4 27.8291 12.3685 3.09213
8398 2 26.7984 10.3071 0
8399 2 27.8291 10.3071 1.03071
8400 2 26.7984 11.3378 1.03071
8401 2 28.8598 10.3071 0
8429 2 27.8291 12.3685 1.03071
8909 2 26.7984 10.3071 2.06142
8910 2 27.8291 11.3378 2.06142
8911 2 27.8291 10.3071 3.09213
8912 2 26.7984 11.3378 3.09213
8915 2 28.8598 11.3378 3.09213
8947 2 26.7984 12.3685 2.06142
8948 2 27.8291 12.3685 3.09213
8949 2 28.8598 12.3685 2.06142
190 4 29.8906 11.3378 0
191 4 31.952 11.3378 0
192 4 31.952 10.3071 1.03071
706 4 29.8906 11.3378 2.06142
707 4 29.8906 10.3071 3.09213
709 4 30.9213 10.3071 2.06142
710 4 31.952 11.3378 2.06142
744 4 29.8906 12.3685 3.09213
746 4 31.952 12.3685 3.09213
8402 2 29.8906 11.3378 0
8403 2 31.952 11.3378 0
8913 2 29.8906 11.3378 2.06142
8914 2 29.8906 10.3071 3.09213
8916 2 30.9213 10.3071 2.06142
8917 2 31.952 10.3071 3.09213
8951 2 31.952 12.3685 3.09213
193 4 1.03071 13.3992 0
195 4 0 13.3992 1.03071
197 4 3.09213 13.3992 0
230 4 0 14.4299 0
231 4 1.03071 15.4606 0
232 4 1.03071 14.4299 1.03071
233 4 0 15.4606 1.03071
234 4 3.09213 15.4606 0
235 4 3.09213 14.4299 1.03071
236 4 2.06142 15.4606 1.03071
712 4 1.03071 13.3992 2.06142
714 4 2.06142 13.3992 3.09213
747 4 0 14.4299 2.06142
748 4 1.03071 15.4606 2.06142
749 4 1.03071 14.4299 3.09213
750 4 2.06142 14.4299 2.06142
751 4 3.09213 14.4299 3.09213
8405 2 2.06142 13.3992 1.03071
8431 2 0 14.4299 0
8432 2 1.03071 15.4606 0
8433 2 1.03071 14.4299 1.03071
8434 2 0 15.4606 1.03071
8435 2 3.09213 15.4606 0
8436 2 3.09213 14.4299 1.03071
8919 2 1.03071 13.3992 2.06142
8921 2 3.09213 13.3992 2.06142
8952 2 0 14.4299 2.06142
8953 2 1.03071 15.4606 2.06142
8954 2 3.09213 15.4606 2.06142
8955 2 3.09213 14.4299 3.09213
199 4 5.15354 13.3992 0
201 4 4.12283 13.3992 1.03071
237 4 5.15354 14.4299 1.03071
238 4 4.12283 15.4606 1.03071
239 4 6.18425 14.4299 0
241 4 6.18425 15.4606 1.03071
715 4 5.15354 13.3992 2.06142
717 4 4.12283 13.3992 3.09213
720 4 6.18425 13.3992 3.09213
752 4 5.15354 15.4606 2.06142
8407 2 5.15354 13.3992 0
8409 2 6.18425 13.3992 1.03071
8437 2 4.12283 14.4299 0
8438 2 5.15354 15.4606 0
8439 2 5.15354 14.4299 1.03071
8440 2 4.12283 15.4606 1.03071
8924 2 5.15354 13.3992 2.06142
8956 2 4.12283 14.4299 2.06142
8957 2 5.15354 14.4299 3.09213
8960 2 6.18425 15.4606 3.09213
203 4 7.21496 13.3992 0
205 4 9.27638 13.3992 0
240 4 7.21496 14.4299 1.03071
242 4 9.27638 15.4606 0
243 4 9.27638 14.4299 1.03071
244 4 8.24567 15.4606 1.03071
719 4 7.21496 13.3992 2.06142
722 4 8.24567 13.3992 3.09213
753 4 7.21496 15.4606 2.06142
754 4 7.21496 14.4299 3.09213
755 4 8.24567 14.4299 2.06142
756 4 9.27638 15.4606 2.06142
757 4 8.24567 15.4606 3.09213
8411 2 9.27638 13.3992 0
8412 2 8.24567 13.3992 1.03071
8441 2 9.27638 14.4299 1.03071
8927 2 7.21496 13.3992 2.06142
8958 2 7.21496 15.4606 2.06142
8959 2 7.21496 14.4299 3.09213
8961 2 8.24567 15.4606 3.09213
207 4 11.3378 13.3992 0
208 4 10.3071 13.3992 1.03071
245 4 12.3685 14.4299 0
723 4 11.3378 13.3992 2.06142
726 4 12.3685 13.3992 3.09213
758 4 10.3071 15.4606 3.09213
759 4 12.3685 14.4299 2.06142
760 4 12.3685 15.4606 3.09213
8442 2 11.3378 15.4606 0
8443 2 11.3378 14.4299 1.03071
8930 2 11.3378 13.3992 2.06142
8932 2 12.3685 13.3992 3.09213
8962 2 10.3071 14.4299 2.06142
8963 2 11.3378 15.4606 2.06142
8964 2 10.3071 15.4606 3.09213
210 4 13.3992 13.3992 0
211 4 15.4606 13.3992 0
246 4 13.3992 14.4299 1.03071
247 4 15.4606 15.4606 0
248 4 15.4606 14.4299 1.03071
249 4 14.4299 15.4606 1.03071
727 4 15.4606 13.3992 2.06142
761 4 15.4606 14.4299 3.09213
762 4 14.4299 15.4606 3.09213
8415 2 13.3992 13.3992 0
8444 2 13.3992 15.4606 0
8445 2 13.3992 14.4299 1.03071
8446 2 14.4299 14.4299 0
8934 2 15.4606 13.3992 2.06142
8935 2 14.4299 13.3992 3.09213
8965 2 14.4299 14.4299 2.06142
213 4 17.522 13.3992 0
215 4 16.4913 13.3992 1.03071
216 4 19.5835 13.3992 0
250 4 16.4913 15.4606 1.03071
251 4 18.5528 14.4299 0
729 4 17.522 13.3992 2.06142
733 4 18.5528 13.3992 3.09213
763 4 17.522 14.4299 3.09213
764 4 16.4913 15.4606 3.09213
765 4 18.5528 14.4299 2.06142
766 4 19.5835 14.4299 3.09213
8422 2 19.5835 13.3992 0
8447 2 16.4913 14.4299 0
8448 2 17.522 15.4606 0
8449 2 18.5528 14.4299 0
8450 2 19.5835 14.4299 1.03071
8936 2 17.522 13.3992 2.06142
8938 2 19.5835 13.3992 2.06142
8940 2 18.5528 13.3992 3.09213
8966 2 16.4913 14.4299 2.06142
8967 2 17.522 14.4299 3.09213
8968 2 18.5528 14.4299 2.06142
8969 2 19.5835 15.4606 2.06142
8970 2 18.5528 15.4606 3.09213
252 4 20.6142 14.4299 0
253 4 21.6449 14.4299 1.03071
735 4 21.6449 13.3992 2.06142
738 4 22.6756 13.3992 3.09213
767 4 21.6449 15.4606 2.06142
768 4 20.6142 15.4606 3.09213
769 4 22.6756 14.4299 2.06142
8425 2 21.6449 13.3992 0
8427 2 22.6756 13.3992 1.03071
8451 2 20.6142 14.4299 0
8452 2 21.6449 15.4606 0
8453 2 21.6449 14.4299 1.03071
8454 2 22.6756 14.4299 0
8455 2 22.6756 15.4606 1.03071
8941 2 21.6449 13.3992 2.06142
8971 2 21.6449 15.4606 2.06142
8972 2 21.6449 14.4299 3.09213
8973 2 20.6142 15.4606 3.09213
221 4 23.7063 13.3992 0
222 4 25.7677 13.3992 0
254 4 23.7063 15.4606 0
255 4 25.7677 15.4606 0
256 4 25.7677 14.4299 1.03071
736 4 23.7063 13.3992 2.06142
740 4 25.7677 13.3992 2.06142
770 4 25.7677 14.4299 3.09213
771 4 24.737 15.4606 3.09213
8426 2 23.7063 13.3992 0
8428 2 24.737 13.3992 1.03071
8456 2 24.737 14.4299 0
8457 2 25.7677 15.4606 0
8458 2 24.737 15.4606 1.03071
8944 2 25.7677 13.3992 2.06142
8946 2 24.737 13.3992 3.09213
8974 2 23.7063 15.4606 2.06142
8975 2 24.737 15.4606 3.09213
225 4 26.7984 13.3992 1.03071
228 4 28.8598 13.3992 1.03071
257 4 26.7984 15.4606 1.03071
742 4 26.7984 13.3992 3.09213
772 4 26.7984 14.4299 2.06142
773 4 27.8291 15.4606 2.06142
774 4 26.7984 15.4606 3.09213
8459 2 27.8291 15.4606 0
8461 2 28.8598 15.4606 1.03071
8950 2 28.8598 13.3992 3.09213
8976 2 27.8291 15.4606 2.06142
8977 2 27.8291 14.4299 3.09213
8979 2 28.8598 15.4606 3.09213
227 4 29.8906 13.3992 0
229 4 31.952 13.3992 0
258 4 29.8906 15.4606 0
259 4 31.952 14.4299 1.03071
743 4 29.8906 13.3992 2.06142
745 4 31.952 13.3992 2.06142
775 4 29.8906 14.4299 3.09213
776 4 30.9213 14.4299 2.06142
777 4 31.952 15.4606 2.06142
8430 2 29.8906 13.3992 0
8460 2 29.8906 15.4606 0
8462 2 31.952 15.4606 0
8978 2 29.8906 14.4299 3.09213
8980 2 31.952 15.4606 2.06142
260 4 0 16.4913 0
261 4 1.03071 17.522 0
262 4 0 17.522 1.03071
263 4 2.06142 16.4913 0
264 4 3.09213 17.522 0
265 4 3.09213 16.4913 1.03071
266 4 2.06142 17.522 1.03071
294 4 1.03071 19.5835 0
295 4 2.06142 18.5528 0
296 4 3.09213 19.5835 0
778 4 0 16.4913 2.06142
779 4 1.03071 17.522 2.06142
780 4 0 17.522 3.09213
781 4 2.06142 16.4913 2.06142
782 4 2.06142 17.522 3.09213
811 4 2.06142 18.5528 2.06142
812 4 3.09213 19.5835 2.06142
813 4 2.06142 19.5835 3.09213
8463 2 1.03071 17.522 0
8464 2 1.03071 16.4913 1.03071
8465 2 0 17.522 1.03071
8466 2 2.06142 16.4913 0
8495 2 0 18.5528 0