ITEM: TIMESTEP
0
ITEM: NUMBER OF ATOMS
16384
ITEM: BOX BOUNDS pp pp pp
0.0000000000000000e+00 2.7823265682529200e+01
0.0000000000000000e+00 2.7823265682529200e+01
0.0000000000000000e+00 2.7823265682529200e+01
ITEM: ATOMS id type x y z
1 4 0 0 0
2 4 0.876378 0.876378 0
3 4 2.62913 0.876378 0
4 4 2.62913 0 0.876378
5 4 1.75276 0.876378 0.876378
32 4 0.876378 1.75276 0.876378
33 4 0 2.62913 0.876378
34 4 2.62913 1.75276 0.876378
35 4 1.75276 2.62913 0.876378
522 4 2.62913 0 2.62913
523 4 1.75276 0.876378 2.62913
553 4 0.876378 2.62913 1.75276
554 4 0 2.62913 2.62913
555 4 2.62913 2.62913 1.75276
556 4 2.62913 1.75276 2.62913
557 4 1.75276 2.62913 2.62913
8193 2 0 0 0
8194 2 0.876378 0.876378 0
8195 2 0.876378 0 0.876378
8196 2 0 0.876378 0.876378
8197 2 2.62913 0 0.876378
8226 2 0 1.75276 0
8227 2 0.876378 2.62913 0
8228 2 2.62913 1.75276 0.876378
8730 2 0.876378 0.876378 1.75276
8731 2 0 0.876378 2.62913
8732 2 2.62913 0.876378 1.75276
8733 2 2.62913 0 2.62913
8734 2 1.75276 0.876378 2.62913
8760 2 1.75276 1.75276 1.75276
8761 2 2.62913 2.62913 1.75276
6 4 4.38189 0 0.876378
7 4 3.50551 0.876378 0.876378
8 4 6.13465 0.876378 0
9 4 6.13465 0 0.876378
10 4 5.25827 0.876378 0.876378
36 4 3.50551 1.75276 0
37 4 4.38189 2.62913 0
38 4 4.38189 1.75276 0.876378
39 4 3.50551 2.62913 0.876378
40 4 6.13465 2.62913 0
41 4 6.13465 1.75276 0.876378
42 4 5.25827 2.62913 0.876378
524 4 4.38189 0 2.62913
525 4 6.13465 0.876378 1.75276
526 4 6.13465 0 2.62913
527 4 5.25827 0.876378 2.62913
558 4 3.50551 1.75276 1.75276
559 4 4.38189 1.75276 2.62913
560 4 3.50551 2.62913 2.62913
561 4 5.25827 1.75276 1.75276
562 4 6.13465 2.62913 1.75276
8198 2 3.50551 0 0
8199 2 4.38189 0.876378 0
8200 2 6.13465 0.876378 0
8229 2 3.50551 1.75276 0
8230 2 4.38189 2.62913 0
8735 2 3.50551 0 1.75276
8736 2 4.38189 0 2.62913
8737 2 3.50551 0.876378 2.62913
8738 2 6.13465 0 2.62913
8739 2 5.25827 0.876378 2.62913
8762 2 4.38189 2.62913 1.75276
8763 2 4.38189 1.75276 2.62913
8764 2 5.25827 2.62913 2.62913
11 4 7.01102 0 0
12 4 7.01102 0.876378 0.876378
43 4 7.01102 1.75276 0
44 4 7.8874 2.62913 0
45 4 7.01102 2.62913 0.876378
46 4 9.64016 1.75276 0.876378
47 4 8.76378 2.62913 0.876378
528 4 7.01102 0 1.75276
529 4 7.8874 0 2.62913
530 4 9.64016 0 2.62913
531 4 8.76378 0.876378 2.62913
563 4 7.8874 2.62913 1.75276
564 4 7.8874 1.75276 2.62913
565 4 8.76378 1.75276 1.75276
566 4 9.64016 2.62913 1.75276
567 4 9.64016 1.75276 2.62913
8201 2 7.8874 0 0.876378
8202 2 9.64016 0 0.876378
8203 2 8.76378 0.876378 0.876378
8231 2 7.01102 1.75276 0
8232 2 7.8874 1.75276 0.876378
8233 2 9.64016 2.62913 0
8740 2 7.01102 0 1.75276
8741 2 7.01102 0.876378 2.62913
8742 2 8.76378 0.876378 2.62913
8765 2 7.8874 2.62913 1.75276
8766 2 7.8874 1.75276 2.62913
8767 2 7.01102 2.62913 2.62913
8768 2 9.64016 2.62913 1.75276
8769 2 8.76378 2.62913 2.62913
13 4 10.5165 0 0
14 4 12.2693 0 0
15 4 13.1457 0 0.876378
16 4 12.2693 0.876378 0.876378
48 4 10.5165 1.75276 0
49 4 11.3929 2.62913 0
50 4 11.3929 1.75276 0.876378
51 4 10.5165 2.62913 0.876378
52 4 12.2693 2.62913 0.876378
532 4 11.3929 0.876378 1.75276
533 4 11.3929 0 2.62913
534 4 12.2693 0 1.75276
535 4 12.2693 0.876378 2.62913
568 4 10.5165 1.75276 1.75276
569 4 11.3929 2.62913 1.75276
570 4 11.3929 1.75276 2.62913
8204 2 10.5165 0 0
8205 2 11.3929 0.876378 0
8206 2 10.5165 0.876378 0.876378
8207 2 12.2693 0 0
8208 2 13.1457 0 0.876378
8234 2 11.3929 2.62913 0
8235 2 11.3929 1.75276 0.876378
8236 2 12.2693 1.75276 0
8237 2 12.2693 2.62913 0.876378
8743 2 10.5165 0 1.75276
8744 2 11.3929 0.876378 1.75276
8745 2 10.5165 0.876378 2.62913
8746 2 12.2693 0 1.75276
8747 2 13.1457 0 2.62913
8770 2 10.5165 1.75276 1.75276
8771 2 11.3929 2.62913 1.75276
8772 2 10.5165 2.62913 2.62913
8773 2 12.2693 1.75276 1.75276
8774 2 13.1457 1.75276 2.62913
8775 2 12.2693 2.62913 2.62913
17 4 14.022 0 0
18 4 14.8984 0.876378 0
19 4 14.8984 0 0.876378
20 4 16.6512 0.876378 0
21 4 16.6512 0 0.876378
53 4 14.022 1.75276 0
54 4 14.8984 2.62913 0
55 4 14.8984 1.75276 0.876378
56 4 14.022 2.62913 0.876378
57 4 15.7748 1.75276 0
58 4 16.6512 2.62913 0
59 4 15.7748 2.62913 0.876378
536 4 14.022 0 1.75276
537 4 14.8984 0.876378 1.75276
538 4 14.8984 0 2.62913
539 4 14.022 0.876378 2.62913
571 4 14.022 1.75276 1.75276
572 4 14.8984 2.62913 1.75276
573 4 14.8984 1.75276 2.62913
574 4 14.022 2.62913 2.62913
575 4 15.7748 1.75276 1.75276
576 4 16.6512 2.62913 1.75276
577 4 15.7748 2.62913 2.62913
8209 2 14.8984 0.876378 0
8210 2 16.6512 0.876378 0
8211 2 16.6512 0 0.876378
8212 2 15.7748 0.876378 0.876378
8238 2 14.022 1.75276 0
8239 2 14.8984 2.62913 0
8240 2 16.6512 1.75276 0.876378
8241 2 15.7748 2.62913 0.876378
8748 2 14.022 0 1.75276
8749 2 14.022 0.876378 2.62913
8750 2 16.6512 0.876378 1.75276
8751 2 16.6512 0 2.62913
8752 2 15.7748 0.876378 2.62913
8776 2 14.8984 2.62913 1.75276
8777 2 14.022 2.62913 2.62913
8778 2 15.7748 1.75276 1.75276
22 4 18.4039 0.876378 0
23 4 19.2803 0 0
24 4 20.1567 0.876378 0
60 4 18.4039 1.75276 0.876378
61 4 17.5276 2.62913 0.876378
62 4 20.1567 1.75276 0.876378
540 4 17.5276 0 1.75276
541 4 19.2803 0 1.75276
542 4 20.1567 0.876378 1.75276
578 4 17.5276 2.62913 2.62913
579 4 20.1567 2.62913 1.75276
580 4 20.1567 1.75276 2.62913
581 4 19.2803 2.62913 2.62913
8213 2 17.5276 0 0
8214 2 18.4039 0 0.876378
8215 2 17.5276 0.876378 0.876378
8216 2 20.1567 0.876378 0
8217 2 19.2803 0.876378 0.876378
8242 2 18.4039 1.75276 0.876378
8243 2 19.2803 1.75276 0
8244 2 20.1567 2.62913 0
8753 2 17.5276 0.876378 2.62913
8754 2 20.1567 0.876378 1.75276
8755 2 20.1567 0 2.62913
8779 2 18.4039 1.75276 2.62913
8780 2 17.5276 2.62913 2.62913
8781 2 20.1567 1.75276 2.62913
8782 2 19.2803 2.62913 2.62913
25 4 21.9094 0.876378 0
26 4 23.6622 0.876378 0
63 4 21.0331 1.75276 0
64 4 21.9094 2.62913 0
65 4 21.9094 1.75276 0.876378
66 4 23.6622 2.62913 0
67 4 23.6622 1.75276 0.876378
543 4 21.9094 0.876378 1.75276
544 4 21.9094 0 2.62913
545 4 21.0331 0.876378 2.62913
546 4 22.7858 0 1.75276
547 4 23.6622 0.876378 1.75276
548 4 23.6622 0 2.62913
549 4 22.7858 0.876378 2.62913
582 4 21.9094 2.62913 1.75276
583 4 22.7858 1.75276 1.75276
584 4 23.6622 2.62913 1.75276
8218 2 21.0331 0 0
8219 2 21.9094 0.876378 0
8220 2 21.0331 0.876378 0.876378
8221 2 22.7858 0 0
8222 2 23.6622 0 0.876378
8223 2 22.7858 0.876378 0.876378
8245 2 21.0331 1.75276 0
8246 2 21.9094 1.75276 0.876378
8247 2 22.7858 1.75276 0
8248 2 23.6622 2.62913 0
8249 2 23.6622 1.75276 0.876378
8250 2 22.7858 2.62913 0.876378
8756 2 21.0331 0.876378 2.62913
8757 2 22.7858 0 1.75276
8758 2 23.6622 0 2.62913
8783 2 21.0331 1.75276 1.75276
8784 2 21.9094 2.62913 1.75276
8785 2 21.0331 2.62913 2.62913
8786 2 22.7858 2.62913 2.62913
27 4 24.5386 0 0
28 4 25.415 0 0.876378
29 4 24.5386 0.876378 0.876378
30 4 26.2913 0 0
31 4 27.1677 0.876378 0
68 4 24.5386 1.75276 0
69 4 25.415 2.62913 0
70 4 26.2913 1.75276 0
71 4 27.1677 2.62913 0
72 4 26.2913 2.62913 0.876378
550 4 24.5386 0.876378 2.62913
551 4 26.2913 0 1.75276
552 4 26.2913 0.876378 2.62913
585 4 25.415 1.75276 2.62913
586 4 27.1677 2.62913 1.75276
8224 2 25.415 0 0.876378
8225 2 26.2913 0 0
8251 2 24.5386 1.75276 0
8252 2 26.2913 1.75276 0
8253 2 27.1677 2.62913 0
8254 2 27.1677 1.75276 0.876378
8255 2 26.2913 2.62913 0.876378
8759 2 27.1677 0.876378 1.75276
8787 2 24.5386 1.75276 1.75276
8788 2 25.415 1.75276 2.62913
8789 2 27.1677 2.62913 1.75276
73 4 0.876378 3.50551 0.876378
74 4 2.62913 3.50551 0.876378
75 4 1.75276 4.38189 0.876378
98 4 0.876378 6.13465 0
99 4 0.876378 5.25827 0.876378
100 4 0 6.13465 0.876378
101 4 1.75276 5.25827 0
102 4 2.62913 6.13465 0
103 4 2.62913 5.25827 0.876378
587 4 0 3.50551 1.75276
588 4 0.876378 4.38189 1.75276
589 4 0.876378 3.50551 2.62913
590 4 2.62913 4.38189 1.75276
591 4 1.75276 4.38189 2.62913
611 4 0 6.13465 2.62913
612 4 2.62913 6.13465 1.75276
8256 2 0.876378 3.50551 0.876378
8257 2 0 4.38189 0.876378
8258 2 1.75276 3.50551 0
8259 2 2.62913 4.38189 0
8295 2 0 5.25827 0
8296 2 1.75276 5.25827 0
8297 2 2.62913 6.13465 0
8298 2 2.62913 5.25827 0.876378
8790 2 0 3.50551 1.75276
8791 2 0.876378 3.50551 2.62913
8792 2 0 4.38189 2.62913
8793 2 1.75276 3.50551 1.75276
8794 2 2.62913 4.38189 1.75276
8795 2 1.75276 4.38189 2.62913
8824 2 0 5.25827 1.75276
8825 2 0.876378 6.13465 1.75276
8826 2 1.75276 5.25827 1.75276
76 4 5.25827 3.50551 0
77 4 6.13465 3.50551 0.876378
104 4 3.50551 5.25827 0
105 4 4.38189 5.25827 0.876378
106 4 6.13465 6.13465 0
107 4 6.13465 5.25827 0.876378
613 4 3.50551 5.25827 1.75276
614 4 4.38189 6.13465 1.75276
615 4 3.50551 6.13465 2.62913
616 4 6.13465 6.13465 1.75276
617 4 5.25827 6.13465 2.62913
8260 2 3.50551 3.50551 0
8261 2 4.38189 3.50551 0.876378
8262 2 3.50551 4.38189 0.876378
8263 2 5.25827 3.50551 0
8264 2 5.25827 4.38189 0.876378
8299 2 3.50551 5.25827 0
8300 2 4.38189 6.13465 0
8301 2 5.25827 5.25827 0
8302 2 6.13465 6.13465 0
8303 2 5.25827 6.13465 0.876378
8796 2 4.38189 3.50551 2.62913
8797 2 3.50551 4.38189 2.62913
8798 2 6.13465 4.38189 1.75276
8799 2 5.25827 4.38189 2.62913
8827 2 3.50551 5.25827 1.75276
8828 2 4.38189 6.13465 1.75276
8829 2 6.13465 6.13465 1.75276
8830 2 5.25827 6.13465 2.62913
78 4 7.8874 3.50551 0.876378
79 4 9.64016 4.38189 0
80 4 9.64016 3.50551 0.876378
108 4 8.76378 5.25827 0
109 4 9.64016 6.13465 0
110 4 9.64016 5.25827 0.876378
592 4 7.01102 3.50551 1.75276
593 4 7.8874 3.50551 2.62913
594 4 8.76378 3.50551 1.75276
595 4 9.64016 4.38189 1.75276
618 4 8.76378 5.25827 1.75276
619 4 9.64016 5.25827 2.62913
8265 2 7.01102 3.50551 0
8266 2 7.8874 4.38189 0
8267 2 7.8874 3.50551 0.876378
8268 2 8.76378 3.50551 0
8269 2 9.64016 4.38189 0
8270 2 9.64016 3.50551 0.876378
8304 2 7.8874 6.13465 0
8305 2 7.8874 5.25827 0.876378
8306 2 9.64016 6.13465 0
8800 2 7.01102 4.38189 2.62913
8801 2 9.64016 4.38189 1.75276
8802 2 9.64016 3.50551 2.62913
8831 2 7.01102 5.25827 1.75276
8832 2 7.01102 6.13465 2.62913
81 4 10.5165 3.50551 0
82 4 11.3929 3.50551 0.876378
83 4 12.2693 4.38189 0.876378
111 4 10.5165 5.25827 0
112 4 11.3929 5.25827 0.876378
113 4 10.5165 6.13465 0.876378
114 4 12.2693 5.25827 0
115 4 13.1457 6.13465 0
116 4 13.1457 5.25827 0.876378
117 4 12.2693 6.13465 0.876378
596 4 10.5165 3.50551 1.75276
597 4 11.3929 3.50551 2.62913
598 4 12.2693 3.50551 1.75276
599 4 13.1457 4.38189 1.75276
600 4 13.1457 3.50551 2.62913
620 4 11.3929 6.13465 1.75276
621 4 13.1457 6.13465 1.75276
622 4 12.2693 6.13465 2.62913
8271 2 11.3929 4.38189 0
8272 2 10.5165 4.38189 0.876378
8273 2 12.2693 4.38189 0.876378
8307 2 11.3929 6.13465 0
8308 2 10.5165 6.13465 0.876378
8309 2 12.2693 5.25827 0
8310 2 13.1457 5.25827 0.876378
8311 2 12.2693 6.13465 0.876378
8803 2 10.5165 4.38189 2.62913
8804 2 12.2693 3.50551 1.75276
8833 2 11.3929 6.13465 1.75276
8834 2 13.1457 6.13465 1.75276
84 4 14.8984 3.50551 0.876378
85 4 16.6512 4.38189 0
86 4 15.7748 4.38189 0.876378
118 4 14.022 6.13465 0.876378
119 4 15.7748 5.25827 0
120 4 16.6512 6.13465 0
121 4 16.6512 5.25827 0.876378
122 4 15.7748 6.13465 0.876378
601 4 14.8984 4.38189 1.75276
602 4 14.022 4.38189 2.62913
603 4 15.7748 3.50551 1.75276
623 4 14.022 5.25827 1.75276
624 4 14.8984 6.13465 1.75276
625 4 14.022 6.13465 2.62913
626 4 15.7748 5.25827 1.75276
627 4 16.6512 5.25827 2.62913
8274 2 14.022 3.50551 0
8275 2 14.8984 4.38189 0
8276 2 14.022 4.38189 0.876378
8277 2 15.7748 3.50551 0
8278 2 16.6512 4.38189 0
8279 2 16.6512 3.50551 0.876378
8280 2 15.7748 4.38189 0.876378
8312 2 14.022 5.25827 0
8313 2 14.8984 6.13465 0
8314 2 15.7748 5.25827 0
8315 2 16.6512 5.25827 0.876378
8805 2 14.8984 4.38189 1.75276
8806 2 14.8984 3.50551 2.62913
8807 2 14.022 4.38189 2.62913
8808 2 15.7748 4.38189 2.62913
8835 2 14.022 5.25827 1.75276
8836 2 14.8984 6.13465 1.75276
8837 2 14.022 6.13465 2.62913
8838 2 16.6512 6.13465 1.75276
87 4 18.4039 3.50551 0.876378
88 4 17.5276 4.38189 0.876378
89 4 20.1567 3.50551 0.876378
90 4 19.2803 4.38189 0.876378
123 4 17.5276 5.25827 0
124 4 18.4039 5.25827 0.876378
604 4 19.2803 3.50551 1.75276
628 4 17.5276 5.25827 1.75276
629 4 18.4039 6.13465 1.75276
630 4 17.5276 6.13465 2.62913
631 4 20.1567 5.25827 2.62913
632 4 19.2803 6.13465 2.62913
8281 2 17.5276 3.50551 0
8282 2 18.4039 4.38189 0
8283 2 18.4039 3.50551 0.876378
8284 2 20.1567 4.38189 0
8316 2 17.5276 5.25827 0
8317 2 19.2803 5.25827 0
8318 2 19.2803 6.13465 0.876378
8809 2 18.4039 4.38189 1.75276
8810 2 18.4039 3.50551 2.62913
8811 2 17.5276 4.38189 2.62913
8812 2 19.2803 3.50551 1.75276
8813 2 20.1567 4.38189 1.75276
8814 2 20.1567 3.50551 2.62913
8815 2 19.2803 4.38189 2.62913
8839 2 17.5276 5.25827 1.75276
8840 2 18.4039 6.13465 1.75276
8841 2 18.4039 5.25827 2.62913
8842 2 17.5276 6.13465 2.62913
8843 2 20.1567 6.13465 1.75276
8844 2 19.2803 6.13465 2.62913
91 4 21.9094 4.38189 0
92 4 21.0331 4.38189 0.876378
93 4 22.7858 4.38189 0.876378
125 4 21.9094 6.13465 0
126 4 21.9094 5.25827 0.876378
127 4 21.0331 6.13465 0.876378
128 4 22.7858 5.25827 0
129 4 23.6622 5.25827 0.876378
605 4 21.0331 4.38189 2.62913
606 4 23.6622 3.50551 2.62913
607 4 22.7858 4.38189 2.62913
633 4 21.0331 5.25827 1.75276
634 4 22.7858 6.13465 2.62913
8285 2 21.0331 3.50551 0
8286 2 23.6622 4.38189 0
8287 2 23.6622 3.50551 0.876378
8288 2 22.7858 4.38189 0.876378
8319 2 23.6622 5.25827 0.876378
8320 2 22.7858 6.13465 0.876378
8816 2 21.0331 3.50551 1.75276
8817 2 21.9094 4.38189 1.75276
8818 2 21.9094 3.50551 2.62913
8819 2 21.0331 4.38189 2.62913
8820 2 23.6622 3.50551 2.62913
8845 2 21.0331 6.13465 2.62913
8846 2 22.7858 6.13465 2.62913
94 4 24.5386 3.50551 0
95 4 26.2913 3.50551 0
96 4 27.1677 4.38189 0
97 4 26.2913 4.38189 0.876378
130 4 24.5386 5.25827 0
131 4 27.1677 6.13465 0
608 4 24.5386 4.38189 2.62913
609 4 26.2913 3.50551 1.75276
610 4 27.1677 4.38189 1.75276
635 4 25.415 6.13465 1.75276
636 4 24.5386 6.13465 2.62913
637 4 26.2913 5.25827 1.75276
638 4 27.1677 5.25827 2.62913
639 4 26.2913 6.13465 2.62913
8289 2 24.5386 3.50551 0
8290 2 25.415 4.38189 0
8291 2 24.5386 4.38189 0.876378
8292 2 26.2913 3.50551 0
8293 2 27.1677 4.38189 0
8294 2 26.2913 4.38189 0.876378
8321 2 24.5386 5.25827 0
8322 2 24.5386 6.13465 0.876378
8323 2 26.2913 5.25827 0
8324 2 27.1677 6.13465 0
8325 2 26.2913 6.13465 0.876378
8821 2 24.5386 4.38189 2.62913
8822 2 27.1677 4.38189 1.75276
8823 2 27.1677 3.50551 2.62913
8847 2 24.5386 5.25827 1.75276
8848 2 25.415 6.13465 1.75276
8849 2 25.415 5.25827 2.62913
8850 2 24.5386 6.13465 2.62913
8851 2 27.1677 6.13465 1.75276
132 4 0.876378 7.8874 0
133 4 2.62913 7.8874 0
160 4 0 8.76378 0
161 4 0.876378 9.64016 0
162 4 0.876378 8.76378 0.876378
163 4 0 9.64016 0.876378
164 4 1.75276 8.76378 0
165 4 2.62913 8.76378 0.876378
640 4 0.876378 7.8874 1.75276
641 4 0.876378 7.01102 2.62913
642 4 0 7.8874 2.62913
643 4 2.62913 7.01102 2.62913
672 4 0 8.76378 1.75276
673 4 0.876378 8.76378 2.62913
674 4 0 9.64016 2.62913
675 4 1.75276 8.76378 1.75276
676 4 2.62913 9.64016 1.75276
677 4 2.62913 8.76378 2.62913
678 4 1.75276 9.64016 2.62913
8326 2 0.876378 7.8874 0
8327 2 0.876378 7.01102 0.876378
8328 2 0 7.8874 0.876378
8329 2 1.75276 7.01102 0
8330 2 2.62913 7.8874 0
8331 2 2.62913 7.01102 0.876378
8332 2 1.75276 7.8874 0.876378
8366 2 0 8.76378 0
8367 2 0.876378 9.64016 0
8368 2 0.876378 8.76378 0.876378
8369 2 0 9.64016 0.876378
8370 2 1.75276 8.76378 0
8371 2 2.62913 9.64016 0
8372 2 2.62913 8.76378 0.876378
8373 2 1.75276 9.64016 0.876378
8852 2 0 7.01102 1.75276
8853 2 0.876378 7.8874 1.75276
8854 2 0.876378 7.01102 2.62913
8855 2 0 7.8874 2.62913
8856 2 1.75276 7.01102 1.75276
8857 2 2.62913 7.8874 1.75276
8858 2 2.62913 7.01102 2.62913
8859 2 1.75276 7.8874 2.62913
8880 2 0 8.76378 1.75276
8881 2 0.876378 8.76378 2.62913
8882 2 0 9.64016 2.62913
8883 2 1.75276 8.76378 1.75276
8884 2 2.62913 9.64016 1.75276
8885 2 2.62913 8.76378 2.62913
134 4 4.38189 7.01102 0.876378
135 4 5.25827 7.8874 0.876378
166 4 4.38189 9.64016 0
167 4 4.38189 8.76378 0.876378
168 4 3.50551 9.64016 0.876378
169 4 6.13465 8.76378 0.876378
170 4 5.25827 9.64016 0.876378
644 4 6.13465 7.01102 2.62913
645 4 5.25827 7.8874 2.62913
679 4 3.50551 8.76378 1.75276
680 4 4.38189 9.64016 1.75276
681 4 4.38189 8.76378 2.62913
682 4 5.25827 8.76378 1.75276
683 4 6.13465 9.64016 1.75276
684 4 5.25827 9.64016 2.62913
8333 2 3.50551 7.01102 0
8334 2 4.38189 7.8874 0
8335 2 3.50551 7.8874 0.876378
8336 2 6.13465 7.8874 0
8374 2 3.50551 8.76378 0
8375 2 4.38189 9.64016 0
8376 2 6.13465 9.64016 0
8377 2 6.13465 8.76378 0.876378
8860 2 4.38189 7.8874 1.75276
8861 2 3.50551 7.8874 2.62913
8862 2 5.25827 7.8874 2.62913
8886 2 3.50551 8.76378 1.75276
8887 2 4.38189 9.64016 1.75276
8888 2 6.13465 9.64016 1.75276
8889 2 5.25827 9.64016 2.62913
136 4 7.01102 7.8874 0.876378
137 4 8.76378 7.01102 0
138 4 9.64016 7.8874 0
171 4 7.01102 8.76378 0
172 4 7.8874 9.64016 0
173 4 7.8874 8.76378 0.876378
174 4 7.01102 9.64016 0.876378
175 4 8.76378 8.76378 0
176 4 8.76378 9.64016 0.876378
646 4 7.8874 7.01102 2.62913
647 4 7.01102 7.8874 2.62913
648 4 9.64016 7.01102 2.62913
649 4 8.76378 7.8874 2.62913
685 4 7.01102 8.76378 1.75276
686 4 7.8874 9.64016 1.75276
687 4 7.8874 8.76378 2.62913
688 4 8.76378 8.76378 1.75276
689 4 9.64016 9.64016 1.75276
690 4 9.64016 8.76378 2.62913
8337 2 7.8874 7.8874 0
8338 2 7.8874 7.01102 0.876378
8339 2 7.01102 7.8874 0.876378
8340 2 8.76378 7.01102 0
8341 2 9.64016 7.01102 0.876378
8342 2 8.76378 7.8874 0.876378
8378 2 7.01102 8.76378 0
8379 2 7.8874 9.64016 0
8380 2 7.8874 8.76378 0.876378
8381 2 7.01102 9.64016 0.876378
8382 2 9.64016 9.64016 0
8383 2 9.64016 8.76378 0.876378
8863 2 7.8874 7.8874 1.75276
8864 2 8.76378 7.01102 1.75276
8865 2 9.64016 7.01102 2.62913
8890 2 7.01102 8.76378 1.75276
8891 2 7.8874 9.64016 1.75276
8892 2 9.64016 9.64016 1.75276
8893 2 9.64016 8.76378 2.62913
139 4 10.5165 7.01102 0
140 4 11.3929 7.8874 0
141 4 13.1457 7.8874 0
142 4 12.2693 7.8874 0.876378
177 4 10.5165 8.76378 0
178 4 11.3929 9.64016 0
179 4 13.1457 9.64016 0
650 4 11.3929 7.01102 2.62913
651 4 10.5165 7.8874 2.62913
652 4 13.1457 7.8874 1.75276
653 4 12.2693 7.8874 2.62913
691 4 11.3929 9.64016 1.75276
692 4 11.3929 8.76378 2.62913
693 4 10.5165 9.64016 2.62913
8343 2 11.3929 7.8874 0
8344 2 11.3929 7.01102 0.876378
8345 2 10.5165 7.8874 0.876378
8346 2 12.2693 7.8874 0.876378
8384 2 11.3929 9.64016 0
8385 2 11.3929 8.76378 0.876378
8386 2 12.2693 8.76378 0
8387 2 13.1457 9.64016 0
8866 2 10.5165 7.01102 1.75276
8867 2 11.3929 7.8874 1.75276
8868 2 12.2693 7.01102 1.75276
8869 2 13.1457 7.8874 1.75276
8894 2 10.5165 8.76378 1.75276
8895 2 11.3929 9.64016 1.75276
8896 2 10.5165 9.64016 2.62913
8897 2 12.2693 8.76378 1.75276
143 4 14.8984 7.01102 0.876378
144 4 14.022 7.8874 0.876378
145 4 16.6512 7.8874 0
146 4 16.6512 7.01102 0.876378
147 4 15.7748 7.8874 0.876378
180 4 15.7748 8.76378 0
181 4 16.6512 9.64016 0
182 4 15.7748 9.64016 0.876378
654 4 14.022 7.01102 1.75276
655 4 14.8984 7.8874 1.75276
656 4 14.8984 7.01102 2.62913
657 4 15.7748 7.01102 1.75276
658 4 16.6512 7.8874 1.75276
694 4 14.8984 8.76378 2.62913
695 4 14.022 9.64016 2.62913
696 4 16.6512 8.76378 2.62913
8347 2 14.8984 7.8874 0
8348 2 14.022 7.8874 0.876378
8349 2 16.6512 7.01102 0.876378
8350 2 15.7748 7.8874 0.876378
8388 2 14.022 9.64016 0.876378
8389 2 16.6512 9.64016 0
8390 2 16.6512 8.76378 0.876378
8870 2 14.8984 7.8874 1.75276
8871 2 16.6512 7.8874 1.75276
8872 2 16.6512 7.01102 2.62913
8873 2 15.7748 7.8874 2.62913
8898 2 14.8984 9.64016 1.75276
8899 2 16.6512 9.64016 1.75276
8900 2 16.6512 8.76378 2.62913
8901 2 15.7748 9.64016 2.62913
148 4 17.5276 7.01102 0
149 4 18.4039 7.8874 0
150 4 17.5276 7.8874 0.876378
151 4 20.1567 7.8874 0
183 4 17.5276 8.76378 0
184 4 19.2803 8.76378 0
185 4 19.2803 9.64016 0.876378
659 4 18.4039 7.8874 1.75276
660 4 19.2803 7.01102 1.75276
661 4 20.1567 7.8874 1.75276
697 4 17.5276 9.64016 2.62913
698 4 19.2803 8.76378 1.75276
699 4 20.1567 9.64016 1.75276
700 4 19.2803 9.64016 2.62913
8351 2 18.4039 7.8874 0
8352 2 17.5276 7.8874 0.876378
8353 2 19.2803 7.01102 0
8354 2 20.1567 7.01102 0.876378
8355 2 19.2803 7.8874 0.876378
8391 2 17.5276 8.76378 0
8392 2 18.4039 9.64016 0
8393 2 18.4039 8.76378 0.876378
8394 2 19.2803 9.64016 0.876378
8874 2 18.4039 7.8874 1.75276
8875 2 18.4039 7.01102 2.62913
8876 2 17.5276 7.8874 2.62913
8902 2 17.5276 8.76378 1.75276
8903 2 18.4039 9.64016 1.75276
8904 2 17.5276 9.64016 2.62913
8905 2 20.1567 8.76378 2.62913
152 4 21.0331 7.01102 0
153 4 21.9094 7.8874 0
154 4 21.0331 7.8874 0.876378
155 4 22.7858 7.01102 0
156 4 23.6622 7.01102 0.876378
157 4 22.7858 7.8874 0.876378
186 4 21.9094 8.76378 0.876378
187 4 23.6622 9.64016 0
188 4 23.6622 8.76378 0.876378
189 4 22.7858 9.64016 0.876378
662 4 21.0331 7.01102 1.75276
663 4 21.9094 7.8874 1.75276
664 4 22.7858 7.01102 1.75276
665 4 23.6622 7.01102 2.62913
666 4 22.7858 7.8874 2.62913
701 4 21.0331 8.76378 1.75276
702 4 22.7858 8.76378 1.75276
703 4 23.6622 9.64016 1.75276
704 4 23.6622 8.76378 2.62913
8356 2 21.0331 7.01102 0
8357 2 21.9094 7.01102 0.876378
8358 2 21.0331 7.8874 0.876378
8359 2 23.6622 7.01102 0.876378
8360 2 22.7858 7.8874 0.876378
8395 2 21.0331 8.76378 0
8396 2 21.9094 8.76378 0.876378
8397 2 21.0331 9.64016 0.876378
8398 2 22.7858 8.76378 0
8399 2 23.6622 8.76378 0.876378
8400 2 22.7858 9.64016 0.876378
8877 2 21.9094 7.01102 2.62913
8878 2 22.7858 7.01102 1.75276
8906 2 21.0331 8.76378 1.75276
8907 2 21.9094 9.64016 1.75276
8908 2 21.9094 8.76378 2.62913
8909 2 22.7858 8.76378 1.75276
8910 2 23.6622 9.64016 1.75276
8911 2 23.6622 8.76378 2.62913
8912 2 22.7858 9.64016 2.62913
158 4 24.5386 7.01102 0
159 4 26.2913 7.8874 0.876378
190 4 25.415 9.64016 0
191 4 27.1677 9.64016 0
192 4 27.1677 8.76378 0.876378
667 4 24.5386 7.01102 1.75276
668 4 25.415 7.8874 1.75276
669 4 25.415 7.01102 2.62913
670 4 27.1677 7.01102 2.62913
671 4 26.2913 7.8874 2.62913
705 4 24.5386 8.76378 1.75276
706 4 25.415 9.64016 1.75276
707 4 25.415 8.76378 2.62913
708 4 24.5386 9.64016 2.62913
709 4 26.2913 8.76378 1.75276
710 4 27.1677 9.64016 1.75276
8361 2 25.415 7.8874 0
8362 2 26.2913 7.01102 0
8363 2 27.1677 7.8874 0
8364 2 27.1677 7.01102 0.876378
8365 2 26.2913 7.8874 0.876378
8401 2 24.5386 8.76378 0
8402 2 25.415 9.64016 0
8403 2 27.1677 9.64016 0
8879 2 27.1677 7.01102 2.62913
8913 2 25.415 9.64016 1.75276
8914 2 25.415 8.76378 2.62913
8915 2 24.5386 9.64016 2.62913
8916 2 26.2913 8.76378 1.75276
8917 2 27.1677 8.76378 2.62913
193 4 0.876378 11.3929 0
194 4 0.876378 10.5165 0.876378
195 4 0 11.3929 0.876378
196 4 1.75276 10.5165 0
197 4 2.62913 11.3929 0
230 4 0 12.2693 0
231 4 0.876378 13.1457 0
232 4 0.876378 12.2693 0.876378
233 4 0 13.1457 0.876378
234 4 2.62913 13.1457 0
235 4 2.62913 12.2693 0.876378
236 4 1.75276 13.1457 0.876378
711 4 0 10.5165 1.75276
712 4 0.876378 11.3929 1.75276
713 4 1.75276 10.5165 1.75276
714 4 1.75276 11.3929 2.62913
747 4 0 12.2693 1.75276
748 4 0.876378 13.1457 1.75276
749 4 0.876378 12.2693 2.62913
750 4 1.75276 12.2693 1.75276
751 4 2.62913 12.2693 2.62913
8404 2 1.75276 10.5165 0
8405 2 1.75276 11.3929 0.876378
8431 2 0 12.2693 0
8432 2 0.876378 13.1457 0
8433 2 0.876378 12.2693 0.876378
8434 2 0 13.1457 0.876378
8435 2 2.62913 13.1457 0
8436 2 2.62913 12.2693 0.876378
8918 2 0 10.5165 1.75276
8919 2 0.876378 11.3929 1.75276
8920 2 1.75276 10.5165 1.75276
8921 2 2.62913 11.3929 1.75276
8922 2 2.62913 10.5165 2.62913
8952 2 0 12.2693 1.75276
8953 2 0.876378 13.1457 1.75276
8954 2 2.62913 13.1457 1.75276
8955 2 2.62913 12.2693 2.62913
198 4 3.50551 10.5165 0
199 4 4.38189 11.3929 0
200 4 4.38189 10.5165 0.876378
201 4 3.50551 11.3929 0.876378
202 4 5.25827 10.5165 0
203 4 6.13465 11.3929 0
204 4 6.13465 10.5165 0.876378
237 4 4.38189 12.2693 0.876378
238 4 3.50551 13.1457 0.876378
239 4 5.25827 12.2693 0
240 4 6.13465 12.2693 0.876378
241 4 5.25827 13.1457 0.876378
715 4 4.38189 11.3929 1.75276
716 4 4.38189 10.5165 2.62913
717 4 3.50551 11.3929 2.62913
718 4 5.25827 10.5165 1.75276
719 4 6.13465 11.3929 1.75276
720 4 5.25827 11.3929 2.62913
752 4 4.38189 13.1457 1.75276
753 4 6.13465 13.1457 1.75276
754 4 6.13465 12.2693 2.62913
8406 2 3.50551 10.5165 0
8407 2 4.38189 11.3929 0
8408 2 5.25827 10.5165 0
8409 2 5.25827 11.3929 0.876378
8437 2 3.50551 12.2693 0
8438 2 4.38189 13.1457 0
8439 2 4.38189 12.2693 0.876378
8440 2 3.50551 13.1457 0.876378
8923 2 3.50551 10.5165 1.75276
8924 2 4.38189 11.3929 1.75276
8925 2 4.38189 10.5165 2.62913
8926 2 5.25827 10.5165 1.75276
8927 2 6.13465 11.3929 1.75276
8956 2 3.50551 12.2693 1.75276
8957 2 4.38189 12.2693 2.62913
8958 2 6.13465 13.1457 1.75276
8959 2 6.13465 12.2693 2.62913
8960 2 5.25827 13.1457 2.62913
205 4 7.8874 11.3929 0
206 4 7.8874 10.5165 0.876378
207 4 9.64016 11.3929 0
208 4 8.76378 11.3929 0.876378
242 4 7.8874 13.1457 0
243 4 7.8874 12.2693 0.876378
244 4 7.01102 13.1457 0.876378
721 4 7.01102 10.5165 1.75276
722 4 7.01102 11.3929 2.62913
723 4 9.64016 11.3929 1.75276
724 4 9.64016 10.5165 2.62913
755 4 7.01102 12.2693 1.75276
756 4 7.8874 13.1457 1.75276
757 4 7.01102 13.1457 2.62913
758 4 8.76378 13.1457 2.62913
8410 2 7.01102 10.5165 0
8411 2 7.8874 11.3929 0
8412 2 7.01102 11.3929 0.876378
8413 2 8.76378 10.5165 0
8414 2 9.64016 10.5165 0.876378
8441 2 7.8874 12.2693 0.876378
8442 2 9.64016 13.1457 0
8443 2 9.64016 12.2693 0.876378
8928 2 7.01102 10.5165 1.75276
8929 2 7.8874 10.5165 2.62913
8930 2 9.64016 11.3929 1.75276
8931 2 9.64016 10.5165 2.62913
8961 2 7.01102 13.1457 2.62913
8962 2 8.76378 12.2693 1.75276
8963 2 9.64016 13.1457 1.75276
8964 2 8.76378 13.1457 2.62913
209 4 10.5165 10.5165 0
210 4 11.3929 11.3929 0
211 4 13.1457 11.3929 0
245 4 10.5165 12.2693 0
246 4 11.3929 12.2693 0.876378
247 4 13.1457 13.1457 0
248 4 13.1457 12.2693 0.876378
249 4 12.2693 13.1457 0.876378
725 4 11.3929 10.5165 2.62913
726 4 10.5165 11.3929 2.62913
727 4 13.1457 11.3929 1.75276
759 4 10.5165 12.2693 1.75276
760 4 10.5165 13.1457 2.62913
761 4 13.1457 12.2693 2.62913
762 4 12.2693 13.1457 2.62913
8415 2 11.3929 11.3929 0
8416 2 11.3929 10.5165 0.876378
8417 2 12.2693 10.5165 0
8418 2 13.1457 10.5165 0.876378
8444 2 11.3929 13.1457 0
8445 2 11.3929 12.2693 0.876378
8446 2 12.2693 12.2693 0
8932 2 10.5165 11.3929 2.62913
8933 2 12.2693 10.5165 1.75276
8934 2 13.1457 11.3929 1.75276
8935 2 12.2693 11.3929 2.62913
8965 2 12.2693 12.2693 1.75276
212 4 14.022 10.5165 0
213 4 14.8984 11.3929 0
214 4 14.8984 10.5165 0.876378
215 4 14.022 11.3929 0.876378
216 4 16.6512 11.3929 0
217 4 16.6512 10.5165 0.876378
250 4 14.022 13.1457 0.876378
251 4 15.7748 12.2693 0
728 4 14.022 10.5165 1.75276
729 4 14.8984 11.3929 1.75276
730 4 14.8984 10.5165 2.62913
731 4 15.7748 10.5165 1.75276
732 4 16.6512 10.5165 2.62913
733 4 15.7748 11.3929 2.62913
763 4 14.8984 12.2693 2.62913
764 4 14.022 13.1457 2.62913
765 4 15.7748 12.2693 1.75276
766 4 16.6512 12.2693 2.62913
8419 2 14.022 10.5165 0
8420 2 14.8984 10.5165 0.876378
8421 2 15.7748 10.5165 0
8422 2 16.6512 11.3929 0
8423 2 16.6512 10.5165 0.876378
8447 2 14.022 12.2693 0
8448 2 14.8984 13.1457 0
8449 2 15.7748 12.2693 0
8450 2 16.6512 12.2693 0.876378
8936 2 14.8984 11.3929 1.75276
8937 2 15.7748 10.5165 1.75276
8938 2 16.6512 11.3929 1.75276
8939 2 16.6512 10.5165 2.62913
8940 2 15.7748 11.3929 2.62913
8966 2 14.022 12.2693 1.75276
8967 2 14.8984 12.2693 2.62913
8968 2 15.7748 12.2693 1.75276
8969 2 16.6512 13.1457 1.75276
8970 2 15.7748 13.1457 2.62913
218 4 17.5276 10.5165 0
219 4 18.4039 10.5165 0.876378
220 4 19.2803 10.5165 0
221 4 20.1567 11.3929 0
252 4 17.5276 12.2693 0
253 4 18.4039 12.2693 0.876378
254 4 20.1567 13.1457 0
734 4 17.5276 10.5165 1.75276
735 4 18.4039 11.3929 1.75276
736 4 20.1567 11.3929 1.75276
737 4 20.1567 10.5165 2.62913
738 4 19.2803 11.3929 2.62913
767 4 18.4039 13.1457 1.75276
768 4 17.5276 13.1457 2.62913
769 4 19.2803 12.2693 1.75276
8424 2 17.5276 10.5165 0
8425 2 18.4039 11.3929 0
8426 2 20.1567 11.3929 0
8427 2 19.2803 11.3929 0.876378
8451 2 17.5276 12.2693 0
8452 2 18.4039 13.1457 0
8453 2 18.4039 12.2693 0.876378
8454 2 19.2803 12.2693 0
8455 2 19.2803 13.1457 0.876378
8941 2 18.4039 11.3929 1.75276
8942 2 18.4039 10.5165 2.62913
8943 2 19.2803 10.5165 1.75276
8971 2 18.4039 13.1457 1.75276
8972 2 18.4039 12.2693 2.62913
8973 2 17.5276 13.1457 2.62913
8974 2 20.1567 13.1457 1.75276
222 4 21.9094 11.3929 0
223 4 21.9094 10.5165 0.876378
224 4 22.7858 10.5165 0
225 4 22.7858 11.3929 0.876378
255 4 21.9094 13.1457 0
256 4 21.9094 12.2693 0.876378
257 4 22.7858 13.1457 0.876378
739 4 21.0331 10.5165 1.75276
740 4 21.9094 11.3929 1.75276
741 4 23.6622 10.5165 2.62913
742 4 22.7858 11.3929 2.62913
770 4 21.9094 12.2693 2.62913
771 4 21.0331 13.1457 2.62913
772 4 22.7858 12.2693 1.75276
773 4 23.6622 13.1457 1.75276
774 4 22.7858 13.1457 2.62913
8428 2 21.0331 11.3929 0.876378
8429 2 23.6622 10.5165 0.876378
8456 2 21.0331 12.2693 0
8457 2 21.9094 13.1457 0
8458 2 21.0331 13.1457 0.876378
8459 2 23.6622 13.1457 0
8944 2 21.9094 11.3929 1.75276
8945 2 21.9094 10.5165 2.62913
8946 2 21.0331 11.3929 2.62913
8947 2 22.7858 10.5165 1.75276
8948 2 23.6622 10.5165 2.62913
8975 2 21.0331 13.1457 2.62913
8976 2 23.6622 13.1457 1.75276
8977 2 23.6622 12.2693 2.62913
226 4 24.5386 10.5165 0
227 4 25.415 11.3929 0
228 4 24.5386 11.3929 0.876378
229 4 27.1677 11.3929 0
258 4 25.415 13.1457 0
259 4 27.1677 12.2693 0.876378
743 4 25.415 11.3929 1.75276
744 4 25.415 10.5165 2.62913
745 4 27.1677 11.3929 1.75276
746 4 27.1677 10.5165 2.62913
775 4 25.415 12.2693 2.62913
776 4 26.2913 12.2693 1.75276
777 4 27.1677 13.1457 1.75276
8430 2 25.415 11.3929 0
8460 2 25.415 13.1457 0
8461 2 24.5386 13.1457 0.876378
8462 2 27.1677 13.1457 0
8949 2 24.5386 10.5165 1.75276
8950 2 24.5386 11.3929 2.62913
8951 2 27.1677 10.5165 2.62913
8978 2 25.415 12.2693 2.62913
8979 2 24.5386 13.1457 2.62913
8980 2 27.1677 13.1457 1.75276
260 4 0 14.022 0
261 4 0.876378 14.8984 0
262 4 0 14.8984 0.876378
263 4 1.75276 14.022 0
264 4 2.62913 14.8984 0
265 4 2.62913 14.022 0.876378
266 4 1.75276 14.8984 0.876378
294 4 0.876378 16.6512 0
295 4 1.75276 15.7748 0
296 4 2.62913 16.6512 0
778 4 0 14.022 1.75276
779 4 0.876378 14.8984 1.75276