ITEM: TIMESTEP
0
ITEM: NUMBER OF ATOMS
16384
ITEM: BOX BOUNDS pp pp pp
0.0000000000000000e+00 6.4220996889863002e+01
0.0000000000000000e+00 6.4220996889863002e+01
0.0000000000000000e+00 6.4220996889863002e+01
ITEM: ATOMS id type x y z
1 4 0 0 0
2 4 2.02283 2.02283 0
8193 2 0 0 0
8194 2 2.02283 2.02283 0
8195 2 2.02283 0 2.02283
8196 2 0 2.02283 2.02283
3 4 6.0685 2.02283 0
4 4 6.0685 0 2.02283
5 4 4.04567 2.02283 2.02283
8197 2 6.0685 0 2.02283
6 4 10.1142 0 2.02283
7 4 8.09134 2.02283 2.02283
8198 2 8.09134 0 0
8199 2 10.1142 2.02283 0
10 4 12.137 2.02283 2.02283
8 4 14.1598 2.02283 0
9 4 14.1598 0 2.02283
11 4 16.1827 0 0
12 4 16.1827 2.02283 2.02283
8200 2 14.1598 2.02283 0
8201 2 18.2055 0 2.02283
8203 2 20.2283 2.02283 2.02283
8202 2 22.2512 0 2.02283
13 4 24.274 0 0
8204 2 24.274 0 0
8205 2 26.2969 2.02283 0
8206 2 24.274 2.02283 2.02283
14 4 28.3197 0 0
15 4 30.3425 0 2.02283
16 4 28.3197 2.02283 2.02283
8207 2 28.3197 0 0
8208 2 30.3425 0 2.02283
17 4 32.3654 0 0
18 4 34.3882 2.02283 0
19 4 34.3882 0 2.02283
8209 2 34.3882 2.02283 0
8212 2 36.411 2.02283 2.02283
20 4 38.4339 2.02283 0
21 4 38.4339 0 2.02283
8210 2 38.4339 2.02283 0
8211 2 38.4339 0 2.02283
8213 2 40.4567 0 0
8215 2 40.4567 2.02283 2.02283
22 4 42.4795 2.02283 0
8214 2 42.4795 0 2.02283
23 4 44.5024 0 0
24 4 46.5252 2.02283 0
8216 2 46.5252 2.02283 0
8217 2 44.5024 2.02283 2.02283
25 4 50.5709 2.02283 0
8218 2 48.548 0 0
8219 2 50.5709 2.02283 0
8220 2 48.548 2.02283 2.02283
8221 2 52.5937 0 0
8223 2 52.5937 2.02283 2.02283
26 4 54.6165 2.02283 0
27 4 56.6394 0 0
29 4 56.6394 2.02283 2.02283
8222 2 54.6165 0 2.02283
28 4 58.6622 0 2.02283
30 4 60.685 0 0
8224 2 58.6622 0 2.02283
8225 2 60.685 0 0
31 4 62.7079 2.02283 0
32 4 2.02283 4.04567 2.02283
33 4 0 6.0685 2.02283
8226 2 0 4.04567 0
8227 2 2.02283 6.0685 0
34 4 6.0685 4.04567 2.02283
35 4 4.04567 6.0685 2.02283
8228 2 6.0685 4.04567 2.02283
36 4 8.09134 4.04567 0
37 4 10.1142 6.0685 0
38 4 10.1142 4.04567 2.02283
39 4 8.09134 6.0685 2.02283
8229 2 8.09134 4.04567 0
8230 2 10.1142 6.0685 0
42 4 12.137 6.0685 2.02283
40 4 14.1598 6.0685 0
41 4 14.1598 4.04567 2.02283
43 4 16.1827 4.04567 0
45 4 16.1827 6.0685 2.02283
8231 2 16.1827 4.04567 0
44 4 18.2055 6.0685 0
47 4 20.2283 6.0685 2.02283
8232 2 18.2055 4.04567 2.02283
46 4 22.2512 4.04567 2.02283
8233 2 22.2512 6.0685 0
48 4 24.274 4.04567 0
49 4 26.2969 6.0685 0
50 4 26.2969 4.04567 2.02283
51 4 24.274 6.0685 2.02283
8234 2 26.2969 6.0685 0
8235 2 26.2969 4.04567 2.02283
52 4 28.3197 6.0685 2.02283
8236 2 28.3197 4.04567 0
8237 2 28.3197 6.0685 2.02283
53 4 32.3654 4.04567 0
56 4 32.3654 6.0685 2.02283
8238 2 32.3654 4.04567 0
54 4 34.3882 6.0685 0
55 4 34.3882 4.04567 2.02283
57 4 36.411 4.04567 0
59 4 36.411 6.0685 2.02283
8239 2 34.3882 6.0685 0
8241 2 36.411 6.0685 2.02283
58 4 38.4339 6.0685 0
61 4 40.4567 6.0685 2.02283
8240 2 38.4339 4.04567 2.02283
60 4 42.4795 4.04567 2.02283
8242 2 42.4795 4.04567 2.02283
62 4 46.5252 4.04567 2.02283
8243 2 44.5024 4.04567 0
8244 2 46.5252 6.0685 0
63 4 48.548 4.04567 0
64 4 50.5709 6.0685 0
65 4 50.5709 4.04567 2.02283
8245 2 48.548 4.04567 0
8246 2 50.5709 4.04567 2.02283
8247 2 52.5937 4.04567 0
8250 2 52.5937 6.0685 2.02283
66 4 54.6165 6.0685 0
67 4 54.6165 4.04567 2.02283
68 4 56.6394 4.04567 0
8248 2 54.6165 6.0685 0
8249 2 54.6165 4.04567 2.02283
8251 2 56.6394 4.04567 0
69 4 58.6622 6.0685 0
70 4 60.685 4.04567 0
72 4 60.685 6.0685 2.02283
8252 2 60.685 4.04567 0
8255 2 60.685 6.0685 2.02283
71 4 62.7079 6.0685 0
8253 2 62.7079 6.0685 0
8254 2 62.7079 4.04567 2.02283
73 4 2.02283 8.09134 2.02283
8256 2 2.02283 8.09134 2.02283
8257 2 0 10.1142 2.02283
74 4 6.0685 8.09134 2.02283
75 4 4.04567 10.1142 2.02283
8258 2 4.04567 8.09134 0
8259 2 6.0685 10.1142 0
8260 2 8.09134 8.09134 0
8261 2 10.1142 8.09134 2.02283
8262 2 8.09134 10.1142 2.02283
76 4 12.137 8.09134 0
8263 2 12.137 8.09134 0
8264 2 12.137 10.1142 2.02283
77 4 14.1598 8.09134 2.02283
8265 2 16.1827 8.09134 0
78 4 18.2055 8.09134 2.02283
8266 2 18.2055 10.1142 0
8267 2 18.2055 8.09134 2.02283
8268 2 20.2283 8.09134 0
79 4 22.2512 10.1142 0
80 4 22.2512 8.09134 2.02283
8269 2 22.2512 10.1142 0
8270 2 22.2512 8.09134 2.02283
81 4 24.274 8.09134 0
82 4 26.2969 8.09134 2.02283
8271 2 26.2969 10.1142 0
8272 2 24.274 10.1142 2.02283
83 4 28.3197 10.1142 2.02283
8273 2 28.3197 10.1142 2.02283
8274 2 32.3654 8.09134 0
8276 2 32.3654 10.1142 2.02283
84 4 34.3882 8.09134 2.02283
86 4 36.411 10.1142 2.02283
8275 2 34.3882 10.1142 0
8277 2 36.411 8.09134 0
8280 2 36.411 10.1142 2.02283
85 4 38.4339 10.1142 0
88 4 40.4567 10.1142 2.02283
8278 2 38.4339 10.1142 0
8279 2 38.4339 8.09134 2.02283
8281 2 40.4567 8.09134 0
87 4 42.4795 8.09134 2.02283
8282 2 42.4795 10.1142 0
8283 2 42.4795 8.09134 2.02283
89 4 46.5252 8.09134 2.02283
90 4 44.5024 10.1142 2.02283
8284 2 46.5252 10.1142 0
91 4 50.5709 10.1142 0
92 4 48.548 10.1142 2.02283
8285 2 48.548 8.09134 0
93 4 52.5937 10.1142 2.02283
8288 2 52.5937 10.1142 2.02283
94 4 56.6394 8.09134 0
8286 2 54.6165 10.1142 0
8287 2 54.6165 8.09134 2.02283
8289 2 56.6394 8.09134 0
8291 2 56.6394 10.1142 2.02283
95 4 60.685 8.09134 0
97 4 60.685 10.1142 2.02283
8290 2 58.6622 10.1142 0
8292 2 60.685 8.09134 0
8294 2 60.685 10.1142 2.02283
96 4 62.7079 10.1142 0
8293 2 62.7079 10.1142 0
99 4 2.02283 12.137 2.02283
8295 2 0 12.137 0
101 4 4.04567 12.137 0
103 4 6.0685 12.137 2.02283
8296 2 4.04567 12.137 0
8298 2 6.0685 12.137 2.02283
104 4 8.09134 12.137 0
105 4 10.1142 12.137 2.02283
8299 2 8.09134 12.137 0
8301 2 12.137 12.137 0
107 4 14.1598 12.137 2.02283
108 4 20.2283 12.137 0
8305 2 18.2055 12.137 2.02283
110 4 22.2512 12.137 2.02283
111 4 24.274 12.137 0
112 4 26.2969 12.137 2.02283
114 4 28.3197 12.137 0
116 4 30.3425 12.137 2.02283
8309 2 28.3197 12.137 0
8310 2 30.3425 12.137 2.02283
8312 2 32.3654 12.137 0
119 4 36.411 12.137 0
8314 2 36.411 12.137 0
121 4 38.4339 12.137 2.02283
123 4 40.4567 12.137 0
8315 2 38.4339 12.137 2.02283
8316 2 40.4567 12.137 0
124 4 42.4795 12.137 2.02283
8317 2 44.5024 12.137 0
126 4 50.5709 12.137 2.02283
128 4 52.5937 12.137 0
129 4 54.6165 12.137 2.02283
130 4 56.6394 12.137 0
8319 2 54.6165 12.137 2.02283
8321 2 56.6394 12.137 0
8323 2 60.685 12.137 0
98 4 2.02283 14.1598 0
100 4 0 14.1598 2.02283
8327 2 2.02283 16.1827 2.02283
102 4 6.0685 14.1598 0
8297 2 6.0685 14.1598 0
8329 2 4.04567 16.1827 0
8331 2 6.0685 16.1827 2.02283
134 4 10.1142 16.1827 2.02283
8300 2 10.1142 14.1598 0
8333 2 8.09134 16.1827 0
8303 2 12.137 14.1598 2.02283
106 4 14.1598 14.1598 0
8302 2 14.1598 14.1598 0
137 4 20.2283 16.1827 0
8304 2 18.2055 14.1598 0
8338 2 18.2055 16.1827 2.02283
8340 2 20.2283 16.1827 0
109 4 22.2512 14.1598 0
8306 2 22.2512 14.1598 0
8341 2 22.2512 16.1827 2.02283
113 4 24.274 14.1598 2.02283
139 4 24.274 16.1827 0
8307 2 26.2969 14.1598 0
8308 2 24.274 14.1598 2.02283
8344 2 26.2969 16.1827 2.02283
115 4 30.3425 14.1598 0
117 4 28.3197 14.1598 2.02283
8311 2 28.3197 14.1598 2.02283
118 4 32.3654 14.1598 2.02283
122 4 36.411 14.1598 2.02283
143 4 34.3882 16.1827 2.02283
8313 2 34.3882 14.1598 0
120 4 38.4339 14.1598 0
146 4 38.4339 16.1827 2.02283
148 4 40.4567 16.1827 0
8349 2 38.4339 16.1827 2.02283
8318 2 44.5024 14.1598 2.02283
8353 2 44.5024 16.1827 0
8354 2 46.5252 16.1827 2.02283
125 4 50.5709 14.1598 0
127 4 48.548 14.1598 2.02283
152 4 48.548 16.1827 0
8356 2 48.548 16.1827 0
8357 2 50.5709 16.1827 2.02283
155 4 52.5937 16.1827 0
8320 2 52.5937 14.1598 2.02283
156 4 54.6165 16.1827 2.02283
158 4 56.6394 16.1827 0
8322 2 56.6394 14.1598 2.02283
8359 2 54.6165 16.1827 2.02283
8325 2 60.685 14.1598 2.02283
8362 2 60.685 16.1827 0
131 4 62.7079 14.1598 0
8324 2 62.7079 14.1598 0
8364 2 62.7079 16.1827 2.02283
132 4 2.02283 18.2055 0
160 4 0 20.2283 0
162 4 2.02283 20.2283 2.02283
8326 2 2.02283 18.2055 0
8328 2 0 18.2055 2.02283
8366 2 0 20.2283 0
8368 2 2.02283 20.2283 2.02283
133 4 6.0685 18.2055 0
164 4 4.04567 20.2283 0
165 4 6.0685 20.2283 2.02283
8330 2 6.0685 18.2055 0
8332 2 4.04567 18.2055 2.02283
8370 2 4.04567 20.2283 0
8372 2 6.0685 20.2283 2.02283
167 4 10.1142 20.2283 2.02283
8334 2 10.1142 18.2055 0
8335 2 8.09134 18.2055 2.02283
8374 2 8.09134 20.2283 0
135 4 12.137 18.2055 2.02283
136 4 16.1827 18.2055 2.02283
169 4 14.1598 20.2283 2.02283
171 4 16.1827 20.2283 0
8336 2 14.1598 18.2055 0
8339 2 16.1827 18.2055 2.02283
8377 2 14.1598 20.2283 2.02283
8378 2 16.1827 20.2283 0
173 4 18.2055 20.2283 2.02283
175 4 20.2283 20.2283 0
8337 2 18.2055 18.2055 0
8342 2 20.2283 18.2055 2.02283
8380 2 18.2055 20.2283 2.02283
138 4 22.2512 18.2055 0
8383 2 22.2512 20.2283 2.02283
140 4 26.2969 18.2055 0
177 4 24.274 20.2283 0
8343 2 26.2969 18.2055 0
8345 2 24.274 18.2055 2.02283
8385 2 26.2969 20.2283 2.02283
141 4 30.3425 18.2055 0
142 4 28.3197 18.2055 2.02283
8346 2 28.3197 18.2055 2.02283
8386 2 28.3197 20.2283 0
144 4 32.3654 18.2055 2.02283
8348 2 32.3654 18.2055 2.02283
147 4 36.411 18.2055 2.02283
180 4 36.411 20.2283 0
8347 2 34.3882 18.2055 0
8350 2 36.411 18.2055 2.02283
145 4 38.4339 18.2055 0
150 4 40.4567 18.2055 2.02283
183 4 40.4567 20.2283 0
8352 2 40.4567 18.2055 2.02283
8390 2 38.4339 20.2283 2.02283
8391 2 40.4567 20.2283 0
149 4 42.4795 18.2055 0
8351 2 42.4795 18.2055 0
8393 2 42.4795 20.2283 2.02283
151 4 46.5252 18.2055 0
184 4 44.5024 20.2283 0
8355 2 44.5024 18.2055 2.02283
153 4 50.5709 18.2055 0
154 4 48.548 18.2055 2.02283
186 4 50.5709 20.2283 2.02283
8358 2 48.548 18.2055 2.02283
8395 2 48.548 20.2283 0
8396 2 50.5709 20.2283 2.02283
157 4 52.5937 18.2055 2.02283
8360 2 52.5937 18.2055 2.02283
8398 2 52.5937 20.2283 0
188 4 54.6165 20.2283 2.02283
8399 2 54.6165 20.2283 2.02283
8401 2 56.6394 20.2283 0
159 4 60.685 18.2055 2.02283
8361 2 58.6622 18.2055 0
8365 2 60.685 18.2055 2.02283
192 4 62.7079 20.2283 2.02283
8363 2 62.7079 18.2055 0
161 4 2.02283 22.2512 0
163 4 0 22.2512 2.02283
8367 2 2.02283 22.2512 0
8369 2 0 22.2512 2.02283
8371 2 6.0685 22.2512 0
8373 2 4.04567 22.2512 2.02283
166 4 10.1142 22.2512 0
168 4 8.09134 22.2512 2.02283
8375 2 10.1142 22.2512 0
170 4 12.137 22.2512 2.02283
174 4 16.1827 22.2512 2.02283
8376 2 14.1598 22.2512 0
8381 2 16.1827 22.2512 2.02283
172 4 18.2055 22.2512 0
176 4 20.2283 22.2512 2.02283
8379 2 18.2055 22.2512 0
8382 2 22.2512 22.2512 0
178 4 26.2969 22.2512 0
8384 2 26.2969 22.2512 0
179 4 30.3425 22.2512 0
8387 2 30.3425 22.2512 0
8388 2 32.3654 22.2512 2.02283
182 4 36.411 22.2512 2.02283
181 4 38.4339 22.2512 0
8389 2 38.4339 22.2512 0
8392 2 42.4795 22.2512 0
185 4 44.5024 22.2512 2.02283
8394 2 44.5024 22.2512 2.02283
8397 2 48.548 22.2512 2.02283
189 4 52.5937 22.2512 2.02283
8400 2 52.5937 22.2512 2.02283
187 4 54.6165 22.2512 0
190 4 58.6622 22.2512 0
8402 2 58.6622 22.2512 0
191 4 62.7079 22.2512 0
8403 2 62.7079 22.2512 0
193 4 2.02283 26.2969 0
194 4 2.02283 24.274 2.02283
195 4 0 26.2969 2.02283
196 4 4.04567 24.274 0
197 4 6.0685 26.2969 0
8404 2 4.04567 24.274 0
8405 2 4.04567 26.2969 2.02283
198 4 8.09134 24.274 0
199 4 10.1142 26.2969 0
200 4 10.1142 24.274 2.02283
201 4 8.09134 26.2969 2.02283
8406 2 8.09134 24.274 0
8407 2 10.1142 26.2969 0
202 4 12.137 24.274 0
8408 2 12.137 24.274 0
8409 2 12.137 26.2969 2.02283
203 4 14.1598 26.2969 0
204 4 14.1598 24.274 2.02283
8410 2 16.1827 24.274 0
8412 2 16.1827 26.2969 2.02283
205 4 18.2055 26.2969 0
206 4 18.2055 24.274 2.02283
208 4 20.2283 26.2969 2.02283
8411 2 18.2055 26.2969 0
8413 2 20.2283 24.274 0
207 4 22.2512 26.2969 0
8414 2 22.2512 24.274 2.02283
209 4 24.274 24.274 0
210 4 26.2969 26.2969 0
8415 2 26.2969 26.2969 0
8416 2 26.2969 24.274 2.02283
211 4 30.3425 26.2969 0
8417 2 28.3197 24.274 0
8418 2 30.3425 24.274 2.02283
212 4 32.3654 24.274 0
215 4 32.3654 26.2969 2.02283
8419 2 32.3654 24.274 0
213 4 34.3882 26.2969 0
214 4 34.3882 24.274 2.02283
8420 2 34.3882 24.274 2.02283
8421 2 36.411 24.274 0
216 4 38.4339 26.2969 0
217 4 38.4339 24.274 2.02283
218 4 40.4567 24.274 0
8422 2 38.4339 26.2969 0
8423 2 38.4339 24.274 2.02283
8424 2 40.4567 24.274 0
219 4 42.4795 24.274 2.02283
8425 2 42.4795 26.2969 0
220 4 44.5024 24.274 0
221 4 46.5252 26.2969 0
8426 2 46.5252 26.2969 0
8427 2 44.5024 26.2969 2.02283
222 4 50.5709 26.2969 0
223 4 50.5709 24.274 2.02283
8428 2 48.548 26.2969 2.02283
224 4 52.5937 24.274 0
225 4 52.5937 26.2969 2.02283
226 4 56.6394 24.274 0
228 4 56.6394 26.2969 2.02283
8429 2 54.6165 24.274 2.02283
227 4 58.6622 26.2969 0
8430 2 58.6622 26.2969 0
229 4 62.7079 26.2969 0
230 4 0 28.3197 0
231 4 2.02283 30.3425 0
232 4 2.02283 28.3197 2.02283
233 4 0 30.3425 2.02283
8431 2 0 28.3197 0
8432 2 2.02283 30.3425 0
8433 2 2.02283 28.3197 2.02283
8434 2 0 30.3425 2.02283
234 4 6.0685 30.3425 0
235 4 6.0685 28.3197 2.02283
236 4 4.04567 30.3425 2.02283
8435 2 6.0685 30.3425 0
8436 2 6.0685 28.3197 2.02283
237 4 10.1142 28.3197 2.02283
238 4 8.09134 30.3425 2.02283
8437 2 8.09134 28.3197 0
8438 2 10.1142 30.3425 0
8439 2 10.1142 28.3197 2.02283
8440 2 8.09134 30.3425 2.02283
239 4 12.137 28.3197 0
241 4 12.137 30.3425 2.02283
240 4 14.1598 28.3197 2.02283
244 4 16.1827 30.3425 2.02283
242 4 18.2055 30.3425 0
243 4 18.2055 28.3197 2.02283
8441 2 18.2055 28.3197 2.02283
8442 2 22.2512 30.3425 0
8443 2 22.2512 28.3197 2.02283
245 4 24.274 28.3197 0
246 4 26.2969 28.3197 2.02283
8444 2 26.2969 30.3425 0
8445 2 26.2969 28.3197 2.02283
247 4 30.3425 30.3425 0
248 4 30.3425 28.3197 2.02283
249 4 28.3197 30.3425 2.02283
8446 2 28.3197 28.3197 0
250 4 32.3654 30.3425 2.02283
8447 2 32.3654 28.3197 0
251 4 36.411 28.3197 0
8448 2 34.3882 30.3425 0
8449 2 36.411 28.3197 0
252 4 40.4567 28.3197 0
8450 2 38.4339 28.3197 2.02283
8451 2 40.4567 28.3197 0
253 4 42.4795 28.3197 2.02283
8452 2 42.4795 30.3425 0
8453 2 42.4795 28.3197 2.02283
254 4 46.5252 30.3425 0
8454 2 44.5024 28.3197 0
8455 2 44.5024 30.3425 2.02283
255 4 50.5709 30.3425 0
256 4 50.5709 28.3197 2.02283
8456 2 48.548 28.3197 0
8457 2 50.5709 30.3425 0
8458 2 48.548 30.3425 2.02283
257 4 52.5937 30.3425 2.02283
8459 2 54.6165 30.3425 0
8461 2 56.6394 30.3425 2.02283
258 4 58.6622 30.3425 0
8460 2 58.6622 30.3425 0
259 4 62.7079 28.3197 2.02283
8462 2 62.7079 30.3425 0
260 4 0 32.3654 0
8464 2 2.02283 32.3654 2.02283
263 4 4.04567 32.3654 0
265 4 6.0685 32.3654 2.02283
8466 2 4.04567 32.3654 0
267 4 8.09134 32.3654 0
268 4 10.1142 32.3654 2.02283
8467 2 8.09134 32.3654 0
8469 2 10.1142 32.3654 2.02283
269 4 12.137 32.3654 0
8470 2 12.137 32.3654 0
8471 2 18.2055 32.3654 2.02283
274 4 22.2512 32.3654 2.02283
276 4 26.2969 32.3654 2.02283
8474 2 24.274 32.3654 0
278 4 28.3197 32.3654 0
280 4 32.3654 32.3654 0
8475 2 32.3654 32.3654 0
281 4 34.3882 32.3654 2.02283
282 4 36.411 32.3654 0
8477 2 34.3882 32.3654 2.02283
8478 2 36.411 32.3654 0
284 4 38.4339 32.3654 2.02283
8480 2 40.4567 32.3654 0
8482 2 42.4795 32.3654 2.02283
286 4 44.5024 32.3654 0
8484 2 46.5252 32.3654 2.02283
289 4 50.5709 32.3654 2.02283
8487 2 50.5709 32.3654 2.02283
8489 2 54.6165 32.3654 2.02283
8491 2 56.6394 32.3654 0
291 4 58.6622 32.3654 2.02283
292 4 62.7079 32.3654 2.02283
8493 2 62.7079 32.3654 2.02283
261 4 2.02283 34.3882 0
262 4 0 34.3882 2.02283
8463 2 2.02283 34.3882 0
8465 2 0 34.3882 2.02283
8495 2 0 36.411 0
264 4 6.0685 34.3882 0
266 4 4.04567 34.3882 2.02283
295 4 4.04567 36.411 0
8498 2 6.0685 36.411 2.02283
297 4 10.1142 36.411 2.02283
8468 2 10.1142 34.3882 0
8499 2 8.09134 36.411 0
271 4 12.137 34.3882 2.02283
270 4 14.1598 34.3882 0
272 4 16.1827 34.3882 2.02283
299 4 14.1598 36.411 2.02283
301 4 16.1827 36.411 0
8472 2 16.1827 34.3882 2.02283
8502 2 14.1598 36.411 2.02283
8504 2 16.1827 36.411 0
275 4 20.2283 34.3882 2.02283
302 4 18.2055 36.411 2.02283
8506 2 18.2055 36.411 2.02283
8508 2 20.2283 36.411 0
273 4 22.2512 34.3882 0
8473 2 22.2512 34.3882 0
277 4 24.274 34.3882 2.02283
306 4 26.2969 36.411 2.02283
8510 2 24.274 36.411 0
279 4 28.3197 34.3882 2.02283
8513 2 28.3197 36.411 0
308 4 32.3654 36.411 0
8476 2 34.3882 34.3882 0
8515 2 34.3882 36.411 2.02283
283 4 38.4339 34.3882 0
285 4 40.4567 34.3882 2.02283
8479 2 38.4339 34.3882 0
8483 2 40.4567 34.3882 2.02283
8519 2 40.4567 36.411 0
311 4 42.4795 36.411 2.02283
8481 2 42.4795 34.3882 0
8520 2 42.4795 36.411 2.02283
287 4 46.5252 34.3882 0
8485 2 44.5024 34.3882 2.02283
288 4 50.5709 34.3882 0
290 4 48.548 34.3882 2.02283
314 4 48.548 36.411 0
8486 2 50.5709 34.3882 0
8523 2 48.548 36.411 0
316 4 52.5937 36.411 0
8490 2 52.5937 34.3882 2.02283
318 4 54.6165 36.411 2.02283
320 4 56.6394 36.411 0
8488 2 54.6165 34.3882 0
8525 2 56.6394 36.411 0
293 4 60.685 34.3882 2.02283
8492 2 58.6622 34.3882 0
8494 2 60.685 34.3882 2.02283
8526 2 58.6622 36.411 2.02283
294 4 2.02283 38.4339 0
323 4 2.02283 40.4567 2.02283
8496 2 2.02283 38.4339 0
8528 2 0 40.4567 0
296 4 6.0685 38.4339 0
324 4 4.04567 40.4567 0
325 4 6.0685 40.4567 2.02283
8497 2 6.0685 38.4339 0
326 4 10.1142 40.4567 2.02283
8500 2 8.09134 38.4339 2.02283
8532 2 8.09134 40.4567 0
300 4 12.137 38.4339 2.02283
8503 2 12.137 38.4339 2.02283
298 4 14.1598 38.4339 0
328 4 14.1598 40.4567 2.02283
329 4 16.1827 40.4567 0
8501 2 14.1598 38.4339 0
8507 2 16.1827 38.4339 2.02283
304 4 20.2283 38.4339 2.02283
332 4 20.2283 40.4567 0
8505 2 18.2055 38.4339 0
8536 2 18.2055 40.4567 2.02283
8537 2 20.2283 40.4567 0
303 4 22.2512 38.4339 0
8509 2 22.2512 38.4339 0
8538 2 22.2512 40.4567 2.02283
305 4 26.2969 38.4339 0
334 4 24.274 40.4567 0
8511 2 26.2969 38.4339 0
8512 2 24.274 38.4339 2.02283
8540 2 24.274 40.4567 0
8542 2 26.2969 40.4567 2.02283
307 4 30.3425 38.4339 0
338 4 30.3425 40.4567 2.02283
8545 2 30.3425 40.4567 2.02283
339 4 32.3654 40.4567 0
8516 2 32.3654 38.4339 2.02283
8546 2 32.3654 40.4567 0
309 4 34.3882 38.4339 0
341 4 34.3882 40.4567 2.02283
343 4 36.411 40.4567 0
8514 2 34.3882 38.4339 0
8518 2 36.411 38.4339 2.02283
8548 2 34.3882 40.4567 2.02283
312 4 40.4567 38.4339 2.02283
345 4 38.4339 40.4567 2.02283
346 4 40.4567 40.4567 0
8517 2 38.4339 38.4339 0
8521 2 40.4567 38.4339 2.02283
8550 2 38.4339 40.4567 2.02283
310 4 42.4795 38.4339 0
8552 2 42.4795 40.4567 2.02283
313 4 46.5252 38.4339 0
347 4 44.5024 40.4567 0
8522 2 46.5252 38.4339 0
315 4 50.5709 38.4339 0
348 4 48.548 40.4567 0
349 4 50.5709 40.4567 2.02283
319 4 52.5937 38.4339 2.02283
8556 2 52.5937 40.4567 0
317 4 54.6165 38.4339 0
352 4 56.6394 40.4567 0
8524 2 54.6165 38.4339 0
8557 2 54.6165 40.4567 2.02283
354 4 58.6622 40.4567 2.02283
321 4 62.7079 38.4339 0
8527 2 62.7079 38.4339 0
322 4 2.02283 42.4795 0
8529 2 0 42.4795 2.02283
8530 2 6.0685 42.4795 0
8531 2 4.04567 42.4795 2.02283
327 4 8.09134 42.4795 2.02283
8533 2 10.1142 42.4795 0
331 4 16.1827 42.4795 2.02283
8534 2 14.1598 42.4795 0
330 4 18.2055 42.4795 0
8535 2 18.2055 42.4795 0
8539 2 20.2283 42.4795 2.02283
333 4 22.2512 42.4795 0
335 4 26.2969 42.4795 0
336 4 24.274 42.4795 2.02283
8541 2 26.2969 42.4795 0
8543 2 24.274 42.4795 2.02283
337 4 30.3425 42.4795 0
8544 2 30.3425 42.4795 0
342 4 32.3654 42.4795 2.02283
8549 2 32.3654 42.4795 2.02283
340 4 34.3882 42.4795 0
8547 2 34.3882 42.4795 0
8551 2 36.411 42.4795 2.02283
344 4 38.4339 42.4795 0
8553 2 40.4567 42.4795 2.02283
350 4 48.548 42.4795 2.02283
8554 2 50.5709 42.4795 0
8555 2 48.548 42.4795 2.02283
351 4 54.6165 42.4795 0
353 4 58.6622 42.4795 0
356 4 60.685 42.4795 2.02283
8558 2 58.6622 42.4795 0
8560 2 60.685 42.4795 2.02283
355 4 62.7079 42.4795 0
8559 2 62.7079 42.4795 0
357 4 0 44.5024 0
358 4 2.02283 46.5252 0
359 4 2.02283 44.5024 2.02283
360 4 0 46.5252 2.02283
8561 2 0 44.5024 0
8562 2 2.02283 44.5024 2.02283
361 4 4.04567 44.5024 0
362 4 4.04567 46.5252 2.02283
8563 2 4.04567 44.5024 0
8564 2 6.0685 44.5024 2.02283
363 4 8.09134 44.5024 0
364 4 10.1142 44.5024 2.02283
8565 2 8.09134 44.5024 0
8566 2 10.1142 44.5024 2.02283
8567 2 8.09134 46.5252 2.02283
365 4 12.137 44.5024 0
367 4 12.137 46.5252 2.02283
366 4 14.1598 44.5024 2.02283
8568 2 14.1598 46.5252 0
8569 2 14.1598 44.5024 2.02283
368 4 18.2055 44.5024 2.02283
371 4 20.2283 46.5252 2.02283
8570 2 18.2055 44.5024 2.02283
8572 2 20.2283 46.5252 2.02283
369 4 22.2512 46.5252 0
370 4 22.2512 44.5024 2.02283
8571 2 22.2512 46.5252 0
372 4 26.2969 44.5024 2.02283
373 4 24.274 46.5252 2.02283
8573 2 26.2969 44.5024 2.02283
8574 2 24.274 46.5252 2.02283
374 4 28.3197 44.5024 0
375 4 30.3425 46.5252 0
376 4 30.3425 44.5024 2.02283
377 4 28.3197 46.5252 2.02283
8575 2 28.3197 44.5024 0
8576 2 30.3425 44.5024 2.02283
8577 2 28.3197 46.5252 2.02283
378 4 32.3654 44.5024 0
379 4 34.3882 44.5024 2.02283
380 4 36.411 44.5024 0
8578 2 36.411 44.5024 0
8579 2 36.411 46.5252 2.02283
381 4 38.4339 44.5024 2.02283
382 4 42.4795 46.5252 0
383 4 42.4795 44.5024 2.02283
8580 2 42.4795 46.5252 0
384 4 46.5252 46.5252 0
385 4 46.5252 44.5024 2.02283
8581 2 46.5252 44.5024 2.02283
386 4 48.548 46.5252 2.02283
387 4 52.5937 44.5024 0
389 4 52.5937 46.5252 2.02283
388 4 54.6165 46.5252 0
390 4 56.6394 44.5024 0
8582 2 54.6165 44.5024 2.02283
8585 2 56.6394 46.5252 2.02283
391 4 58.6622 44.5024 2.02283
393 4 60.685 46.5252 2.02283
8583 2 58.6622 46.5252 0
8584 2 58.6622 44.5024 2.02283
8587 2 60.685 46.5252 2.02283
392 4 62.7079 46.5252 0
8586 2 62.7079 44.5024 2.02283
394 4 0 50.5709 2.02283
8588 2 2.02283 50.5709 0
8589 2 0 50.5709 2.02283
395 4 4.04567 48.548 0
396 4 4.04567 50.5709 2.02283
8590 2 6.0685 50.5709 0
8591 2 6.0685 48.548 2.02283
8592 2 4.04567 50.5709 2.02283
397 4 8.09134 48.548 0
398 4 10.1142 50.5709 0
399 4 10.1142 48.548 2.02283
400 4 8.09134 50.5709 2.02283
8593 2 8.09134 48.548 0
8594 2 10.1142 50.5709 0
8595 2 10.1142 48.548 2.02283
401 4 14.1598 48.548 2.02283
402 4 16.1827 48.548 0
404 4 16.1827 50.5709 2.02283
8596 2 14.1598 50.5709 0
403 4 18.2055 50.5709 0
405 4 20.2283 50.5709 2.02283
8597 2 18.2055 48.548 2.02283
8598 2 20.2283 48.548 0
8599 2 22.2512 48.548 2.02283
406 4 24.274 48.548 0
8600 2 24.274 48.548 0
8601 2 26.2969 48.548 2.02283
407 4 28.3197 48.548 0
8602 2 28.3197 48.548 0
8603 2 28.3197 50.5709 2.02283
8606 2 32.3654 50.5709 2.02283
409 4 36.411 50.5709 2.02283
8604 2 34.3882 50.5709 0
8605 2 34.3882 48.548 2.02283
8607 2 36.411 48.548 0
8609 2 36.411 50.5709 2.02283
408 4 38.4339 48.548 2.02283
410 4 40.4567 48.548 0
8608 2 38.4339 48.548 2.02283
8610 2 40.4567 48.548 0
8613 2 40.4567 50.5709 2.02283
411 4 42.4795 50.5709 0
412 4 42.4795 48.548 2.02283
8611 2 42.4795 50.5709 0
8612 2 42.4795 48.548 2.02283
413 4 44.5024 48.548 0
414 4 46.5252 50.5709 0
415 4 46.5252 48.548 2.02283
8614 2 44.5024 48.548 0
8615 2 46.5252 48.548 2.02283
416 4 50.5709 50.5709 0
417 4 48.548 50.5709 2.02283
8616 2 48.548 48.548 0
8617 2 50.5709 48.548 2.02283
418 4 52.5937 48.548 0
8618 2 52.5937 48.548 0
8620 2 52.5937 50.5709 2.02283
419 4 54.6165 48.548 2.02283
420 4 56.6394 48.548 0
8619 2 54.6165 50.5709 0
8621 2 56.6394 50.5709 2.02283
421 4 58.6622 50.5709 0
422 4 60.685 48.548 0
424 4 60.685 50.5709 2.02283
8622 2 60.685 48.548 0
423 4 62.7079 50.5709 0
8623 2 0 52.5937 0
8624 2 2.02283 52.5937 2.02283
426 4 4.04567 52.5937 0
8625 2 6.0685 52.5937 2.02283
8627 2 8.09134 52.5937 0
8628 2 10.1142 52.5937 2.02283
429 4 12.137 52.5937 0
432 4 16.1827 52.5937 0
8631 2 14.1598 52.5937 2.02283
435 4 20.2283 52.5937 0
8635 2 22.2512 52.5937 2.02283
436 4 24.274 52.5937 0
438 4 26.2969 52.5937 2.02283
8636 2 24.274 52.5937 0
440 4 30.3425 52.5937 2.02283
8638 2 30.3425 52.5937 2.02283
441 4 32.3654 52.5937 0
443 4 38.4339 52.5937 2.02283
445 4 40.4567 52.5937 0
8641 2 38.4339 52.5937 2.02283
448 4 44.5024 52.5937 0
449 4 46.5252 52.5937 2.02283
8644 2 44.5024 52.5937 0
450 4 48.548 52.5937 0
452 4 50.5709 52.5937 2.02283
8647 2 50.5709 52.5937 2.02283
454 4 52.5937 52.5937 0
8649 2 52.5937 52.5937 0
456 4 54.6165 52.5937 2.02283
8651 2 54.6165 52.5937 2.02283
8652 2 56.6394 52.5937 0
457 4 58.6622 52.5937 2.02283
459 4 60.685 52.5937 0
8655 2 60.685 52.5937 0
460 4 62.7079 52.5937 2.02283
8657 2 62.7079 52.5937 2.02283
425 4 0 54.6165 2.02283
8658 2 0 56.6394 0
8660 2 2.02283 56.6394 2.02283
427 4 4.04567 54.6165 2.02283
8626 2 4.04567 54.6165 2.02283
428 4 10.1142 54.6165 0
463 4 10.1142 56.6394 2.02283
8629 2 8.09134 54.6165 2.02283
8662 2 8.09134 56.6394 0
431 4 12.137 54.6165 2.02283
464 4 12.137 56.6394 0
8632 2 12.137 54.6165 2.02283
8665 2 12.137 56.6394 0
430 4 14.1598 54.6165 0
434 4 16.1827 54.6165 2.02283
465 4 16.1827 56.6394 0
8630 2 14.1598 54.6165 0
8634 2 16.1827 54.6165 2.02283
8667 2 14.1598 56.6394 2.02283
8668 2 16.1827 56.6394 0
433 4 18.2055 54.6165 0
467 4 20.2283 56.6394 0
8633 2 18.2055 54.6165 0
8669 2 20.2283 56.6394 0
468 4 22.2512 56.6394 2.02283
437 4 26.2969 54.6165 0
470 4 26.2969 56.6394 2.02283
8637 2 26.2969 54.6165 0
8671 2 24.274 56.6394 0
439 4 30.3425 54.6165 0
471 4 28.3197 56.6394 0
473 4 30.3425 56.6394 2.02283
8639 2 28.3197 54.6165 2.02283
8673 2 30.3425 56.6394 2.02283
8640 2 32.3654 54.6165 2.02283
8674 2 32.3654 56.6394 0
444 4 36.411 54.6165 2.02283
475 4 34.3882 56.6394 2.02283
8676 2 36.411 56.6394 0
442 4 38.4339 54.6165 0
447 4 40.4567 54.6165 2.02283
477 4 38.4339 56.6394 2.02283
478 4 40.4567 56.6394 0
8643 2 40.4567 54.6165 2.02283
8677 2 38.4339 56.6394 2.02283
446 4 42.4795 54.6165 0
479 4 42.4795 56.6394 2.02283
8642 2 42.4795 54.6165 0
8680 2 42.4795 56.6394 2.02283
481 4 46.5252 56.6394 2.02283
8645 2 46.5252 54.6165 0
8646 2 44.5024 54.6165 2.02283
451 4 50.5709 54.6165 0
453 4 48.548 54.6165 2.02283
483 4 48.548 56.6394 0
484 4 50.5709 56.6394 2.02283
8648 2 48.548 54.6165 2.02283
8684 2 52.5937 56.6394 0
455 4 54.6165 54.6165 0
458 4 56.6394 54.6165 2.02283
8650 2 54.6165 54.6165 0
8654 2 56.6394 54.6165 2.02283
8687 2 56.6394 56.6394 0
488 4 58.6622 56.6394 2.02283
489 4 60.685 56.6394 0
8653 2 58.6622 54.6165 0
491 4 62.7079 56.6394 2.02283
8656 2 62.7079 54.6165 0
8659 2 2.02283 58.6622 0
8689 2 0 60.685 0
461 4 6.0685 58.6622 0
493 4 4.04567 60.685 0
8661 2 4.04567 58.6622 2.02283
8692 2 4.04567 60.685 0
8693 2 6.0685 60.685 2.02283
462 4 10.1142 58.6622 0
496 4 8.09134 60.685 0
497 4 10.1142 60.685 2.02283
8663 2 10.1142 58.6622 0
8664 2 8.09134 58.6622 2.02283
8697 2 12.137 60.685 0
466 4 16.1827 58.6622 2.02283
8666 2 14.1598 58.6622 0
8698 2 14.1598 60.685 2.02283
8699 2 16.1827 60.685 0
469 4 20.2283 58.6622 2.02283
8701 2 18.2055 60.685 2.02283
8703 2 20.2283 60.685 0
500 4 22.2512 60.685 2.02283
8670 2 22.2512 58.6622 0
502 4 24.274 60.685 0
8672 2 24.274 58.6622 2.02283
8705 2 26.2969 60.685 2.02283
472 4 30.3425 58.6622 0
474 4 28.3197 58.6622 2.02283
503 4 28.3197 60.685 0
505 4 30.3425 60.685 2.02283
8707 2 28.3197 60.685 0
8708 2 30.3425 60.685 2.02283
507 4 34.3882 60.685 2.02283
509 4 36.411 60.685 0
8675 2 34.3882 58.6622 0
8678 2 36.411 58.6622 2.02283
8712 2 36.411 60.685 0
476 4 38.4339 58.6622 0
511 4 38.4339 60.685 2.02283
512 4 40.4567 60.685 0
8681 2 40.4567 58.6622 2.02283
8713 2 38.4339 60.685 2.02283
8715 2 40.4567 60.685 0
8679 2 42.4795 58.6622 0
8717 2 42.4795 60.685 2.02283
480 4 46.5252 58.6622 0
482 4 44.5024 58.6622 2.02283
513 4 44.5024 60.685 0
514 4 46.5252 60.685 2.02283
8682 2 44.5024 58.6622 2.02283
8719 2 44.5024 60.685 0
515 4 50.5709 60.685 2.02283
8683 2 48.548 58.6622 2.02283
8721 2 50.5709 60.685 2.02283
486 4 52.5937 58.6622 2.02283
517 4 52.5937 60.685 0
8686 2 52.5937 58.6622 2.02283
8722 2 52.5937 60.685 0
485 4 54.6165 58.6622 0
518 4 54.6165 60.685 2.02283
8685 2 54.6165 58.6622 0
8724 2 54.6165 60.685 2.02283
487 4 58.6622 58.6622 0
8688 2 58.6622 58.6622 0
8727 2 58.6622 60.685 2.02283
490 4 62.7079 58.6622 0
521 4 62.7079 60.685 2.02283
8729 2 62.7079 60.685 2.02283
492 4 2.02283 62.7079 0
8690 2 2.02283 62.7079 0
8691 2 0 62.7079 2.02283
494 4 6.0685 62.7079 0
495 4 4.04567 62.7079 2.02283
8694 2 4.04567 62.7079 2.02283
8695 2 10.1142 62.7079 0
8696 2 8.09134 62.7079 2.02283
498 4 14.1598 62.7079 0
8702 2 16.1827 62.7079 2.02283
501 4 20.2283 62.7079 2.02283
8700 2 18.2055 62.7079 0
499 4 22.2512 62.7079 0
8704 2 26.2969 62.7079 0
8706 2 24.274 62.7079 2.02283
504 4 30.3425 62.7079 0
8709 2 28.3197 62.7079 2.02283
508 4 32.3654 62.7079 2.02283
8711 2 32.3654 62.7079 2.02283
506 4 34.3882 62.7079 0
8710 2 34.3882 62.7079 0
8714 2 36.411 62.7079 2.02283
510 4 38.4339 62.7079 0
8718 2 40.4567 62.7079 2.02283
8716 2 42.4795 62.7079 0
8720 2 46.5252 62.7079 0
516 4 48.548 62.7079 2.02283
519 4 52.5937 62.7079 2.02283
8725 2 52.5937 62.7079 2.02283
8723 2 54.6165 62.7079 0
8726 2 58.6622 62.7079 0
520 4 62.7079 62.7079 0
8728 2 62.7079 62.7079 0
8730 2 2.02283 2.02283 4.04567
8731 2 0 2.02283 6.0685
522 4 6.0685 0 6.0685
523 4 4.04567 2.02283 6.0685
8732 2 6.0685 2.02283 4.04567
8733 2 6.0685 0 6.0685
8734 2 4.04567 2.02283 6.0685
524 4 10.1142 0 6.0685
8735 2 8.09134 0 4.04567
8736 2 10.1142 0 6.0685
8737 2 8.09134 2.02283 6.0685
527 4 12.137 2.02283 6.0685
8739 2 12.137 2.02283 6.0685
525 4 14.1598 2.02283 4.04567
526 4 14.1598 0 6.0685
528 4 16.1827 0 4.04567
8738 2 14.1598 0 6.0685
8740 2 16.1827 0 4.04567
8741 2 16.1827 2.02283 6.0685
529 4 18.2055 0 6.0685
531 4 20.2283 2.02283 6.0685
8742 2 20.2283 2.02283 6.0685
530 4 22.2512 0 6.0685
532 4 26.2969 2.02283 4.04567
533 4 26.2969 0 6.0685
8743 2 24.274 0 4.04567
8744 2 26.2969 2.02283 4.04567
8745 2 24.274 2.02283 6.0685
534 4 28.3197 0 4.04567
535 4 28.3197 2.02283 6.0685
8746 2 28.3197 0 4.04567
8747 2 30.3425 0 6.0685
536 4 32.3654 0 4.04567
539 4 32.3654 2.02283 6.0685
8748 2 32.3654 0 4.04567
8749 2 32.3654 2.02283 6.0685
537 4 34.3882 2.02283 4.04567
538 4 34.3882 0 6.0685
8752 2 36.411 2.02283 6.0685
540 4 40.4567 0 4.04567
8750 2 38.4339 2.02283 4.04567
8751 2 38.4339 0 6.0685
8753 2 40.4567 2.02283 6.0685
541 4 44.5024 0 4.04567
542 4 46.5252 2.02283 4.04567
8754 2 46.5252 2.02283 4.04567
8755 2 46.5252 0 6.0685
543 4 50.5709 2.02283 4.04567
544 4 50.5709 0 6.0685
545 4 48.548 2.02283 6.0685
8756 2 48.548 2.02283 6.0685
546 4 52.5937 0 4.04567
549 4 52.5937 2.02283 6.0685
8757 2 52.5937 0 4.04567
547 4 54.6165 2.02283 4.04567
548 4 54.6165 0 6.0685
550 4 56.6394 2.02283 6.0685
8758 2 54.6165 0 6.0685
551 4 60.685 0 4.04567
552 4 60.685 2.02283 6.0685
8759 2 62.7079 2.02283 4.04567