ITEM: TIMESTEP
0
ITEM: NUMBER OF ATOMS
50688
ITEM: BOX BOUNDS xy xz yz pp pp pp
-40.1340523 46.0912552 5.9572092
-43.8030052 43.8030052 0.0
-43.7915344 43.7915344 0.0
ITEM: ATOMS id type x y z VoronoiIndex1 VoronoiIndex2 VoronoiIndex3 VoronoiIndex4 VoronoiIndex5 VoronoiIndex6 VoronoiIndex7 VoronoiIndex8 VoronoiIndex9 AtomicVolume
32 5 -36.3800011 -22.3600006 -35.4399987 0 0 1 4 3 6 0 0 0 11.7860995
93 2 -33.1599999 -19.2700005 -25.5599995 0 0 0 2 8 4 0 0 0 12.0851374
109 4 -32.2700005 -9.9209996 -26.3799992 0 0 0 1 10 5 0 0 0 13.3084116
119 4 -33.0999985 -22.2800007 -19.4099999 0 0 0 1 10 4 0 0 0 12.8251438
211 2 -35.3899994 -24.5599995 -37.3199997 0 0 1 2 7 3 0 0 0 11.2187395
265 5 -33.4799996 -21.7700005 -25.3199997 0 0 0 4 6 4 0 0 0 12.8602658
275 5 -33.1800003 -21.0499992 -32.4700012 0 0 0 1 10 3 0 0 0 12.8868036
290 4 -37.5800019 -42.619999 -3.1719999 0 0 0 3 6 6 0 0 0 12.5756874
321 2 -38.2099991 -20.1700001 -21.7800007 0 0 0 0 12 0 0 0 0 11.0731106
329 2 -37.9799996 -25.8500004 -7.988 0 0 0 4 8 0 0 0 0 11.8127327
350 4 -33.2900009 -14.2700005 -37.4399987 0 0 0 1 10 2 0 0 0 11.8867588
403 4 -33.0800018 -32.8800012 -15.1700001 0 0 0 3 6 4 0 0 0 12.0860157
458 1 -34.3600006 -27.8999996 -38.9099998 0 0 0 0 12 0 0 0 0 10.3644514
463 3 -36.6899987 -3.672 -14.29 0 0 1 2 7 5 0 0 0 13.1214514
495 4 -32.0099983 -25.2299996 -1.7050001 0 0 0 1 10 3 0 0 0 12.5356837
501 2 -39.1599999 -30.1100006 -20.0599995 0 0 0 2 10 1 0 0 0 11.5487128
544 3 -30.5400009 -12.4600001 -39.1699982 0 0 1 2 7 3 0 0 0 12.7744541
553 4 -31.3299999 -27.4799996 -5.4250002 0 0 0 1 10 2 0 0 0 11.6700802
639 5 -36.3199997 -11.5100003 -28.4500008 0 0 0 2 8 5 0 0 0 13.0795183
691 5 -37.5099983 -9.7849999 -40.5099983 0 0 0 0 12 2 0 0 0 12.305644
740 2 -32.6399994 -37.2900009 -42.0699997 0 0 0 0 12 0 0 0 0 11.3933315
800 2 -35.4399987 -37.1599999 -19.6399994 0 0 1 1 9 2 0 0 0 11.6828585
833 4 -37.3800011 -18.5900002 -36.2599983 0 0 0 2 8 2 0 0 0 11.5314169
853 4 -31.7600003 -8.4399996 -28.5300007 0 0 0 2 8 4 0 0 0 12.8261919
862 2 -38.619999 -23.3400002 -35.1399994 0 0 0 2 10 0 0 0 0 11.2486706
939 2 -37.3499985 -36.5299988 -30.8600006 0 0 0 2 8 3 0 0 0 11.3245535
969 2 -31.7199993 -9.6429997 -12.0900002 0 0 0 3 6 4 0 0 0 11.9967986
1015 5 -37.4599991 -39.2799988 -14.1000004 0 0 0 3 6 6 0 0 0 12.4534197
1075 4 -34.2999992 -1.629 -35.2000008 0 0 2 4 4 3 0 0 0 11.5066901
1111 5 -34.5999985 -5.6799999 -6.2249999 0 0 1 3 7 2 0 0 0 12.3974028
1138 4 -32.0499992 -28.9400006 -0.5312 0 0 0 1 10 2 0 0 0 12.1485729
1163 2 -33.1599999 -19.0799999 -11.9700004 0 0 1 1 9 3 0 0 0 12.7478857
1237 2 -38.5099983 -41.9700012 -8.5649996 0 0 0 2 8 1 0 0 0 11.0672007
1238 4 -35.5800019 -32.0800018 -38.9399986 0 0 0 1 10 5 0 0 0 13.505517
1251 4 -36.5999985 -31.6700001 -7.6310001 0 0 0 0 12 3 0 0 0 13.1504793
1259 2 -34.4199982 -43.619999 -15.9300004 0 0 0 2 10 0 0 0 0 11.0175905
1280 4 -35.5400009 -27.5499993 -32.2799988 0 0 0 0 12 2 0 0 0 12.5737381
1298 4 -37.869999 -19.8099995 -42.4799996 0 0 0 1 10 4 0 0 0 13.1817827
1315 2 -36.4000015 -34.1199989 -42.9099998 0 0 0 0 12 0 0 0 0 11.0099077
1342 2 -35.8400002 -32.1500015 -32.5999985 0 0 0 3 8 4 0 0 0 12.5080233
1399 4 -36.4599991 -17.3799992 -2.2000001 0 0 0 3 6 4 0 0 0 11.2149925
1407 5 -34.0299988 -6.6329999 -24.6100006 0 0 0 0 12 0 0 0 0 11.1373434
1419 2 -32.0999985 -43.6399994 -15.6599999 0 0 1 0 9 3 0 0 0 11.2000246
1437 4 -36.5800019 -19.5300007 -20.0100002 0 0 0 1 10 4 0 0 0 12.6519814
1539 5 -29.5 -1.609 -30.3999996 0 0 1 3 5 5 0 0 0 12.0676241
1552 4 -32.7099991 -40.9199982 -29.75 0 0 1 3 4 4 1 0 0 11.958106
1585 4 -33.6699982 -27.7199993 -6.3130002 0 0 0 1 10 3 0 0 0 12.4786864
1595 4 -36.1699982 -16.6900006 -28.6700001 0 0 2 3 6 3 0 0 0 12.00527
1625 2 -36.3199997 -34.9300004 -29.3400002 0 0 0 2 8 2 0 0 0 10.7209311
1658 4 -35.9900018 -14.9799996 -6.4829998 0 0 0 0 12 2 0 0 0 11.6539011
1660 4 -31.7900009 -5.5949998 -25.4099999 0 0 0 0 12 2 0 0 0 12.1799612
1672 4 -38.6800003 -24.3199997 -22.1700001 0 0 0 1 10 4 0 0 0 12.6290207
1749 5 -33.9099998 -24.2199993 -29.8799992 0 0 1 3 6 4 1 0 0 12.8997012
1755 2 -35.7599983 -9.0310001 -20.9200002 0 0 0 3 6 4 0 0 0 11.777544
1804 5 -33.7700005 -14.7399998 -32.5699997 0 0 0 1 10 4 0 0 0 12.5936671
1826 4 -39.0499992 -39.4500008 -11.9200002 0 0 1 1 9 4 0 0 0 12.7158566
1876 4 -31.0100002 -28.9099998 -35.7400017 0 0 0 0 12 3 0 0 0 13.546278
1908 2 -34.2099991 -9.0019999 -24.8500004 0 0 0 0 12 0 0 0 0 11.2381077
1927 2 -35.7700005 -27.9500008 -35.1100006 0 0 0 1 10 3 0 0 0 12.1094656
1928 2 -30.9699994 -12.04 -12.25 0 0 0 4 4 6 0 0 0 11.9243842
1937 4 -32.7999993 -41.0600014 -24.3600006 0 0 0 3 6 5 0 0 0 11.8220845
2021 5 -35.2299996 -20.2000008 -41.9700012 0 0 0 1 10 4 0 0 0 13.4364538
2069 5 -34.3600006 -43.7900009 -29.9300004 0 0 0 3 6 6 0 0 0 12.4593029
2113 1 -35.7900009 -3.6199999 -31.2900009 0 0 0 0 12 0 0 0 0 10.7212773
2147 4 -36.7599983 -14.0200005 -19.8700008 0 0 0 1 10 4 0 0 0 12.6332159
2208 4 -37.1100006 -27.8700008 -39.3300018 0 0 1 1 11 2 0 0 0 12.8581734
2232 5 -36.9900018 -26.8799992 -10.2100001 0 0 0 0 12 2 0 0 0 12.6410313
2278 4 -38.4099999 -35.8600006 -37.4399987 0 0 0 2 8 4 0 0 0 12.9284984
2315 2 -36.4300003 -38.8899994 -21.0200005 0 0 0 0 12 0 0 0 0 11.8956128
2347 4 -30.3799992 -1.849 -1.1210001 0 0 1 1 9 3 0 0 0 11.854846
2412 5 -31.4699993 -37.5999985 -9.4980002 0 0 1 1 9 3 0 0 0 12.3890724
2457 1 -33.7099991 -40.6699982 -12.7700005 0 0 0 1 10 2 0 0 0 11.6760407
2529 4 -35.4300003 -15.54 -37.5 0 0 0 1 10 2 0 0 0 11.9273634
2585 3 -31.6700001 -5.079 -3.414 0 0 0 2 8 4 0 0 0 12.0262871
2597 5 -36.5499993 -32.8199997 -21.2199993 0 0 1 0 9 3 0 0 0 11.2718573
2649 4 -37.619999 -40.7099991 -4.6459999 0 0 0 3 6 4 0 0 0 11.8428936
2653 4 -37.4900017 -4.857 -22.7399998 0 0 0 2 8 5 0 0 0 12.8949432
2667 4 -34.4099999 -22.8700008 -13.4899998 0 0 0 3 8 3 0 0 0 12.5869465
2731 4 -34.2000008 -35.1199989 -18.0599995 0 0 0 3 8 3 0 0 0 13.0379305
2818 4 -31.3799992 -15.1700001 -17.9799996 0 0 0 4 4 6 0 0 0 12.7609091
2963 4 -31.6599999 -6.6890002 -41.1800003 0 0 0 1 10 4 0 0 0 12.6223555
2973 4 -36.7700005 -19.1800003 -29.0799999 0 0 1 5 3 7 0 0 0 12.637393
2992 4 -34.4500008 -2.513 -37.4700012 0 0 2 1 8 2 2 0 0 12.9000912
2998 2 -33.8800012 -37.8899994 -9.1709995 0 0 1 2 6 3 1 0 0 12.3702326
3012 4 -37.3899994 -28.8899994 -3.875 0 0 0 1 10 5 0 0 0 13.534977
3032 4 -36.5400009 -35.1399994 -17.8600006 0 0 0 3 8 2 0 0 0 12.3250055
3049 4 -31.0 -13.4099999 -36.9000016 0 0 0 2 8 5 0 0 0 12.7817602
3076 2 -30.7399998 -10.3299999 -43.1899986 0 0 0 1 10 4 0 0 0 13.1141424
3096 2 -33.5600014 -31.3799992 -40.9300004 0 0 0 1 10 2 0 0 0 12.2094603
3134 5 -32.6300011 -16.4500008 -41.2700005 0 0 0 2 8 3 0 1 0 12.6797219
3159 5 -32.2999992 -34.2700005 -21.7700005 0 0 0 2 8 2 0 0 0 11.0891132
3193 5 -31.7399998 -35.3400002 -3.6359999 0 0 0 0 12 0 0 0 0 11.0156527
3247 5 -32.7900009 -7.704 -6.4089999 0 0 0 3 8 4 0 0 0 13.1248894
3334 4 -38.5800019 -27.8299999 -28.4300003 0 0 1 4 4 6 1 1 0 13.0511837
3403 2 -33.8100014 -41.619999 -9.0030003 0 0 0 0 12 0 0 0 0 10.7347222
3405 5 -34.5499993 -1.841 -17.7000008 0 0 0 2 8 4 0 0 0 11.8073216
3513 5 -38.5 -20.9799996 -19.4899998 0 0 0 1 10 3 0 0 0 12.5548363
3649 4 -39.9399986 -41.6800003 -34.0800018 0 0 0 2 8 4 0 0 0 12.5817614
3691 4 -32.8400002 -23.0200005 -6.1669998 0 0 0 2 12 0 0 0 0 12.1497221
3726 2 -31.4300003 -19.6700001 -6.3940001 0 0 0 5 2 6 0 0 0 11.7635269
3747 2 -36.3300018 -18.8999996 -9.625 0 0 0 0 12 0 0 0 0 11.2453404
3789 5 -34.6100006 -29.2399998 -13.6800003 0 0 0 3 6 4 0 0 0 12.0655384
3838 5 -38.6800003 -34.9000016 -42.4300003 0 0 0 1 10 3 0 0 0 12.504777
3843 2 -35.6599999 -16.3700009 -13.3699999 0 0 0 0 12 0 0 0 0 11.2494593
3850 5 -38.6100006 -39.869999 -26.8400002 0 0 2 2 6 3 2 0 0 12.2190771
3923 5 -32.5499993 -3.007 -12.3699999 0 0 0 1 10 2 1 0 0 13.0946512
3953 4 -37.1300011 -12.3699999 -33.5499993 0 0 0 3 6 4 0 0 0 10.8324356
3975 2 -36.4099999 -20.9500008 -13.4200001 0 0 0 5 6 1 0 0 0 11.4423085
4008 4 -33.5800019 -34.0999985 -12.7799998 0 0 0 2 10 2 0 0 0 12.4606734
4132 2 -32.5699997 -9.9139996 -23.4200001 0 0 0 0 12 0 0 0 0 11.603036
4175 2 -31.3400002 -28.3600006 -29.4099999 0 0 1 2 7 4 0 0 0 11.6667452
4218 4 -34.8199997 -24.0799999 -27.2900009 0 0 0 3 8 1 0 0 0 11.549325
4240 4 -37.5900002 -30.6399994 -21.7600003 0 0 1 2 9 3 0 0 0 12.2347183
4288 4 -34.7700005 -35.1800003 -35.0099983 0 0 0 3 6 4 0 0 0 11.6762638
4309 2 -29.9099998 -4.1599999 -5.4730001 0 0 0 0 12 0 0 0 0 11.345047
4329 5 -33.3600006 -16.9599992 -36.9900018 0 0 0 1 10 2 0 0 0 11.8576404
4363 4 -34.3899994 -18.1200008 -21.8700008 0 0 0 2 8 4 0 0 0 12.1978006
4409 4 -33.7099991 -19.1000004 -34.0800018 0 0 0 1 10 3 0 0 0 12.32164
4429 4 -31.4200001 -21.6000004 -40.7900009 0 0 0 3 6 4 0 0 0 12.0876751
4441 2 -32.3199997 -21.7299996 -21.7900009 0 0 0 3 8 3 0 0 0 12.7313948
4564 2 -35.1800003 -3.95 -35.5900002 0 0 0 2 8 1 0 0 0 10.8201933
4579 4 -30.7099991 -20.3700009 -37.1899986 0 0 0 4 6 5 0 0 0 12.747159
4615 2 -35.6500016 -20.0400009 -35.7099991 0 0 0 0 12 0 0 0 0 11.7995224
4665 5 -31.2700005 -26.9099998 -33.1100006 0 0 0 1 10 5 0 0 0 13.9083816
4761 5 -36.4799996 -26.0900002 -24.5499993 0 0 0 0 12 2 0 0 0 12.4712591
4808 2 -33.8600006 -6.0500002 -3.8380001 0 0 1 1 9 3 0 0 0 12.5762892
4821 4 -33.2400017 -41.2900009 -37.25 0 0 1 2 6 5 1 0 0 12.960391
4833 5 -31.5599995 -4.6139999 -20.4599991 0 0 0 1 10 2 0 0 0 12.0472336
4905 2 -33.9199982 -30.1800003 -26.75 0 0 0 2 8 4 0 0 0 12.5697356
4965 2 -34.2700005 -39.7700005 -39.0699997 0 0 0 2 8 2 0 0 0 10.6756954
5081 4 -32.25 -24.5 -20.7600003 0 0 0 2 9 3 1 0 0 12.9782124
5100 3 -38.2200012 -15.9300004 -28.0100002 0 0 0 1 10 2 0 0 0 11.5618382
5102 1 -38.8499986 -37.5999985 -10.2700005 0 0 0 3 6 4 0 0 0 11.8210478
5116 2 -37.1300011 -33.5900002 -40.619999 0 0 0 0 12 0 0 0 0 11.128603
5128 2 -36.6800003 -31.6800003 -36.75 0 0 1 2 7 2 0 0 0 10.9506856
5171 2 -34.4500008 -36.5800019 -40.6599999 0 0 0 1 10 2 0 0 0 11.8448286
5271 5 -39.5999985 -42.0600014 -1.2740001 0 0 0 1 12 1 0 0 0 12.243927
5312 1 -38.0400009 -24.2199993 -24.7299996 0 0 0 0 12 0 0 0 0 11.3004732
5347 5 -32.6100006 -1.859 -33.2400017 0 0 0 0 12 3 0 0 0 12.9326192
5484 5 -36.5999985 -11.6899996 -19.1000004 0 0 0 3 6 4 0 0 0 12.0294247
5493 2 -32.6500016 -32.5 -23.3999996 0 0 0 1 10 2 0 0 0 11.5490074
5529 5 -30.1200008 -7.0890002 -12.0900002 0 0 0 4 5 4 1 0 0 12.3616858
5531 4 -30.2999992 -9.6020003 -24.5100003 0 0 1 0 10 3 1 0 0 13.30935
5582 4 -35.9199982 -40.5699997 -2.5669999 0 0 0 4 8 1 0 0 0 12.4219809
5610 4 -32.2299996 -35.0900002 -41.1599999 0 0 1 3 5 5 0 0 0 12.4283324
5668 5 -36.869999 -12.1999998 -15.3900004 0 0 0 2 8 3 0 0 0 11.8249073
5689 5 -30.6000004 -1.8020001 -9.5459996 0 0 1 1 9 2 3 0 0 13.3792772
5722 2 -36.7799988 -11.6499996 -41.8100014 0 0 0 0 12 0 0 0 0 10.8956728
5725 4 -33.2700005 -16.1000004 -43.5699997 0 0 0 0 12 0 0 0 0 11.0878239
5730 2 -38.5999985 -28.9099998 -43.7400017 0 0 0 0 12 0 0 0 0 10.8065338
5741 2 -31.9699994 -34.25 -37.2000008 0 0 1 0 9 3 0 0 0 11.5177155
5815 4 -34.7099991 -3.0699999 -10.5 0 0 0 0 12 2 0 0 0 12.8850146
5858 5 -30.3099995 -22.5200005 -20.6299992 0 0 0 0 12 2 0 0 0 12.6472578
5867 2 -37.9300004 -25.3600006 -29.5300007 0 0 1 0 9 3 0 0 0 11.6686077
5881 5 -32.8800012 -36.9000016 -22.6100006 0 0 0 2 8 2 0 0 0 11.5576191
5961 2 -37.5 -40.9799996 -25.0400009 0 0 1 2 6 3 1 0 0 11.3404341
6051 2 -31.6499996 -18.1499996 -35.5 0 0 2 1 6 4 0 0 0 11.7029
6067 1 -37.8499986 -43.5999985 -14.2799997 0 0 0 0 12 0 0 0 0 11.8304854
6084 5 -31.5900002 -40.0800018 -13.1199999 0 0 0 0 12 0 0 0 0 11.0660305
6105 4 -32.6300011 -7.956 -34.7400017 0 0 2 2 6 4 0 0 0 11.6575203
6116 2 -30.2000008 -6.323 -32.7200012 0 0 1 2 7 4 0 0 0 11.9675628
6135 2 -36.8199997 -24.3999996 -20.3099995 0 0 0 3 6 4 0 0 0 11.3609581
6137 5 -34.1399994 -17.7299996 -9.9239998 0 0 0 1 10 2 0 0 0 12.8995304
6145 2 -30.6900006 -19.6100006 -39.5999985 0 0 0 2 8 2 0 0 0 11.7980633
6166 1 -38.4000015 -21.7999993 -38.9199982 0 0 1 2 7 2 0 0 0 11.4787197
6209 4 -31.2299996 -1.5 -42.2900009 0 0 2 4 6 3 0 0 0 12.3280859
6239 1 -36.9799996 -13.5299998 -4.7280002 0 0 0 4 4 1 2 0 0 10.5606737
6250 2 -33.6399994 -31.4300003 -13.2100001 0 0 0 0 12 0 0 0 0 11.6099911
6261 4 -34.75 -39.8499986 -7.5939999 0 0 0 1 10 2 0 0 0 12.4008951
6293 5 -39.25 -43.4099999 -16.8600006 0 0 0 0 12 2 0 0 0 13.3858509
6411 5 -37.869999 -29.7800007 -35.5999985 0 0 0 1 10 3 0 0 0 12.7019024
6422 4 -31.2900009 -33.5299988 -33.1300011 0 0 0 1 10 2 0 0 0 12.4963169
6456 4 -32.3300018 -3.135 -38.9099998 0 0 1 4 4 5 1 0 0 12.9482536
6458 4 -38.7400017 -35.5 -32.9399986 0 0 0 1 10 4 0 0 0 13.1451197
6541 4 -35.7900009 -2.625 -33.5200005 0 0 0 1 10 5 0 0 0 12.365118
6566 2 -35.4900017 -37.0200005 -10.7399998 0 0 0 2 8 4 0 0 0 12.5760927
6666 4 -35.5999985 -23.3799992 -25.1200008 0 0 0 2 8 4 0 0 0 13.2345991
6668 4 -30.3099995 -3.451 -26.6000004 0 0 0 1 12 1 0 0 0 12.3108959
6718 4 -35.9099998 -13.6999998 -17.2199993 0 0 0 2 10 2 0 0 0 13.0846643
6780 2 -34.7799988 -17.8899994 -40.5099983 0 0 0 0 12 0 0 0 0 11.3911104
6785 4 -36.6100006 -16.1000004 -39.5800019 0 0 0 1 10 4 0 0 0 12.6828575
6790 4 -34.6500016 -3.494 -39.8499986 0 0 0 0 12 4 0 0 0 13.7467346
6855 5 -30.9099998 -3.8239999 -16.2399998 0 0 0 3 6 6 0 0 0 11.9832048
6895 4 -31.9699994 -23.6499996 -31.8999996 0 0 0 1 10 5 0 0 0 13.496337
6917 5 -34.5 -39.2099991 -30.4799996 0 0 0 1 12 2 0 0 0 12.4428549
6949 4 -30.0599995 -10.7299996 -36.3899994 0 0 1 2 7 6 0 0 0 14.2693033
6997 2 -35.7099991 -25.8700008 -28.4599991 0 0 1 1 7 5 0 0 0 11.6422453
7002 4 -33.3100014 -32.0699997 -28.7199993 0 0 3 1 8 3 1 0 0 13.356698
7003 4 -35.7999993 -27.0900002 -7.8340001 0 0 0 1 12 1 0 0 0 12.685277
7008 4 -38.8800012 -42.4099999 -26.5100003 0 0 1 1 9 4 0 0 0 12.570755
7065 5 -33.2599983 -7.2010002 -1.5340001 0 0 1 2 7 4 2 0 0 12.5468283
7095 4 -34.619999 -2.8039999 -1.509 0 0 0 0 12 2 0 0 0 12.3203583
7111 4 -32.1500015 -40.7999993 -10.6999998 0 0 2 0 10 2 2 0 0 12.4991122
7118 2 -38.4099999 -19.9699994 -9.073 0 0 0 0 12 0 0 0 0 10.848323
7128 4 -39.1199989 -32.0200005 -36.3699989 0 0 0 2 8 5 0 0 0 12.5497856
7172 1 -31.5699997 -3.1129999 -18.5 0 0 0 1 10 3 0 0 0 11.7760906
7188 1 -31.2700005 -34.2799988 -12.1700001 0 0 0 3 6 4 0 0 0 10.9904796
7195 5 -29.7900009 -4.2059999 -30.9699994 0 0 0 2 8 3 0 0 0 12.0815392
7203 1 -37.9399986 -28.1299992 -21.0200005 0 0 1 0 11 1 0 0 0 11.6260519
7236 2 -34.8600006 -6.04 -43.5400009 0 0 0 0 12 0 0 0 0 11.3552742
7261 2 -32.7000008 -5.7100001 -18.3999996 0 0 0 3 8 3 0 0 0 11.9862652
7276 4 -36.3100014 -41.4399987 -9.5279999 0 0 0 0 12 4 0 0 0 13.5250778
7332 2 -35.9000016 -22.0900002 -19.5200005 0 0 0 1 10 2 0 0 0 12.1137495
7372 2 -31.6200009 -21.6200009 -4.698 0 0 0 3 8 1 0 0 0 11.1493311
7380 5 -33.4199982 -9.1940003 -32.6899987 0 0 0 6 4 4 0 0 0 12.2456169
7388 1 -36.7099991 -14.3400002 -35.6300011 0 0 0 2 8 2 0 0 0 11.4134693
7435 2 -36.5699997 -2.4260001 -39.0900002 0 0 1 2 8 2 1 0 0 12.3870993
7455 5 -34.9199982 -8.3529997 -5.7080002 0 0 1 1 9 3 0 0 0 13.2106629
7500 4 -37.7999993 -25.7000008 -32.2299996 0 0 0 1 10 5 0 0 0 13.3498335
7546 5 -31.6700001 -8.8739996 -15.9700004 0 0 0 1 10 3 0 0 0 12.077796
7562 2 -34.3600006 -31.5300007 -36.8300019 0 0 0 0 12 0 0 0 0 10.94205
7615 4 -36.75 -23.5699997 -33.4900017 0 0 1 3 5 5 0 0 0 12.4393778
7630 4 -30.5599995 -2.0680001 -14.5500002 0 0 0 0 12 3 0 0 0 13.1387367
7683 4 -35.2299996 -12.79 -37.0499992 0 0 0 3 8 3 0 0 0 12.5105496
7693 4 -34.9799996 -13.1099997 -29.8400002 0 0 0 2 8 4 0 0 0 12.046524
7730 5 -38.9300004 -36.4599991 -26.2999992 0 0 1 2 8 2 1 0 0 12.3357897
7751 2 -35.7099991 -17.4300003 -6.0960002 0 0 0 0 12 0 0 0 0 10.9090282
7917 4 -33.8899994 -4.355 -24.7099991 0 0 0 0 12 0 0 0 0 10.6970234
7923 4 -30.3700009 -19.0900002 -41.9500008 0 0 0 2 5 4 1 0 0 11.8248654
7941 2 -31.9099998 -15.8000002 -5.8410002 0 0 0 0 12 0 0 0 0 11.3888569
7955 2 -29.6000004 -8.0790005 -3.208 0 0 0 2 8 3 0 0 0 11.8775616
8011 4 -38.6899987 -41.3499985 -29.1200008 0 0 0 2 8 4 0 0 0 13.4965201
8036 2 -35.0999985 -32.6800003 -34.8300019 0 0 0 3 8 2 0 0 0 11.382678
8049 4 -35.0800018 -16.0 -23.3500004 0 0 0 2 10 3 0 0 0 12.677989
8104 5 -32.3699989 -30.3299999 -9.4940005 0 0 1 4 4 5 1 0 0 12.1831942
8114 4 -29.5 -10.6599999 -1.773 0 0 1 1 8 3 1 0 0 13.1872292
8147 4 -38.3600006 -26.3400002 -43.3100014 0 0 0 0 12 3 0 0 0 12.2301865
8157 4 -34.0600014 -29.2900009 -42.3800011 0 0 0 2 10 2 0 0 0 12.489667
8176 5 -36.1399994 -38.9500008 -23.4799996 0 0 1 3 5 3 2 0 0 12.5956993
8189 4 -36.6399994 -17.6599999 -26.5400009 0 0 0 4 4 3 1 0 0 11.9979506
8209 2 -35.6500016 -42.0400009 -18.9799996 0 0 0 2 10 0 0 0 0 11.8150835
8325 2 -38.2999992 -19.6800003 -13.2700005 0 0 0 4 8 1 0 0 0 11.8209057
8366 5 -37.9300004 -18.8500004 -15.9799996 0 0 0 3 8 4 0 0 0 13.0618725
8375 4 -33.6300011 -40.8300019 -19.4899998 0 0 0 2 8 2 0 0 0 11.0849943
8390 4 -35.7299996 -18.9200002 -12.0500002 0 0 0 0 12 4 0 0 0 12.9489766
8399 5 -32.1300011 -21.7999993 -8.3610001 0 0 0 1 10 3 0 0 0 13.0618305
8467 5 -34.8400002 -37.5 -35.4500008 0 0 1 4 2 8 1 0 0 12.7293968
8521 4 -33.2799988 -18.0300007 -6.0539999 0 0 0 1 10 3 0 0 0 12.4026356
8557 2 -33.7900009 -20.1200008 -23.3899994 0 0 0 2 8 2 0 0 0 10.7984152
8656 4 -37.1899986 -43.619999 -36.7299996 0 0 0 2 12 1 0 0 0 13.14923
8691 4 -38.2599983 -20.7700005 -35.5900002 0 0 1 3 6 5 1 0 0 12.8217268
8716 2 -33.1300011 -41.1699982 -6.5300002 0 0 1 0 11 1 0 0 0 11.723876
8733 2 -36.1399994 -0.2404 -35.1199989 0 0 0 2 8 2 0 0 0 11.4566088
8745 5 -30.1100006 -3.7490001 -42.9500008 0 0 0 3 6 3 0 0 0 11.4266691
8763 4 -34.0900002 -24.3099995 -15.9499998 0 0 0 1 12 2 0 0 0 13.318696
8776 4 -32.9099998 -20.3700009 -27.8899994 0 0 0 2 8 4 0 0 0 12.2889328
8802 4 -35.2700005 -7.2709999 -33.2999992 0 0 0 2 8 4 0 0 0 12.1255236
8818 2 -35.6599999 -27.0100002 -5.1570001 0 0 0 1 10 2 0 0 0 12.1883879
8868 4 -31.4799996 -13.8400002 -20.5300007 0 0 0 2 10 3 0 0 0 13.2312794
8879 4 -34.5999985 -20.3899994 -29.6599999 0 0 0 5 3 4 1 0 0 12.4601546
8895 1 -31.9799996 -7.81 -24.2700005 0 0 0 0 12 0 0 0 0 11.3655701
8939 5 -34.9700012 -17.7299996 -19.6599999 0 0 0 2 8 2 0 0 0 11.3087158
8976 4 -33.8899994 -7.737 -15.0299997 0 0 0 1 10 4 0 0 0 13.4786129
8978 5 -32.2900009 -35.1300011 -34.7700005 0 0 0 4 4 7 0 0 0 12.1573191
9021 5 -37.0499992 -7.0289998 -21.3700009 0 0 1 2 7 5 2 0 0 13.385994
9028 2 -31.5699997 -25.1599999 -16.7199993 0 0 1 0 11 1 0 0 0 11.0329218
9077 4 -35.2900009 -36.869999 -22.2299996 0 0 0 4 6 4 0 0 0 12.45471
9167 5 -30.7199993 -1.737 -40.0200005 0 0 0 1 10 2 0 0 0 11.8581238
9255 5 -35.7299996 -22.9300004 -42.0900002 0 0 0 2 10 0 0 0 0 11.6709051
9291 5 -30.3600006 -4.4229999 -40.5499993 0 0 2 4 5 3 1 0 0 12.4549208
9322 5 -32.3100014 -19.3999996 -30.5900002 0 0 0 3 6 4 0 0 0 12.3114557
9389 3 -37.9599992 -37.8199997 -33.7200012 0 0 2 3 3 3 3 0 0 12.1740646
9405 2 -35.7900009 -2.5850001 -29.0499992 0 0 0 1 10 2 0 0 0 12.1532879
9471 4 -38.6500016 -23.3199997 -19.5699997 0 0 0 2 8 4 0 0 0 12.3929253
9481 2 -31.6000004 -39.4700012 -19.8899994 0 0 0 1 10 2 0 0 0 11.877947
9504 4 -32.9500008 -22.7800007 -27.8999996 0 0 0 2 8 4 0 0 0 12.2939596
9539 2 -31.3199997 -6.178 -9.7159996 0 0 0 4 6 2 0 0 0 10.6228609
9579 4 -34.6100006 -10.6599999 -30.75 0 0 0 1 10 2 0 0 0 12.478281
9615 3 -31.7399998 -37.6899987 -6.8299999 0 0 0 1 10 2 0 0 0 12.2356892
9689 4 -31.5400009 -36.9900018 -20.5599995 0 0 0 3 6 5 0 0 0 12.57691
9694 4 -31.9699994 -37.6100006 -35.0999985 0 0 0 1 10 2 0 0 0 11.6525231
9713 4 -36.4799996 -24.0400009 -2.0450001 0 0 0 0 12 0 0 0 0 11.8639508
9738 5 -31.4099999 -15.8800002 -32.4599991 0 0 1 1 9 3 0 0 0 12.4559393
9748 2 -33.8100014 -17.6599999 -14.1000004 0 0 0 0 12 0 0 0 0 12.0419598
9766 4 -30.8799992 -13.6099997 -5.579 0 0 0 0 12 0 0 0 0 11.13729
9781 3 -33.4799996 -27.7199993 -34.1699982 0 0 0 1 10 4 0 0 0 12.9472094
9789 5 -32.4399987 -3.24 -0.2618 0 0 0 0 12 0 0 0 0 11.5575571
9825 4 -29.8500004 -1.662 -5.921 0 0 2 1 8 2 2 0 0 12.4874611
9827 2 -34.5 -37.1599999 -26.7999993 0 0 0 1 10 3 0 0 0 11.6834898
9835 4 -37.0 -38.6100006 -0.8604 0 0 0 3 6 6 0 0 0 13.2665424
9856 4 -30.9500008 -23.0499992 -38.4000015 0 0 1 4 5 2 2 0 0 12.8402482
9865 5 -38.1500015 -25.4599991 -12.3500004 0 0 0 2 8 4 0 0 0 13.1938715
9888 5 -37.5999985 -41.2700005 -17.8899994 0 0 0 0 12 2 0 0 0 12.5954352
9900 4 -34.8300019 -6.7719999 -12.7399998 0 0 1 1 9 3 0 0 0 12.4999247
9913 5 -38.5800019 -32.3199997 -25.4699993 0 0 1 2 9 3 0 0 0 12.4884272
10034 5 -32.7900009 -12.5100003 -30.8099995 0 0 0 4 4 6 0 0 0 12.5957966
10064 5 -30.1900005 -12.1099997 -30.4200001 0 0 0 4 6 3 0 0 0 12.1587
10099 2 -30.8099995 -0.8005 -11.8500004 0 0 1 2 8 2 1 0 0 11.7344485
10104 2 -35.4900017 -30.7700005 -20.4799996 0 0 0 2 8 3 0 0 0 11.79352
10140 5 -32.8499986 -1.298 -10.9399996 0 0 1 2 5 4 0 0 0 11.892231
10216 4 -39.2099991 -34.9500008 -5.8249998 0 0 0 1 10 5 0 0 0 12.8732482
10262 4 -32.5499993 -43.2299996 -1.925 0 0 0 2 8 4 0 0 0 12.5019226
10263 5 -39.6100006 -36.9399986 -41.1300011 0 0 0 4 8 2 0 0 0 12.1440878
10320 5 -31.8500004 -2.8299999 -5.0700002 0 0 0 1 10 2 0 0 0 11.6185951
10347 5 -38.2999992 -36.1599999 -28.6900006 0 0 0 1 10 2 0 0 0 11.6721716
10395 4 -30.3099995 -5.2100001 -18.1499996 0 0 0 2 8 4 0 0 0 12.2583075
10447 2 -33.9900018 -6.0890002 -35.1199989 0 0 1 4 4 3 1 0 0 11.1449375
10471 5 -30.0300007 -6.9330002 -5.619 0 0 0 2 8 4 0 0 0 12.5468378
10575 4 -32.6100006 -5.547 -39.1699982 0 0 0 2 8 4 0 0 0 12.5642863
10637 5 -31.8099995 -34.869999 -14.4499998 0 0 0 1 10 2 0 0 0 11.9519176
10693 1 -34.1800003 -15.8900004 -4.9580002 0 0 0 0 12 0 0 0 0 11.0923414
10721 5 -32.4099999 -43.6300011 -41.2400017 0 0 0 0 12 2 0 0 0 11.6712513
10764 5 -36.7999993 -27.3700009 -30.0799999 0 0 1 2 6 3 1 0 0 11.8743192
10812 4 -39.4700012 -35.3499985 -1.18 0 0 0 1 12 1 0 0 0 12.6009569
10820 2 -39.3699989 -37.2700005 -43.5800019 0 0 0 2 8 2 0 0 0 11.3939543
10959 2 -31.8899994 -3.3440001 -24.5699997 0 0 0 0 12 0 0 0 0 10.6131363
11032 1 -36.8199997 -21.5100003 -29.1399994 0 0 0 2 8 2 0 0 0 11.2593937
11079 5 -38.3600006 -30.6599999 -12.6000004 0 0 0 2 8 4 0 0 0 12.503521
11122 3 -36.3899994 -40.7400017 -12.2299996 0 0 0 2 8 3 0 0 0 11.944975
11135 5 -33.7700005 -31.5699997 -4.2750001 0 0 0 2 10 3 0 0 0 12.976719
11155 5 -36.1199989 -18.4599991 -14.5299998 0 0 0 2 10 1 0 0 0 11.6918812
11160 4 -31.6100006 -26.3500004 -18.9699994 0 0 1 3 5 6 0 0 0 12.840418
11311 5 -36.5600014 -8.7749996 -36.7900009 0 0 0 0 12 0 0 0 0 10.7376938
11397 4 -33.2000008 -35.8100014 -10.6800003 0 0 1 1 9 3 0 0 0 12.6294565
11437 5 -35.9199982 -7.7020002 -41.7400017 0 0 1 1 9 2 2 0 0 12.3059797
11441 4 -32.3499985 -3.6400001 -41.6100006 0 0 0 4 5 4 1 0 0 12.3173227
11482 2 -30.8799992 -9.25 -20.25 0 0 0 2 8 1 0 0 0 11.1463308
11573 2 -31.3099995 -27.8199997 -13.9399996 0 0 0 2 8 2 0 0 0 11.8998328
11580 5 -33.75 -14.7399998 -14.0600004 0 0 0 4 4 7 0 0 0 12.8358622
11628 5 -39.2099991 -39.0900002 -16.5499993 0 0 0 1 12 2 0 0 0 12.7001839
11667 5 -30.7800007 -19.4799996 -28.7800007 0 0 1 1 9 3 0 0 0 11.9204454
11721 5 -30.9799996 -5.842 -34.8899994 0 0 2 2 8 1 2 0 0 12.895649
11736 4 -33.75 -43.0400009 -20.4799996 0 0 0 1 10 2 0 0 0 11.8832484
11766 1 -34.2400017 -23.4699993 -33.0600014 0 0 1 2 7 4 0 0 0 12.37778
11945 4 -36.6100006 -34.5400009 -31.6000004 0 0 0 1 10 2 0 0 0 11.3731852
11966 5 -30.7600003 -15.8100004 -11.6000004 0 0 0 1 10 2 0 0 0 11.5381565
12086 2 -37.2200012 -3.9530002 -9.0349998 0 0 1 2 9 2 0 0 0 12.1780644
12093 5 -31.3199997 -15.29 -38.4700012 0 0 0 3 6 6 0 0 0 12.9062252
12119 2 -35.9099998 -8.809 -39.2299996 0 0 0 0 12 2 0 0 0 12.0145826
12145 3 -38.5299988 -39.5999985 -8.934 0 0 0 2 8 4 0 0 0 13.012496
12195 2 -37.8800012 -33.9399986 -19.5300007 0 0 0 0 12 0 0 0 0 11.4296007
12216 5 -38.5299988 -38.9700012 -6.4499998 0 0 0 3 6 5 0 0 0 12.6797095
12263 4 -32.0099983 -10.0699997 -18.3799992 0 0 2 1 8 4 0 0 0 12.284811
12264 5 -33.4099999 -26.0900002 -37.9500008 0 0 0 0 12 0 0 0 0 11.613287
12306 3 -35.3800011 -6.1220002 -39.4700012 0 0 0 2 10 1 0 0 0 12.5512352
12354 5 -30.5799999 -0.7862 -34.6300011 0 0 0 0 12 0 0 0 0 11.0644703
12375 5 -30.3299999 -12.75 -14.5900002 0 0 0 3 6 2 2 0 0 11.4833384
12436 5 -34.1599999 -22.7700005 -2.013 0 0 0 2 8 4 0 0 0 11.8364268
12445 4 -34.1899986 -15.79 -2.468 0 0 0 0 12 3 0 0 0 13.3091755
12514 2 -35.6399994 -24.9699994 -11.4300003 0 0 1 3 5 5 0 0 0 12.3163099
12533 2 -34.9599992 -18.8700008 -7.704 0 0 0 0 12 0 0 0 0 11.5887318
12541 4 -36.4900017 -32.3100014 -30.0400009 0 0 1 1 9 4 0 0 0 12.1368952
12632 4 -33.2799988 -33.5699997 -9.8979998 0 0 0 3 8 2 2 0 0 12.6872502
12724 2 -36.1800003 -33.9500008 -25.2000008 0 0 0 1 10 2 0 0 0 11.8842688
12746 4 -32.3100014 -27.9799996 -10.2799997 0 0 0 3 6 6 0 0 0 12.7311325
12802 5 -35.2200012 -24.2399998 -4.4270001 0 0 1 1 9 4 0 0 0 13.0458174
12855 4 -35.3499985 -18.3400002 -24.2900009 0 0 0 1 9 2 1 0 0 11.7069245
12919 4 -35.3100014 -12.2399998 -13.0900002 0 0 0 3 6 7 0 0 0 12.9755182
12948 5 -31.8799992 -42.0099983 -4.1030002 0 0 0 3 7 3 1 0 0 12.797102
12955 1 -35.9799996 -20.0900002 -22.5599995 0 0 0 0 12 0 0 0 0 11.1195917
12983 3 -38.2200012 -28.2700005 -7.9510002 0 0 0 1 10 2 0 0 0 12.0435419
13030 2 -37.4500008 -37.0200005 -14.5500002 0 0 2 4 2 4 2 0 0 12.1019192
13056 2 -37.5299988 -26.7800007 -14.7799998 0 0 0 1 10 3 0 0 0 11.9319296
13068 4 -37.5699997 -29.8099995 -29.3700009 0 0 0 1 10 2 0 0 0 11.7189665
13122 5 -34.0200005 -5.0159998 -37.3800011 0 0 1 4 3 4 2 0 0 12.6065817
13134 3 -32.4900017 -0.5587001 -1.3350001 0 0 0 3 8 5 0 0 0 13.0929546
13190 3 -35.9099998 -8.2360001 -16.4400006 0 0 0 1 10 3 0 0 0 12.369647
13198 4 -35.6500016 -21.1000004 -33.3899994 0 0 1 1 9 3 0 0 0 12.3206158
13212 5 -32.8899994 -12.2700005 -43.5200005 0 0 0 3 6 5 0 0 0 12.0354958
13234 2 -36.5999985 -14.3100004 -28.9099998 0 0 0 1 10 2 0 0 0 11.5837965
13240 5 -34.1800003 -35.0299988 -25.8799992 0 0 0 3 8 2 0 0 0 11.8805982
13268 2 -29.8999996 -14.6999998 -1.5900001 0 0 0 3 5 3 1 0 0 11.6052046
13354 2 -35.1300011 -17.6299992 -35.6100006 0 0 2 1 8 3 0 0 0 12.1881857
13375 5 -36.0 -7.7059999 -23.4899998 0 0 0 3 8 3 0 0 0 13.0504475
13381 4 -35.9900018 -38.5600014 -40.6599999 0 0 0 3 6 4 0 0 0 11.9319964
13414 4 -31.1700001 -11.1899996 -28.4099999 0 0 0 1 10 2 0 0 0 11.9042816
13435 4 -37.0200005 -2.3429999 -36.4300003 0 0 1 4 6 4 1 0 0 12.9894534
13449 4 -32.5600014 -13.8900004 -11.5500002 0 0 0 3 6 7 0 0 0 13.0169296
13532 2 -32.2200012 -2.918 -2.5190001 0 0 0 0 12 0 0 0 0 11.0946026
13540 5 -37.4099999 -15.5100003 -22.1100006 0 0 0 2 8 3 0 0 0 11.8661748
13576 4 -37.1199989 -5.8369999 -27.1000004 0 0 0 3 6 5 0 0 0 12.0367374
13639 5 -33.9199982 -38.6100006 -20.8799992 0 0 1 0 11 3 0 0 0 12.2390976
13640 2 -33.3499985 -14.6300001 -22.0599995 0 0 0 4 6 1 0 0 0 11.3287287
13652 5 -32.6100006 -14.1099997 -42.2400017 0 0 0 3 6 4 0 0 0 11.7248211
13813 4 -38.0699997 -40.2099991 -32.8499986 0 0 0 2 6 4 0 0 0 12.5357428
13847 4 -36.9799996 -28.3199997 -23.1200008 0 0 0 0 12 0 0 0 0 11.2388935
13869 4 -37.5499993 -41.0400009 -20.3799992 0 0 0 1 10 4 0 0 0 12.9744606
13896 4 -37.1100006 -20.9400006 -11.1000004 0 0 0 1 12 2 0 0 0 12.2748461
13925 5 -39.9300004 -43.5699997 -7.422 0 0 0 3 7 4 1 0 0 12.2825365
13947 4 -34.4199982 -9.007 -28.7900009 0 0 0 3 8 4 0 0 0 12.949894
14028 5 -33.5900002 -35.6500016 -20.4599991 0 0 1 1 9 4 0 0 0 12.9272796
14054 4 -32.2599983 -34.3199997 -29.2000008 0 0 0 2 8 2 0 0 0 11.5258913
14062 2 -36.2400017 -7.3600001 -28.9699994 0 0 0 4 4 7 0 0 0 11.5913315
14081 4 -30.8299999 -11.0500002 -22.1200008 0 0 1 2 9 2 2 0 0 13.3729677
14105 4 -36.7799988 -41.5900002 -27.2900009 0 0 0 3 5 4 1 0 0 11.8133288
14114 2 -30.2600002 -17.3999996 -27.7000008 0 0 0 2 8 1 0 0 0 11.0621386
14135 2 -37.0299988 -20.1299992 -26.8700008 0 0 0 3 6 3 0 0 0 11.0345116
14149 2 -33.0400009 -17.6399994 -23.8199997 0 0 0 2 8 3 0 0 0 11.2701683
14166 2 -30.5 -21.7299996 -18.0599995 0 0 0 0 12 0 0 0 0 10.7159691
14187 4 -32.4399987 -12.5100003 -26.5200005 0 0 1 3 5 5 0 0 0 12.1343613
14195 2 -30.8799992 -26.3799992 -7.7800002 0 0 0 3 6 4 0 0 0 11.5597344
14228 2 -31.0900002 -33.7900009 -39.4599991 0 0 1 3 4 4 1 0 0 11.8245182
14248 5 -33.2200012 -35.1500015 -39.0299988 0 0 0 3 6 4 0 0 0 11.827447
14416 2 -34.7799988 -38.9000016 -3.615 0 0 0 3 6 1 0 0 0 10.6815329
14438 5 -38.2599983 -38.619999 -24.7399998 0 0 1 1 8 3 1 0 0 13.4185953
14460 2 -35.9799996 -23.3999996 -39.3499985 0 0 3 2 6 2 3 0 0 12.4484635
14501 5 -35.5600014 -40.9000016 -32.9599992 0 0 0 1 9 3 1 0 0 12.4089537
14619 4 -35.75 -21.7399998 -0.4519 0 0 0 2 8 6 0 0 0 13.7172356
14650 5 -31.7600003 -7.5619998 -3.935 0 0 1 3 4 5 1 0 0 12.5107613
14700 4 -31.4300003 -16.5200005 -1.6540001 0 0 1 1 9 3 0 0 0 12.3987875
14741 5 -31.4099999 -0.05263 -29.9799996 0 0 0 3 6 6 0 0 0 12.118763
14754 2 -37.1100006 -6.875 -37.9199982 0 0 0 0 12 0 0 0 0 11.052887
14807 4 -32.3199997 -14.3800001 -3.6900001 0 0 0 2 8 5 0 0 0 12.7845469
14828 2 -36.0800018 -38.8899994 -5.8049999 0 0 0 3 8 2 0 0 0 11.9062148
14841 2 -39.2000008 -38.0800018 -31.75 0 0 0 4 6 0 2 0 0 12.2813206
14860 2 -33.1800003 -14.79 -26.3500004 0 0 0 4 4 3 0 0 0 12.0473394
14899 1 -38.3400002 -40.7900009 -43.5499993 0 0 0 3 6 3 0 0 0 12.1842203
14900 2 -37.8600006 -36.9399986 -16.9400006 0 0 1 3 5 2 2 0 0 12.232378
14935 4 -34.5299988 -26.0900002 -25.9699994 0 0 0 1 10 5 0 0 0 13.6085177
14961 2 -31.5300007 -30.3700009 -23.4200001 0 0 0 2 8 4 0 0 0 11.7758408
14991 2 -37.3800011 -18.0400009 -4.4070001 0 0 0 2 7 3 1 0 0 12.1230726
15054 4 -36.5999985 -43.4099999 -16.6399994 0 0 0 2 12 0 0 0 0 13.1509543
15101 5 -31.8400002 -29.5400009 -33.1899986 0 0 0 0 12 0 0 0 0 11.9274416
15148 5 -33.1899986 -30.4400006 -34.9700012 0 0 0 2 8 2 0 0 0 11.0379543
15270 5 -32.8600006 -36.6899987 -16.2099991 0 0 0 0 12 2 0 0 0 12.6063929
15279 4 -36.5200005 -23.9799996 -22.8799992 0 0 0 2 8 2 0 0 0 10.9702196
15284 5 -29.8199997 -4.4050002 -9.7080002 0 0 0 3 8 2 0 0 0 11.1812706
15361 5 -33.1100006 -9.809 -43.4500008 0 0 0 4 6 3 0 0 0 12.2942572