ITEM: TIMESTEP
0
ITEM: NUMBER OF ATOMS
50688
ITEM: BOX BOUNDS xy xz yz pp pp pp
-40.1340523 47.84338 7.7093292
-43.8030052 43.8030052 0.0
-43.7915344 43.7915344 0.0
ITEM: ATOMS id type x y z VoronoiIndex1 VoronoiIndex2 VoronoiIndex3 VoronoiIndex4 VoronoiIndex5 VoronoiIndex6 VoronoiIndex7 VoronoiIndex8 VoronoiIndex9 AtomicVolume
2 2 -12.7399998 -19.6100006 -10.0 0 0 0 2 8 4 0 0 0 12.3014174
4 2 -29.1000004 -20.75 -19.4799996 0 0 0 0 12 0 0 0 0 11.4990082
15 4 -7.2659998 -26.3899994 -21.6599999 0 0 1 1 9 3 0 0 0 11.7416315
23 2 -15.4600001 -31.8400002 -14.1000004 0 0 0 1 10 3 0 0 0 12.7502442
32 5 -36.7299996 -21.9699994 -35.5800019 0 0 0 5 6 4 0 0 0 12.9767476
33 1 -13.1199999 -5.4780002 -27.0599995 0 0 0 0 12 0 0 0 0 11.0167341
39 4 -22.0900002 -34.0299988 -41.9399986 0 0 0 0 12 3 0 0 0 13.6493645
45 4 -3.3020001 -15.3900004 -15.5799999 0 0 0 0 12 0 0 0 0 10.9623662
46 4 -28.8400002 -11.7200003 -42.9700012 0 0 0 1 10 2 0 0 0 11.9416876
68 4 -12.6199999 -9.7469998 -9.4589997 0 0 0 1 10 2 0 0 0 12.3365717
88 5 -31.2399998 -30.6100006 -0.7008 0 0 0 2 8 3 0 0 0 11.329504
90 4 -11.79 -43.2700005 -35.8400002 0 0 1 4 3 7 0 0 0 12.4851408
93 2 -33.7799988 -19.5 -25.6000004 0 0 0 4 4 5 0 0 0 11.7118016
97 5 -22.0 -8.632 -0.4528 0 0 0 2 8 5 0 0 0 12.6875181
106 4 -10.8599998 -32.7799988 -3.0769999 0 0 0 1 10 2 0 0 0 12.3638983
109 4 -32.3400002 -10.0500002 -26.1900005 0 0 0 1 10 5 0 0 0 12.8198624
114 2 -8.6949997 -40.3600006 -6.889 0 0 0 4 5 2 1 0 0 10.8653518
118 2 -2.753 -35.5699997 -30.4300003 0 0 0 0 12 0 0 0 0 11.0280161
119 4 -33.1399994 -22.2399998 -19.4099999 0 0 0 1 12 2 0 0 0 12.5137139
122 4 0.5352 -35.5400009 -32.9900018 0 0 0 1 12 2 0 0 0 12.7620363
141 4 -20.2600002 -10.96 -40.1699982 0 0 0 2 10 3 0 0 0 12.5586596
162 4 -3.458 -14.0299997 -34.5400009 0 0 0 0 12 2 0 0 0 12.2535601
164 1 -6.6199999 -8.1680002 -40.3499985 0 0 0 1 10 2 0 0 0 11.7774153
169 1 -0.7099 -12.8999996 -18.7999993 0 0 0 1 10 2 0 0 0 11.6221142
174 5 0.9535 -8.6569996 -29.7199993 0 0 1 2 9 3 0 0 0 12.8481198
187 4 0.9442 -11.1899996 -21.8799992 0 0 1 2 7 1 2 0 0 11.7182284
199 1 -5.947 -31.5 -27.7299996 0 0 0 5 6 2 0 0 0 11.7004214
211 2 -35.6599999 -24.7000008 -37.3899994 0 0 0 2 10 1 0 0 0 11.3173733
223 2 -2.622 -37.7099991 -23.1900005 0 0 0 2 9 2 0 0 0 11.852376
227 4 -16.8199997 -6.5560003 -28.7000008 0 0 0 1 12 2 0 0 0 13.1283255
237 2 -12.7200003 -38.4599991 -34.1699982 0 0 0 0 12 0 0 0 0 12.1713324
253 5 -2.6240001 -4.836 -34.8800012 0 0 0 4 4 6 0 0 0 12.6396351
254 4 -6.2779999 -25.7800007 -4.4000001 0 0 1 4 5 3 2 0 0 12.3897123
258 2 -5.7430001 -37.2700005 -41.8400002 0 0 2 2 5 4 1 0 0 11.8002424
259 5 -2.932 -37.1100006 -34.8400002 0 0 0 0 12 0 0 0 0 11.8471708
265 5 -33.8300019 -21.9300004 -25.5900002 0 0 0 3 6 4 0 0 0 11.8205605
275 5 -34.2200012 -21.2299996 -32.25 0 0 0 2 8 4 0 0 0 12.4067021
286 3 -13.0600004 -33.3400002 -23.4400006 0 0 0 2 10 3 0 0 0 12.7012787
290 4 -38.7999993 -42.8199997 -3.316 0 0 1 2 7 5 0 0 0 12.3053036
293 5 -19.3099995 -8.4779997 -43.7000008 0 0 0 4 6 3 0 0 0 12.4742003
297 5 -19.3999996 -8.2770004 -20.3799992 0 0 1 2 7 5 0 0 0 12.2841854
306 1 -0.348 -17.3199997 -1.143 0 0 0 0 12 0 0 0 0 11.1501303
326 4 -23.5699997 -23.2999992 -10.0600004 0 0 0 4 6 4 0 0 0 12.1907387
329 2 -38.2700005 -25.8299999 -8.0749998 0 0 0 2 10 0 0 0 0 12.1486712
338 5 -24.6800003 -33.9000016 -30.3199997 0 0 0 3 6 4 0 0 0 11.2961435
339 4 -1.673 -39.0800018 -10.8299999 0 0 0 3 8 4 0 0 0 13.8546028
349 4 -23.2199993 -41.9000016 -16.4200001 0 0 0 4 10 1 0 0 0 13.1506519
350 4 -33.3100014 -14.3800001 -37.3800011 0 0 0 1 9 2 1 0 0 12.1064253
364 4 -5.04 -21.5699997 -42.3100014 0 0 0 3 8 4 0 0 0 13.6684113
387 3 -15.9399996 -23.8899994 -33.4399987 0 0 0 3 6 4 0 0 0 11.5652972
397 1 -6.8249998 -27.0100002 -26.4699993 0 0 1 2 7 2 0 0 0 11.510458
403 4 -33.9500008 -33.1899986 -14.7600003 0 0 1 5 4 3 1 0 0 12.5214234
414 4 -11.5 -0.8863 -7.6350003 0 0 0 0 12 2 0 0 0 12.0062809
415 4 -13.2399998 -3.0339999 -27.2299996 0 0 1 0 11 3 0 0 0 12.7710152
423 2 -28.5900002 -13.0299997 -26.2299996 0 0 1 0 9 3 0 0 0 12.3940067
424 3 -20.9400006 -37.7299996 -30.2199993 0 0 0 2 8 5 0 0 0 12.5701847
440 2 -9.4200001 -31.0200005 -36.7799988 0 0 1 4 4 4 1 0 0 12.772378
458 1 -34.75 -28.2399998 -38.8400002 0 0 0 0 12 0 0 0 0 10.0514574
461 2 -20.6499996 -0.9119 -6.2090001 0 0 0 2 8 2 0 0 0 11.8244791
469 2 -7.184 -15.6300001 -6.995 0 0 0 3 6 4 0 0 0 11.3829851
477 2 -17.7299996 -19.2999992 -26.3899994 0 0 0 2 10 2 0 0 0 12.0912313
478 5 -12.6400004 -10.0699997 -32.2999992 0 0 0 2 8 5 0 0 0 12.6683102
483 4 -9.8249998 -7.0640001 -30.7600003 0 0 1 0 11 1 0 0 0 11.5171185
485 4 -15.0200005 -16.8700008 -4.197 0 0 0 2 8 4 0 0 0 12.5887308
495 4 -32.25 -25.1900005 -1.702 0 0 1 1 8 3 1 0 0 11.8327427
497 5 -2.2880001 -38.0999985 -42.7799988 0 0 1 0 11 1 0 0 0 11.896883
508 4 -21.3500004 -23.4300003 -14.2100001 0 0 1 2 7 4 2 0 0 13.4269581
511 4 -19.4599991 -23.1499996 -36.1199989 0 0 0 2 8 4 0 0 0 12.0636053
514 2 -14.2100001 -25.0900002 -39.5499993 0 0 0 3 8 3 0 0 0 11.6533718
537 5 -19.3999996 -19.2199993 -14.2100001 0 0 0 2 9 1 1 0 0 11.8081904
544 3 -30.8799992 -12.6899996 -39.25 0 0 0 2 8 1 2 0 0 12.1524057
546 2 -16.0799999 -12.9799996 -33.5400009 0 0 0 2 8 2 0 0 0 11.6756296
553 4 -31.5699997 -27.6100006 -5.2940002 0 0 1 1 9 4 0 0 0 12.4845915
554 5 -18.5400009 -39.2400017 -18.5900002 0 0 0 1 10 2 0 0 0 11.3804102
567 2 -8.198 -43.1199989 -18.1700001 0 0 2 1 8 4 0 0 0 12.118948
574 4 -30.1900005 -23.6599999 -16.3899994 0 0 0 1 10 4 0 0 0 12.5645857
579 5 -18.6700001 -26.2399998 -25.3500004 0 0 1 3 4 5 1 0 0 12.7601357
595 4 -3.6860001 -24.1299992 -24.2099991 0 0 0 1 10 2 0 0 0 12.0016985
621 2 -27.9300004 -32.6500016 -7.151 0 0 0 2 8 2 0 0 0 11.4540425
634 4 0.9822 -0.4179 -11.2700005 0 0 0 1 10 4 0 0 0 12.81176
639 5 -36.2599983 -11.7200003 -28.7600003 0 0 0 2 8 5 0 0 0 12.854705
644 2 -14.5100003 -8.3710003 -20.7600003 0 0 0 0 12 0 0 0 0 11.3130522
664 4 -2.5079999 -31.5499993 -37.6300011 0 0 1 1 9 4 0 0 0 13.3650417
670 4 -25.6700001 -19.1900005 -41.0299988 0 0 0 1 10 4 0 0 0 12.2409163
690 2 -18.25 -32.9199982 -36.7400017 0 0 1 2 7 2 0 0 0 11.8323012
699 4 -5.9260002 -22.3899994 -27.1599999 0 0 0 3 9 2 1 0 0 12.932233
701 5 -16.9200002 -32.2000008 -3.016 0 0 0 4 6 3 0 0 0 12.1255331
702 5 -6.7020002 -34.8600006 -14.0500002 0 0 0 0 12 0 0 0 0 11.1773844
708 4 0.03727 -3.4600001 -34.5699997 0 0 0 3 6 4 0 0 0 12.2882118
718 4 -20.9899998 -13.87 -30.8700008 0 0 0 1 10 4 0 0 0 12.5661536
731 4 -3.109 -20.2800007 -29.2299996 0 0 0 2 8 3 0 0 0 12.2672939
733 4 -16.1299992 -20.1299992 -25.0300007 0 0 0 0 12 0 0 0 0 11.0802527
740 2 -33.5900002 -37.4000015 -42.1500015 0 0 0 0 12 0 0 0 0 11.316988
766 4 -28.9300004 -11.8800002 -13.0699997 0 0 0 1 9 2 1 0 0 11.647481
773 2 -13.4600001 -26.1499996 -30.2800007 0 0 0 1 10 2 0 0 0 11.6836844
779 5 -10.9499998 -34.9599992 -18.7999993 0 0 0 2 8 4 0 0 0 12.2390404
782 2 1.4500001 -20.1100006 -9.2320004 0 0 0 0 12 0 0 0 0 11.0297031
783 5 0.5077001 -26.6200009 -16.7000008 0 0 1 4 5 5 0 0 0 11.9590026
792 4 0.2054 -31.9599992 -36.4500008 0 0 1 2 6 5 1 0 0 13.554472
800 2 -35.8400002 -37.1300011 -19.8899994 0 0 0 2 8 2 0 0 0 11.2335816
804 2 -8.5089998 -1.6360001 -39.8199997 0 0 0 3 6 4 0 0 0 12.0217896
824 5 -25.6100006 -22.3899994 -2.0139999 0 0 1 1 8 3 1 0 0 12.2093287
827 2 -4.954 -36.869999 -23.3899994 0 0 0 4 8 0 0 0 0 12.0370312
833 4 -37.2599983 -19.1000004 -36.0499992 0 0 0 5 2 6 0 0 0 12.2670574
839 2 -24.3299999 -41.1199989 -2.1570001 0 0 0 2 8 5 0 0 0 12.5224867
853 4 -32.0999985 -8.6610003 -28.6299992 0 0 0 2 8 4 0 0 0 12.4868708
857 5 -27.8799992 -14.54 -17.2299996 0 0 0 1 10 3 0 0 0 12.1149893
858 4 -23.8199997 -9.967 -4.2069998 0 0 0 1 10 4 0 0 0 12.8817664
864 4 -0.4478 -12.3500004 -27.7900009 0 0 0 2 10 2 0 0 0 12.3246994
867 1 1.082 -28.3199997 -21.3099995 0 0 0 0 12 0 0 0 0 11.4370117
907 5 -23.9699994 -27.4599991 -43.3699989 0 0 0 2 12 0 0 0 0 12.5537501
912 5 -21.0799999 -43.1100006 -39.2999992 0 0 2 0 8 2 2 0 0 11.4128456
913 1 -11.7799998 -10.5500002 -23.7199993 0 0 0 2 10 0 0 0 0 11.3243952
918 4 -13.7299996 -18.6499996 -34.0400009 0 0 0 1 10 4 0 0 0 12.8796788
919 5 -3.863 -15.0600004 -9.4549999 0 0 0 2 8 5 0 0 0 12.6148072
927 5 -16.0599995 -25.1900005 -29.4899998 0 0 0 0 12 3 0 0 0 13.4726982
934 4 -21.3400002 -7.829 -26.9200002 0 0 0 0 12 0 0 0 0 11.3242474
935 2 -26.7900009 -5.6160002 -26.1100006 0 0 0 2 8 1 0 0 0 11.9537746
939 2 -38.2700005 -36.6599999 -30.8799992 0 0 0 3 8 2 0 0 0 11.8591642
949 2 -23.6200009 -5.3049998 -32.4900017 0 0 0 3 7 2 1 0 0 12.9220744
959 4 -20.0699997 -24.8999996 -9.2819996 0 0 0 2 10 3 0 0 0 13.7545777
961 2 -16.2700005 -40.4599991 -41.5800019 0 0 2 0 8 2 2 0 0 11.561985
969 2 -31.7600003 -9.6990004 -12.0200005 0 0 0 3 6 3 1 0 0 11.9295426
979 2 -7.7659998 -14.04 -20.2099991 0 0 1 2 5 4 0 0 0 11.7892256
983 2 0.4324 -4.6360002 -8.7419997 0 0 0 4 6 3 0 0 0 11.9616252
990 5 -24.0900002 -25.1900005 -42.4500008 0 0 1 1 9 3 0 0 0 11.8827686
1001 4 -8.2679997 -20.4099999 -23.6200009 0 0 0 2 8 4 0 0 0 12.3775826
1015 5 -38.4700012 -39.4000015 -13.8599998 0 0 0 2 8 4 0 0 0 12.4877177
1016 2 -3.438 -30.5499993 -8.158 0 0 0 0 12 0 0 0 0 11.1304321
1033 2 -22.8199997 -34.0999985 -10.8400002 0 0 0 0 12 0 0 0 0 11.6320763
1051 4 -15.5100003 -15.5200005 -18.3500004 0 0 0 2 10 2 0 0 0 12.0907383
1064 5 -4.7189999 -19.7999993 -31.4599991 0 0 0 4 6 3 0 0 0 12.0925694
1065 2 -9.2100001 -19.3199997 -8.5 0 0 0 2 10 0 0 0 0 11.4854489
1075 4 -34.4099999 -1.8020001 -34.9000016 0 0 2 3 3 3 3 0 0 11.8116198
1084 1 2.2030001 -6.4000001 -33.7200012 0 0 1 0 11 1 0 0 0 11.5206146
1086 1 -15.4799996 -39.0699997 -23.9599992 0 0 0 1 10 2 0 0 0 11.493228
1089 3 -27.0200005 -33.0299988 -37.9799996 0 0 0 1 10 4 0 0 0 12.4190846
1099 2 3.359 -2.4930001 -39.1399994 0 0 0 0 12 2 0 0 0 12.2536364
1102 1 -10.9200002 -36.5600014 -37.4900017 0 0 0 0 12 0 0 0 0 11.5230141
1110 2 -23.2800007 -21.3500004 -5.547 0 0 0 3 6 6 0 0 0 12.1426058
1111 5 -34.6399994 -5.5830002 -6.0029998 0 0 0 3 8 2 0 0 0 11.777628
1122 4 -18.8400002 -23.8600006 -15.4600001 0 0 0 1 10 2 0 0 0 12.0820961
1131 2 -6.0650001 -2.958 -21.0400009 0 0 0 3 6 4 0 0 0 13.1577702
1133 2 -9.5579996 -42.3600006 -7.8930002 0 0 0 5 6 1 0 0 0 11.4567223
1138 4 -32.5699997 -28.8700008 -0.5372 0 0 0 0 12 2 0 0 0 11.7719441
1152 1 -30.5400009 -32.7799988 -0.1171 0 0 0 1 10 3 0 0 0 11.7460861
1163 2 -33.4700012 -19.0499992 -12.0699997 0 0 0 1 10 3 0 0 0 12.2258692
1164 4 1.564 -25.7600003 -32.0699997 0 0 0 1 10 3 0 0 0 12.8447562
1166 5 -23.1800003 -28.8299999 -9.6459999 0 0 1 2 5 5 0 0 0 11.6562529
1170 2 -8.1400003 -4.2880001 -16.7000008 0 0 0 2 8 1 0 0 0 11.3953209
1178 1 -24.3999996 -34.1500015 -6.2690001 0 0 1 2 5 5 0 0 0 11.6203947
1195 5 -12.0299997 -39.1699982 -9.514 0 0 1 2 7 3 0 0 0 11.2304468
1198 5 -7.6599999 -34.7799988 -38.3300018 0 0 0 1 10 2 0 0 0 11.8899488
1209 2 -11.9700004 -5.7529998 -9.4600001 0 0 0 2 8 3 0 0 0 11.4224024
1211 5 -26.0900002 -22.8600006 -21.5699997 0 0 1 3 7 2 2 0 0 12.8341246
1219 5 -25.1700001 -32.9099998 -39.3699989 0 0 0 1 10 2 0 0 0 12.3117075
1237 2 -39.4900017 -41.8600006 -8.5240002 0 0 0 2 8 1 0 0 0 10.9081736
1238 4 -36.3499985 -32.4300003 -39.0699997 0 0 0 2 8 7 0 0 0 13.6007653
1239 2 -18.8899994 -10.4799996 -19.4200001 0 0 0 0 12 0 0 0 0 11.2896137
1251 4 -37.2299996 -31.6700001 -7.3509998 0 0 0 0 12 3 0 0 0 12.972766
1256 4 -14.1800003 -5.9109998 -8.422 0 0 0 1 10 4 0 0 0 13.4433317
1259 2 -35.3600006 -43.7200012 -15.6400004 0 0 0 0 12 0 0 0 0 10.844883
1262 4 -28.8700008 -22.3199997 -14.5500002 0 0 0 2 10 0 0 0 0 12.2034979
1266 4 -0.4397 -22.4300003 -36.9099998 0 0 0 0 12 2 0 0 0 12.983593
1280 4 -36.0900002 -27.7800007 -32.2700005 0 0 0 0 12 2 0 0 0 12.6151676
1286 5 -5.942 -11.1700001 -36.5099983 0 0 0 1 10 4 0 0 0 12.712286
1289 2 -7.2509999 -10.8199997 -23.1900005 0 0 0 1 10 2 0 0 0 11.8768626
1299 2 -7.0580001 -16.1000004 -40.2999992 0 0 0 0 12 0 0 0 0 11.3806486
1303 4 -12.6400004 -20.4899998 -35.4799996 0 0 0 0 12 0 0 0 0 11.3139229
1304 5 -10.5 -18.5 -15.6099997 0 0 0 2 10 0 0 0 0 11.7078762
1306 5 -0.7132 -10.79 -29.6599999 0 0 2 2 5 4 1 0 0 11.6739788
1315 2 -37.1399994 -34.2999992 -42.9300004 0 0 0 0 12 0 0 0 0 10.816145
1319 2 -19.8400002 -28.4400006 -1.313 0 0 1 3 5 4 0 0 0 11.3275824
1322 4 -0.09688 -27.8400002 -3.5390001 0 0 0 3 10 1 0 0 0 12.7024756
1336 4 -8.8479996 -4.9499998 -23.4200001 0 0 0 3 8 4 0 0 0 12.9296704
1337 4 -14.6800003 -19.8799992 -36.5800019 0 0 0 1 10 2 0 0 0 11.9958572
1340 2 -26.8700008 -24.6399994 -38.7799988 0 0 0 2 8 2 0 0 0 11.6570215
1342 2 -36.5800019 -32.4300003 -32.5299988 0 0 1 2 8 3 1 0 0 12.2717161
1343 2 -23.0400009 -4.5120001 -35.0999985 0 0 0 1 10 2 0 0 0 12.096921
1352 5 -11.1800003 -15.4399996 -42.4599991 0 0 1 1 9 3 0 0 0 11.6866513
1372 2 -17.2299996 -23.1399994 -28.9500008 0 0 0 4 6 3 0 0 0 12.7372322
1385 5 1.754 -10.5299998 -33.75 0 0 0 3 8 2 0 0 0 11.8292141
1394 5 0.4134 -36.4000015 -26.2000008 0 0 0 2 8 3 0 0 0 12.0260019
1399 4 -36.5900002 -17.3099995 -2.2839999 0 0 0 3 6 5 0 0 0 11.5759888
1407 5 -34.1399994 -6.764 -24.7299996 0 0 0 0 12 0 0 0 0 11.0567217
1408 1 -20.0200005 -34.5800019 -8.0970001 0 0 0 3 8 2 0 0 0 11.3493347
1414 2 -30.3099995 -19.3500004 -31.0 0 0 0 3 8 1 0 0 0 11.0372305
1419 2 -32.9399986 -43.7000008 -15.2600002 0 0 0 2 10 1 0 0 0 11.5870428
1421 2 -17.0100002 -36.3899994 -33.1399994 0 0 1 2 7 3 0 0 0 11.8198233
1437 4 -36.8499986 -19.6299992 -20.0599995 0 0 0 1 12 1 0 0 0 12.2423363
1495 5 -14.4300003 -23.1900005 -6.9970002 0 0 1 2 7 5 0 0 0 12.7681856
1502 4 -4.8140002 -12.8500004 -38.4500008 0 0 0 3 6 5 0 0 0 12.3189716
1505 2 -25.4200001 -19.0499992 -43.6100006 0 0 0 2 8 2 0 0 0 11.1441736
1521 5 -14.7700005 -24.5799999 -2.9820002 0 0 0 4 6 4 0 0 0 11.9677544
1526 4 -15.9099998 -9.0710001 -35.3300018 0 0 0 0 12 2 0 0 0 12.4865332
1527 5 -16.5599995 -40.4799996 -35.4399987 0 0 0 1 10 3 0 0 0 11.9531404
1529 2 -13.3199997 -36.9700012 -26.3299999 0 0 0 3 6 3 0 0 0 11.5520334
1539 5 -29.7299996 -1.7510001 -30.3899994 0 0 0 6 4 3 0 0 0 12.4269276
1540 5 -0.298 -9.6330004 -23.2199993 0 0 1 1 8 5 1 0 0 12.5799008
1546 4 -9.8249998 -42.1599999 -38.5 0 0 2 1 7 4 1 0 0 12.8587046
1552 4 -33.7200012 -40.4599991 -29.75 0 0 0 2 8 4 0 0 0 12.2334881
1555 2 -13.0 -19.0699997 -42.0600014 0 0 0 1 10 2 0 0 0 11.5104342
1563 5 -4.152 -30.8299999 -16.7399998 0 0 0 3 8 3 0 0 0 11.5831785
1566 5 -5.7230001 -7.8520002 -18.6000004 0 0 1 1 9 4 0 0 0 12.7344322
1585 4 -33.9799996 -27.6399994 -6.4169998 0 0 0 2 10 2 0 0 0 12.4428015
1593 2 -22.6800003 -3.816 -29.1800003 0 0 0 0 12 0 0 0 0 11.3678627
1595 4 -36.5 -17.1599999 -28.1200008 0 0 0 3 7 4 1 0 0 12.3195725
1597 5 -5.3179999 -17.3600006 -5.9390002 0 0 0 2 8 5 0 0 0 13.3407602
1611 5 -15.3000002 -8.0539999 -0.4438 0 0 0 3 6 4 0 0 0 11.5790501
1617 4 -17.8500004 -2.688 -38.3300018 0 0 0 2 10 1 0 0 0 12.0093374
1625 2 -37.0 -35.1500015 -29.3099995 0 0 0 2 8 2 0 0 0 11.7131453
1626 2 -17.3099995 -35.9000016 -27.6599999 0 0 1 0 11 1 0 0 0 11.4250307
1632 5 -3.398 -23.5499993 -33.0499992 0 0 0 1 10 4 0 0 0 12.6034823
1651 2 -2.4979999 -2.0480001 -6.5440002 0 0 0 2 8 4 0 0 0 12.3123322
1656 4 -9.1770001 -3.929 -18.8799992 0 0 0 0 12 3 0 0 0 13.5184536
1658 4 -36.0299988 -14.9099998 -6.3350001 0 0 0 2 10 2 0 0 0 12.1649771
1660 4 -31.9400006 -5.7319999 -25.7199993 0 0 0 0 12 2 0 0 0 12.1317482
1670 2 -22.7900009 -22.7900009 -24.7399998 0 0 0 4 6 4 0 0 0 12.3127413
1671 4 -0.3381 -29.0100002 -34.7700005 0 0 1 2 8 3 1 0 0 12.3392315
1675 4 0.07886 -41.3899994 -28.9099998 0 0 1 3 7 2 2 0 0 13.1895857
1680 5 -0.3511 -31.3500004 -23.3099995 0 0 0 1 10 2 0 0 0 12.079073
1683 4 -26.9599992 -15.7799998 -38.6899987 0 0 1 1 9 3 0 0 0 11.7171879
1686 5 -9.3769999 -17.6000004 -26.6299992 0 0 1 1 9 3 0 0 0 12.0744486
1687 2 -21.3400002 -29.8899994 -30.9400006 0 0 0 5 4 4 0 0 0 11.5555401
1707 4 -15.3299999 -30.2900009 -3.3 0 0 2 0 8 4 0 0 0 12.1409655
1727 5 -18.1000004 -9.6429997 -15.4600001 0 0 0 3 8 2 0 0 0 11.4447689
1733 4 -7.1220002 -26.3700009 -28.8899994 0 0 0 3 6 4 0 0 0 12.0216722
1741 3 -22.1000004 -36.8199997 -37.0099983 0 0 0 2 8 4 0 0 0 11.9185248
1748 2 0.2089 -9.6739998 -16.0799999 0 0 0 2 8 4 0 0 0 11.9266406
1749 5 -34.2799988 -24.4799996 -29.8600006 0 0 2 3 4 4 2 0 0 12.8744946
1755 2 -35.7000008 -9.0719996 -20.9099998 0 0 0 4 6 3 0 0 0 11.5231362
1759 1 -15.5900002 -20.6800003 -6.586 0 0 0 1 10 2 0 0 0 12.0182276
1771 5 -16.9500008 -13.4099999 -14.2600002 0 0 0 1 10 2 0 0 0 11.9696522
1772 2 -16.5799999 -10.3699999 -4.8340001 0 0 1 3 5 5 0 0 0 12.8136845
1786 2 -9.5900002 -18.9899998 -1.717 0 0 2 2 6 2 2 0 0 11.4725561
1795 2 -8.7980004 -8.651 -11.5200005 0 0 0 1 10 2 0 0 0 11.4747248
1796 4 -25.2299996 -4.4549999 -36.6699982 0 0 1 1 9 4 0 0 0 12.382596
1798 5 -27.0499992 -21.0 -28.0499992 0 0 0 2 8 4 0 0 0 12.0164347
1804 5 -33.8499986 -14.8299999 -32.5499993 0 0 0 1 10 4 0 0 0 12.9260646
1810 2 -25.0699997 -39.9099998 -31.5699997 0 0 0 0 12 0 0 0 0 11.5860863
1811 4 1.186 -26.4400006 -43.0699997 0 0 0 0 12 3 0 0 0 12.542614
1834 1 -11.0600004 -27.4500008 -16.0900002 0 0 0 3 5 4 1 0 0 11.549182
1835 2 -12.2700005 -2.9960002 -15.2799997 0 0 1 2 7 4 0 0 0 11.9564744
1844 2 -27.7399998 -42.0299988 -29.6700001 0 0 1 2 5 4 0 0 0 11.3139115
1849 5 -6.9710002 -32.1100006 -9.408 0 0 0 1 10 3 0 0 0 12.433137
1850 4 -26.4899998 -27.3400002 -19.4400006 0 0 0 0 12 2 0 0 0 13.333458
1855 2 -2.5899999 -36.3100014 -18.3299999 0 0 0 1 10 2 0 0 0 11.3954487
1870 5 -10.7700005 -30.5400009 -25.9099998 0 0 0 0 12 2 0 0 0 12.0549421
1876 4 -31.7000008 -29.0 -35.7700005 0 0 0 0 12 3 0 0 0 12.0744963
1893 4 -26.7000008 -7.2680001 -20.0100002 0 0 0 0 12 4 0 0 0 13.0012665
1908 2 -34.2000008 -9.007 -24.8700008 0 0 0 0 12 0 0 0 0 11.1436586
1914 2 -26.7999993 -6.4759999 -36.1699982 0 0 1 0 9 3 0 0 0 11.2800541
1919 4 -8.0710001 -11.8800002 -1.898 0 0 1 0 11 3 0 0 0 12.5703221
1923 4 -7.5089998 -7.6669998 -9.7539997 0 0 0 4 6 4 0 0 0 11.7757588
1927 2 -36.2299996 -28.25 -35.2099991 0 0 1 1 9 2 2 0 0 12.0736952
1928 2 -31.0599995 -12.0100002 -12.04 0 0 0 4 4 7 0 0 0 12.2927094
1934 3 -25.6900006 -19.9699994 -21.7700005 0 0 1 3 7 3 0 0 0 12.6834708
1937 4 -33.4700012 -41.4399987 -24.9200002 0 0 0 1 10 2 0 0 0 11.6968928
1955 5 -20.1700001 -7.5050001 -8.6029997 0 0 1 3 5 5 0 0 0 11.8422566
1958 5 -28.4200001 -1.0369999 -11.1300001 0 0 0 0 12 0 0 0 0 11.2365914
1960 4 -26.1700001 -35.0999985 -16.0400009 0 0 1 2 9 3 0 0 0 12.6975146
1967 4 -13.9300004 -9.797 -30.0400009 0 0 0 1 10 2 0 0 0 12.1610432
1980 2 -10.9499998 -14.2200003 -39.2900009 0 0 1 4 4 3 1 0 0 11.751051
1989 2 1.915 -20.1200008 -13.25 0 0 1 2 10 1 1 0 0 12.6186505
2006 4 -20.1499996 -40.6699982 -38.2200012 0 0 0 3 10 3 0 0 0 13.3261252
2013 4 -13.4200001 -13.4799996 -1.701 0 0 1 2 7 7 0 0 0 12.9917012
2014 4 -10.9499998 -42.6100006 -9.9519998 0 0 1 2 7 3 0 0 0 11.913475
2021 5 -35.6699982 -20.4300003 -41.9399986 0 0 0 1 10 4 0 0 0 13.1587277
2030 5 1.828 -19.0699997 -15.6999998 0 0 0 3 8 3 0 0 0 12.9350128
2034 4 -27.3999996 -30.3999996 -39.2200012 0 0 0 4 4 6 0 0 0 11.8474836
2038 4 -2.322 -2.247 -34.9399986 0 0 0 1 10 5 0 0 0 12.9755802
2055 1 -3.224 -17.1499996 -40.8100014 0 0 0 0 12 0 0 0 0 11.177701
2062 4 -28.6000004 -33.619999 -21.2299996 0 0 1 3 5 5 0 0 0 11.3396406
2079 4 -5.5949998 -11.5 -30.1399994 0 0 1 3 7 4 0 0 0 12.2707977
2085 4 -13.6099997 -38.9000016 -28.0499992 0 0 0 2 8 5 0 0 0 13.2110758
2090 2 -3.0120001 -22.1800003 -5.914 0 0 0 0 12 0 0 0 0 11.0821219
2108 1 -23.2900009 -16.0 -0.5195 0 0 0 2 6 4 0 0 0 10.8051586
2110 1 -9.3590002 -19.4400006 -32.4199982 0 0 0 2 8 3 0 0 0 11.470006
2113 1 -35.8600006 -3.8870002 -31.2700005 0 0 0 0 12 0 0 0 0 11.1399365
2118 5 -7.119 -15.3800001 -22.3500004 0 0 0 2 8 4 0 0 0 12.209239
2133 1 -15.3999996 -42.3499985 -42.4599991 0 0 0 0 12 0 0 0 0 10.5788336
2147 4 -36.7599983 -14.0100002 -19.9599992 0 0 0 0 12 2 0 0 0 12.0409422
2149 4 -13.6800003 -28.8899994 -37.2900009 0 0 2 2 5 4 3 0 0 13.2223921
2161 2 -13.3100004 -33.4099999 -8.474 0 0 0 2 8 4 0 0 0 11.8203955
2195 2 -22.1100006 -35.8499986 -15.1899996 0 0 0 3 6 4 0 0 0 12.291811
2208 4 -37.3600006 -28.0100002 -39.2299996 0 0 0 1 12 1 0 0 0 12.3523522
2216 5 -14.8599998 -17.9899998 -29.6100006 0 0 1 3 5 5 0 0 0 12.0788555
2229 4 -28.4599991 -36.0200005 -25.4899998 0 0 0 2 8 4 0 0 0 13.5822363
2232 5 -37.4300003 -27.0900002 -10.0100002 0 0 0 0 12 2 0 0 0 12.7821961
2233 4 1.647 -0.009265 -18.2600002 0 0 0 1 10 3 0 0 0 11.7538576
2234 5 -30.3099995 -22.8899994 -33.2200012 0 0 0 0 12 2 0 0 0 12.1088028
2238 4 -26.5200005 -11.9399996 -14.1899996 0 0 0 0 10 2 0 0 0 11.4900866
2243 2 -15.1499996 -25.6200009 -15.7399998 0 0 0 1 10 2 0 0 0 12.541565
2246 4 -27.6100006 -7.4130001 -4.923 0 0 0 0 12 2 0 0 0 11.9682674
2247 2 -17.1599999 -25.3299999 -19.0599995 0 0 1 2 7 2 0 0 0 10.7899246
2256 4 -15.7100001 -15.6199999 -41.7599983 0 0 0 0 12 4 0 0 0 13.5532561
2265 5 -4.526 -35.3499985 -17.4300003 0 0 0 2 8 4 0 0 0 11.5308781
2266 2 -10.0 -3.592 -24.9899998 0 0 0 3 6 4 0 0 0 11.7997027
2270 5 -22.5599995 -20.6800003 -35.4099999 0 0 0 1 10 4 0 0 0 12.8467598
2272 4 -21.6399994 -23.8899994 -39.5800019 0 0 0 0 12 0 0 0 0 11.7374029
2277 5 -11.6800003 -28.0699997 -42.0299988 0 0 0 4 6 2 2 0 0 12.2395725
2278 4 -39.2200012 -35.8199997 -37.4399987 0 0 0 2 10 1 0 0 0 12.3908653
2282 4 -29.8299999 -37.1300011 -5.949 0 0 0 2 10 1 0 0 0 12.4171505
2283 4 -4.7350002 -15.3400002 -21.8799992 0 0 0 3 8 2 0 0 0 12.0719261
2287 4 -26.9500008 -7.1760001 -15.6700001 0 0 0 1 10 3 0 0 0 12.4702578
2288 4 -18.1399994 -2.2409999 -22.3199997 0 0 1 1 8 3 1 0 0 12.890669
2294 4 -27.7399998 -5.1090002 -37.9900018 0 0 0 2 8 4 0 0 0 12.1463051
2295 5 -21.0599995 -26.5 -39.4700012 0 0 0 1 10 3 0 0 0 12.3478603
2298 4 -19.7099991 -21.4599991 -15.1700001 0 0 1 3 7 3 0 0 0 12.6368847
2309 4 -16.5599995 -10.8900004 -24.0599995 0 0 1 0 8 4 0 0 0 12.3413735
2313 4 -6.6420002 -35.5400009 -4.3590002 0 0 0 5 5 3 1 0 0 12.6646672
2315 2 -37.2299996 -38.9000016 -20.8799992 0 0 0 0 12 0 0 0 0 11.9776554
2322 1 -24.9200002 -13.7399998 -11.3199997 0 0 0 3 6 2 0 0 0 11.3510428
2346 5 -12.2100001 -20.1100006 -37.9599992 0 0 0 1 10 2 0 0 0 11.5159846
2347 4 -30.2700005 -1.883 -1.112 0 0 1 1 9 3 0 0 0 12.0341454
2355 4 1.101 -20.7199993 -35.6599999 0 0 1 4 3 6 2 0 0 13.4985447
2365 2 -3.862 -8.6210003 -26.8600006 0 0 0 1 10 2 0 0 0 10.8891488
2388 4 -21.6200009 -30.0400009 -8.2530003 0 0 0 1 10 4 0 0 0 12.9481736
2394 2 -21.0100002 -5.982 -6.6950002 0 0 0 2 8 2 0 0 0 11.7792835
2412 5 -32.25 -37.5699997 -9.5760002 0 0 0 2 12 0 0 0 0 12.847498
2414 1 -15.4099999 -37.8499986 -8.0039997 0 0 0 0 12 0 0 0 0 10.7160902
2423 5 -4.8470002 -17.4599991 -32.6300011 0 0 0 4 8 3 0 0 0 13.440507
2446 5 -10.9499998 -10.3800001 -19.0200005 0 0 0 3 8 2 0 0 0 11.6102343
2457 1 -34.5400009 -40.5 -12.8000002 0 0 0 1 10 2 0 0 0 11.6989575
2464 4 -18.3600006 -34.9500008 -14.6899996 0 0 0 1 10 2 0 0 0 11.3660231
2469 5 -6.8070002 -5.876 -37.2099991 0 0 0 1 10 4 0 0 0 12.6392536
2479 4 -12.4499998 -3.556 -8.2550001 0 0 0 1 10 3 0 0 0 12.3412075
2492 2 -4.8350001 -12.7200003 -28.2000008 0 0 0 1 10 2 0 0 0 11.8450414
2499 4 -10.6199999 -38.7799988 -1.002 0 0 0 1 10 2 0 0 0 12.2314692
2506 2 -12.04 -37.1899986 -11.1400003 0 0 0 2 10 1 0 0 0 11.6401501
2507 2 -27.1399994 -40.0900002 -32.9300004 0 0 0 1 10 2 0 0 0 11.8298836
2509 4 -18.0599995 -11.3699999 -41.4799996 0 0 0 4 6 3 0 0 0 12.2054606
2515 4 -17.4300003 -0.2397 -10.1400003 0 0 0 1 10 4 0 0 0 12.4939499
2529 4 -35.4500008 -15.5299998 -37.619999 0 0 0 1 10 2 0 0 0 11.8552352
2536 5 -18.8199997 -3.85 -26.1599999 0 0 0 1 10 2 0 0 0 11.3212795
2537 5 -0.5565 -11.2600002 -25.5400009 0 0 0 0 12 0 0 0 0 11.0074978
2542 2 -5.823 -19.6200009 -37.7900009 0 0 0 2 8 2 0 0 0 11.3096848
2545 2 -18.2800007 -20.9500008 -37.3800011 0 0 1 1 9 3 0 0 0 11.9652492
2570 2 -20.3899994 -28.7099991 -38.2999992 0 0 0 2 8 2 0 0 0 11.349576
2574 4 -29.1100006 -1.157 -26.5799999 0 0 0 2 9 4 1 0 0 12.7450781
2585 3 -31.7199993 -5.0910001 -3.4820001 0 0 0 2 8 5 0 0 0 12.6017494
2593 4 -18.2099991 -29.4200001 -39.1500015 0 0 0 0 12 2 0 0 0 12.0706329
2597 5 -38.1399994 -33.2000008 -21.6000004 0 0 0 5 4 5 0 0 0 11.5182514
2606 4 -8.8269997 -31.4799996 -7.0040002 0 0 0 2 10 1 0 0 0 12.1059847
2614 4 -28.3500004 -14.8400002 -3.062 0 0 2 4 4 4 0 0 0 11.8505822
2620 4 -4.0609999 -26.1299992 -5.987 0 0 0 1 10 2 0 0 0 11.7270613
2621 2 -1.031 -2.984 -19.25 0 0 0 3 6 4 0 0 0 11.8731594
2634 2 -22.4300003 -32.0900002 -9.6529999 0 0 2 3 4 4 2 0 0 11.8664886
2635 2 -28.3600006 -19.0699997 -4.1209998 0 0 0 3 6 4 0 0 0 12.2929583
2646 5 -14.9899998 -29.6900006 -10.6199999 0 0 0 0 12 2 0 0 0 12.3217907
2649 4 -38.75 -40.4900017 -4.79 0 0 0 1 10 3 0 0 0 12.6632014
2659 2 -28.6599999 -22.9300004 -25.0 0 0 1 1 9 2 0 0 0 11.7688771
2665 5 -21.0400009 -19.6800003 -41.4700012 0 0 0 1 10 4 0 0 0 13.0243845
2667 4 -34.7599983 -23.0100002 -13.3800001 0 0 0 2 8 4 0 0 0 12.6298867
2690 4 -19.75 -2.214 -4.3530002 0 0 0 1 10 4 0 0 0 13.210351
2691 2 1.393 -3.994 -2.2320001 0 0 0 0 12 0 0 0 0 11.0543509
2694 4 -18.7099991 -32.7999993 -32.6599999 0 0 0 1 10 3 0 0 0 12.3598986
2704 5 -6.5720001 -5.6180001 -39.7000008 0 0 0 3 8 4 0 0 0 12.2313032
2711 5 -7.1329999 -16.5300007 -17.0699997 0 0 0 2 8 2 0 0 0 11.4685803
2713 2 -27.2800007 -20.8700008 -41.9399986 0 0 0 1 10 2 0 0 0 11.9856644
2717 2 -23.5699997 -25.5599995 -40.0 0 0 0 0 12 0 0 0 0 11.5393
2721 2 -2.201 -13.7700005 -32.3400002 0 0 0 0 12 0 0 0 0 11.6599951
2731 4 -34.9399986 -35.1899986 -18.3500004 0 0 0 2 8 5 0 0 0 12.8305407
2740 1 -2.052 -18.9500008 -1.98 0 0 0 2 8 3 0 0 0 12.1976357
2749 4 -11.8000002 -16.1000004 -37.9799996 0 0 0 4 6 4 0 0 0 12.5973654
2764 2 -24.8400002 -34.5499993 -2.1300001 0 0 0 0 12 0 0 0 0 11.0534086
2765 5 -3.0940001 -16.3999996 -5.2100001 0 0 0 4 4 6 0 0 0 12.515009
2766 4 -23.9899998 -23.7000008 -26.8899994 0 0 0 3 8 2 0 0 0 11.6678372
2769 4 -19.5900002 -30.2299996 -15.0900002 0 0 0 2 8 4 0 0 0 12.640256
2778 4 -16.2099991 -29.3799992 -17.3500004 0 0 1 1 8 3 1 0 0 12.6245642
2783 4 -10.9700004 -29.7099991 -21.7900009 0 0 0 3 6 4 0 0 0 11.3451672
2800 5 -30.1499996 -43.1199989 -8.3509998 0 0 1 3 5 3 2 0 0 11.3202105
2802 5 -29.2999992 -26.5100003 -13.3100004 0 0 0 4 10 0 0 0 0 12.6683579
2818 4 -31.4300003 -15.3400002 -17.8700008 0 0 0 5 6 2 0 0 0 12.7034598
2823 2 -20.1700001 -30.0900002 -17.7099991 0 0 1 1 9 3 0 0 0 11.713151
2825 5 -16.9799996 -9.1379995 -20.4099999 0 0 0 1 10 2 0 0 0 11.6820317
2832 4 -25.8799992 -1.7000001 -1.234 0 0 0 2 8 6 0 0 0 13.3772593
2834 5 -22.2600002 -31.9400006 -12.1700001 0 0 0 2 8 3 0 0 0 12.2171965
2836 4 -21.6599999 -14.1099997 -26.3700009 0 0 0 4 4 6 0 0 0 12.6228676
2839 5 -28.5499993 -16.2700005 -0.784 0 0 0 2 8 1 2 0 0 12.295476
2861 4 -10.4499998 -33.3100014 -31.1100006 0 0 1 3 5 5 0 0 0 12.4624977
2863 5 -25.2199993 -35.1800003 -38.1500015 0 0 0 0 12 3 0 0 0 12.3863077
2878 2 -14.5799999 -18.1499996 -14.5799999 0 0 0 3 6 4 0 0 0 11.5223112
2884 2 -17.1499996 -32.5800019 -18.9899998 0 0 0 0 12 0 0 0 0 11.2853937
2910 4 -25.1200008 -0.8609 -23.7700005 0 0 2 2 7 4 1 0 0 13.1113348
2945 5 -4.7379999 -24.2700005 -17.2999992 0 0 0 4 5 4 1 0 0 11.5149803
2954 5 -20.5400009 -35.2200012 -39.0099983 0 0 0 0 12 2 0 0 0 12.7327271
2956 2 -18.7900009 -32.2000008 -28.5799999 0 0 1 0 11 1 0 0 0 11.6421767
2962 4 1.6540001 -12.1999998 -40.0600014 0 0 0 1 10 2 0 0 0 12.4077311
2963 4 -31.6700001 -6.6490002 -41.1399994 0 0 0 1 10 4 0 0 0 12.3388929
2964 2 -1.873 -26.8299999 -5.0320001 0 0 1 3 5 5 0 0 0 11.4228735
2973 4 -37.0900002 -19.0300007 -29.5699997 0 0 0 3 7 4 1 0 0 12.7410326
2979 4 -26.2000008 -32.7799988 -0.9674 0 0 0 0 12 3 0 0 0 13.4352703
2992 4 -34.5900002 -2.4760001 -37.2099991 0 0 0 2 7 4 1 0 0 12.0135517
2997 5 1.5140001 -18.3400002 -27.25 0 0 1 2 9 0 0 0 0 12.6587105
2998 2 -34.7299996 -37.8899994 -9.2690001 0 0 1 2 7 3 0 0 0 11.6356249
3012 4 -38.0900002 -29.0499992 -3.8280001 0 0 0 1 10 5 0 0 0 14.145812
3014 5 -14.3699999 -3.0769999 -30.3099995 0 0 0 1 10 4 0 0 0 12.9390068
3016 1 -6.8239999 -38.5099983 -38.3699989 0 0 0 0 12 0 0 0 0 10.6727677
3025 5 -13.7299996 -9.3660002 -36.4599991 0 0 1 2 7 5 0 0 0 12.3761969
3032 4 -37.2700005 -35.1899986 -17.7399998 0 0 0 4 6 3 0 0 0 12.0076418
3049 4 -31.0499992 -13.4700003 -36.8499986 0 0 0 2 8 2 2 0 0 12.5028191
3056 5 -12.9200002 -32.5499993 -13.0 0 0 1 2 7 4 0 0 0 12.0387402
3059 4 -26.1800003 -30.1299992 -15.3000002 0 0 0 1 10 5 0 0 0 13.8490468
3072 4 -20.5 -13.6499996 -33.4000015 0 0 0 1 10 4 0 0 0 12.021903
3076 2 -31.0 -10.4600001 -43.0600014 0 0 0 0 12 3 0 0 0 12.768591
3078 1 -0.8657 -37.75 -5.7880001 0 0 0 1 10 2 0 0 0 11.3061514
3093 2 -3.5680001 -14.1000004 -30.2199993 0 0 0 1 10 2 0 0 0 11.2531128
3095 4 -25.9599992 -15.8900004 -20.9200002 0 0 2 2 6 4 0 0 0 11.6760082
3096 2 -34.2299996 -31.6000004 -40.7799988 0 0 0 0 12 0 0 0 0 12.717412
3099 5 -1.209 -26.0300007 -11.8000002 0 0 1 2 8 3 1 0 0 12.5797005
3100 2 -18.7299996 -43.25 -17.6299992 0 0 0 0 12 2 0 0 0 12.3136759
3104 1 -19.8600006 -10.0100002 -37.6100006 0 0 0 3 8 2 0 0 0 11.0415983
3117 2 -26.5499993 -3.0710001 -17.9899998 0 0 0 1 10 2 0 0 0 11.7441349
3134 5 -32.9799996 -17.0400009 -41.5699997 0 0 0 4 5 4 1 0 0 12.3238258
3135 4 0.8542 -23.5799999 -19.8299999 0 0 0 0 12 0 0 0 0 10.8528004
3138 5 -8.6499996 -9.283 -22.0699997 0 0 0 2 8 5 0 0 0 12.2194414
3146 4 -12.3800001 -19.2099991 -14.1899996 0 0 0 1 10 3 0 0 0 12.2568636
3159 5 -33.4099999 -33.5099983 -22.3700009 0 0 0 0 12 0 0 0 0 11.2992993
3182 4 -6.3940001 -38.0200005 -29.7299996 0 0 1 3 5 4 2 0 0 12.3610401
3188 5 -14.04 -22.4099999 -21.4699993 0 0 1 2 7 2 2 0 0 12.8235693
3193 5 -32.6699982 -35.4599991 -3.586 0 0 0 0 12 0 0 0 0 11.0683212
3200 2 -11.7200003 -2.7560001 -29.4200001 0 0 0 0 12 0 0 0 0 11.0457296
3201 4 -13.0900002 -29.5799999 -26.3400002 0 0 0 1 10 2 0 0 0 12.1631403
3202 5 -23.3899994 -35.8899994 -12.4899998 0 0 0 2 8 4 0 0 0 12.2045994
3218 2 -28.0200005 -2.942 -9.7700005 0 0 0 3 6 3 0 0 0 11.6451159
3219 5 -3.0780001 -36.5 -38.8600006 0 0 0 2 9 1 1 0 0 13.1092548