LAMMPS (29 Oct 2020)
Lattice spacing in x,y,z = 3.5800000 3.5800000 3.5800000
Created orthogonal box = (0.0000000 0.0000000 0.0000000) to (71.600000 71.600000 71.600000)
  1 by 1 by 1 MPI processor grid
Created 32000 atoms
  create_atoms CPU = 0.006 seconds
0 atoms in group fe_group
0 atoms in group ni_group
Setting atom values ...
  0 settings made for type/fraction
Setting atom values ...
  0 settings made for type/fraction
Neighbor list info ...
  update every 1 steps, delay 5 steps, check yes
  max neighbors/atom: 2000, page size: 100000
  master list distance cutoff = 4.8
  ghost atom cutoff = 4.8
  binsize = 2.4, bins = 30 30 30
  2 neighbor lists, perpetual/occasional/extra = 2 0 0
  (1) pair meam/c, perpetual
      attributes: full, newton on
      pair build: full/bin/atomonly
      stencil: full/bin/3d
      bin: standard
  (2) pair meam/c, perpetual, half/full from (1)
      attributes: half, newton on
      pair build: halffull/newton
      stencil: none
      bin: none
3.58 145284.106955143
Per MPI rank memory allocation (min/avg/max) = 52.77 | 52.77 | 52.77 Mbytes
Step KinEng PotEng Press Temp 
       0            0    -91681.56    145284.11            0 
Loop time of 2.86102e-06 on 1 procs for 0 steps with 32000 atoms

174.8% CPU use with 1 MPI tasks x no OpenMP threads

MPI task timing breakdown:
Section |  min time  |  avg time  |  max time  |%varavg| %total
---------------------------------------------------------------
Pair    | 0          | 0          | 0          |   0.0 |  0.00
Neigh   | 0          | 0          | 0          |   0.0 |  0.00
Comm    | 0          | 0          | 0          |   0.0 |  0.00
Output  | 0          | 0          | 0          |   0.0 |  0.00
Modify  | 0          | 0          | 0          |   0.0 |  0.00
Other   |            | 2.861e-06  |            |       |100.00

Nlocal:        32000.0 ave       32000 max       32000 min
Histogram: 1 0 0 0 0 0 0 0 0 0
Nghost:        13563.0 ave       13563 max       13563 min
Histogram: 1 0 0 0 0 0 0 0 0 0
Neighs:       672000.0 ave      672000 max      672000 min
Histogram: 1 0 0 0 0 0 0 0 0 0
FullNghs:  1.34400e+06 ave   1.344e+06 max   1.344e+06 min
Histogram: 1 0 0 0 0 0 0 0 0 0

Total # of neighbors = 1344000
Ave neighs/atom = 42.000000
Neighbor list builds = 0
Dangerous builds = 0
Total wall time: 0:00:06
