ITEM: TIMESTEP
0
ITEM: NUMBER OF ATOMS
50688
ITEM: BOX BOUNDS xy xz yz pp pp pp
-20.3673 60.0874634 0.175164
-22.2210007 65.3610001 0.0
-22.2210007 65.3610001 0.0
ITEM: ATOMS id type x y z VoronoiIndex1 VoronoiIndex2 VoronoiIndex3 VoronoiIndex4 VoronoiIndex5 VoronoiIndex6 VoronoiIndex7 VoronoiIndex8 VoronoiIndex9 AtomicVolume
7 2 -8.3380003 -13.6499996 -3.2360001 0 0 0 1 10 2 0 0 0 11.8360911
21 2 -11.8599998 1.831 14.1400003 0 0 1 0 9 3 0 0 0 11.9069472
26 5 -12.3599997 -17.4400006 -9.2449999 0 0 0 1 10 4 0 0 0 12.8647194
28 2 6.5720001 4.7870002 -10.1499996 0 0 0 0 12 0 0 0 0 10.6666746
36 2 16.3700009 -15.1700001 -21.0200005 0 0 0 0 12 0 0 0 0 11.3859854
38 5 11.0 -11.1499996 17.4300003 0 0 0 0 12 0 0 0 0 12.0393391
42 2 13.4799996 -3.517 -21.4699993 0 0 0 0 12 0 0 0 0 11.2694311
43 5 1.6490001 12.6899996 9.8290005 0 0 0 2 8 4 0 0 0 11.8389274
50 2 15.6999998 -3.4660001 -21.8999996 0 0 0 0 12 0 0 0 0 10.9443712
61 4 -9.0240002 -8.5740004 -3.2690001 0 0 0 2 9 3 0 0 0 13.0446863
66 4 -15.1899996 -5.4959998 -2.3629999 0 0 0 2 8 5 0 0 0 12.6667357
68 1 -15.0299997 -0.6105 3.0 0 0 1 3 5 2 0 0 0 11.7403422
98 2 5.2550001 -8.5369997 18.9200002 0 0 0 0 12 0 0 0 0 10.7785092
111 4 -20.1000004 -9.5900002 -4.8369999 0 0 0 1 10 5 0 0 0 13.2861138
128 5 -9.7279997 6.4380002 -10.54 0 0 0 2 10 1 0 0 0 12.2396565
145 4 -1.711 -22.1599999 -19.5900002 0 0 0 1 10 4 0 0 0 12.9191562
146 4 3.8670002 9.3009997 -11.1400003 0 0 0 0 12 2 0 0 0 13.2732601
150 2 -11.9799996 8.0150003 9.2629995 0 0 0 3 6 4 0 0 0 11.6582232
171 2 8.3830004 -0.4661 -3.0320001 0 0 0 1 9 2 1 0 0 12.4091978
176 5 14.04 -20.3400002 11.6899996 0 0 1 2 7 2 2 0 0 12.1752424
177 5 14.5100003 14.8900004 -19.8199997 0 0 0 3 6 4 0 0 0 11.684331
181 5 -4.323 -11.1300001 5.877 0 0 0 0 12 0 0 0 0 11.0563145
191 5 -10.2600002 5.79 -13.0 0 0 0 1 10 2 0 0 0 12.1159649
200 4 -13.5699997 -11.0 12.0600004 0 0 0 3 6 4 0 0 0 11.8451596
216 2 14.5299998 16.7199993 12.0200005 0 0 0 0 12 0 0 0 0 11.3414402
219 4 13.1400003 -2.902 16.0200005 0 0 1 2 7 3 2 0 0 12.0906773
220 2 -5.0450001 17.6800003 -5.3150001 0 0 1 0 11 1 0 0 0 12.1192627
231 4 -12.8400002 3.5250001 7.1820002 0 0 0 3 8 2 0 0 0 11.8686124
240 2 3.6129999 10.6199999 6.2090001 0 0 0 3 6 4 0 0 0 11.6084576
243 4 7.7389999 17.6399994 -2.086 0 0 0 1 10 3 0 0 0 12.6915035
244 5 -4.5809999 -12.5900002 -20.6399994 0 0 0 1 10 3 0 0 0 13.1299191
249 4 -3.6210001 -5.8790002 18.9899998 0 0 0 0 12 3 0 0 0 13.0477314
260 2 -15.6999998 6.5960002 -15.6700001 0 0 0 2 10 0 0 0 0 11.2591229
262 2 3.5840001 3.105 9.316 0 0 1 3 5 3 2 0 0 13.0010891
263 1 -5.3400002 -2.847 -16.4799996 0 0 0 0 12 0 0 0 0 11.2946768
272 4 -16.8899994 -9.0819998 -18.5900002 0 0 0 0 12 2 0 0 0 12.5144139
273 4 -19.6800003 -6.6220002 -14.0100002 0 0 0 0 14 2 0 0 0 14.2329998
277 4 -12.3900004 -0.09437 -6.5190001 0 0 0 2 7 4 1 0 0 12.2510519
283 5 -1.197 10.7100001 -10.9099998 0 0 0 0 12 3 0 0 0 12.6324787
298 4 -4.7410002 17.2800007 3.4930001 0 0 2 3 8 2 0 0 0 12.6654244
301 1 -12.3699999 18.6499996 20.2299996 0 0 0 2 8 2 0 0 0 11.6648579
311 5 -9.632 13.9799996 -4.7150002 0 0 0 0 14 2 0 0 0 14.03514
318 5 0.3787 -14.5699997 -6.2649999 0 0 1 1 9 3 0 0 0 12.1375332
322 4 -6.6279998 -8.625 3.227 0 0 1 1 9 4 0 0 0 11.8691168
335 1 -13.9799996 -18.2299996 -5.4720001 0 0 0 2 10 1 0 0 0 12.1967907
336 4 -7.6529999 -16.4500008 -2.619 0 0 0 1 10 3 0 0 0 11.6446781
362 5 -6.2789998 -9.6409998 -4.1430001 0 0 0 1 10 4 0 0 0 13.3080597
370 5 -12.6099997 -17.2700005 -11.8000002 0 0 0 0 12 2 0 0 0 11.9863434
372 5 13.7700005 -19.9300004 4.1139998 0 0 1 1 9 3 0 0 0 11.841301
377 5 -3.9100002 15.8900004 -0.5632 0 0 0 1 10 4 0 0 0 12.8605634
398 1 -0.09053 0.3337 -1.072 0 0 0 2 8 3 0 0 0 11.5629692
416 2 -5.4590001 -20.9599992 -11.6599999 0 0 1 4 3 5 0 0 0 11.7411394
431 2 -3.7809999 19.6900006 -19.5599995 0 0 0 1 10 2 0 0 0 11.6655169
437 2 -7.8860002 21.4400006 14.8400002 0 0 1 3 5 4 0 0 0 12.0881376
439 4 -13.6300001 -8.2010002 15.0299997 0 0 0 4 8 2 0 0 0 12.3680668
442 4 5.5380001 -20.9799996 -12.4399996 0 0 0 1 12 2 0 0 0 13.2854262
452 4 -9.9659996 -21.9799996 -20.6000004 0 0 0 2 10 0 0 0 0 11.7784605
482 4 8.5609999 -0.4529 -19.6700001 0 0 1 2 7 5 0 0 0 12.687335
506 4 -1.076 -0.01606 16.4200001 0 0 0 1 10 4 0 0 0 12.7919436
527 5 12.9700004 -5.1399999 4.5830002 0 0 0 5 6 3 0 0 0 12.0252523
537 2 3.0409999 17.9899998 4.8049999 0 0 1 3 3 5 0 0 0 11.4369307
539 2 4.2459998 -21.9500008 -16.6200009 0 0 1 3 5 4 0 0 0 11.7010422
548 4 2.501 -8.0190001 1.555 0 0 2 0 9 2 1 0 0 12.1759386
549 5 -13.8800002 12.5500002 -17.1900005 0 0 0 2 8 4 0 0 0 12.6595726
553 4 10.8800002 4.79 -21.3299999 0 0 0 0 12 0 0 0 0 11.767992
559 4 17.5799999 5.6459999 -21.4500008 0 0 0 1 10 3 0 0 0 12.3573761
561 4 5.671 15.1700001 -5.6570001 0 0 1 2 6 3 1 0 0 11.921031
564 4 -1.928 3.9820002 -11.9099998 0 0 0 3 7 4 1 0 0 12.2006884
569 2 11.4300003 -3.204 4.4120002 0 0 2 2 6 3 0 0 0 11.7291804
570 4 -12.8199997 -20.2999992 -5.9720002 0 0 0 4 6 3 0 0 0 12.278842
571 5 -12.2299996 5.9109998 8.2410002 0 0 1 3 6 3 1 0 0 12.5809241
597 2 2.414 -17.4400006 -13.4300003 0 0 0 3 5 3 1 0 0 11.7058401
613 5 18.9400006 -5.0999999 -1.7710001 0 0 1 2 7 5 0 0 0 12.1400242
618 2 1.457 6.638 -12.7700005 0 0 0 0 12 0 0 0 0 11.2090378
623 4 18.5100003 17.3199997 4.902 0 0 0 1 10 3 0 0 0 12.3182449
638 5 -8.8030005 -8.6499996 8.7410002 0 0 0 3 10 2 0 0 0 12.1129427
643 5 -9.4589997 4.204 2.2560001 0 0 0 1 10 2 0 0 0 11.6071272
645 5 -10.8500004 16.7800007 6.0289998 0 0 0 4 8 1 0 0 0 11.934372
654 4 7.4229999 -17.1299992 0.8961 0 0 0 2 8 5 0 0 0 12.9967098
671 2 5.7280002 -9.7550001 9.4359999 0 0 0 0 12 0 0 0 0 11.3591471
681 2 -14.5600004 20.2900009 -7.9790002 0 0 1 2 7 3 0 0 0 11.4935847
718 2 -17.5900002 -20.1200008 -18.0599995 0 0 0 3 6 4 0 0 0 12.0159149
727 5 -2.7560001 -20.8799992 21.4400006 0 0 0 5 3 5 1 0 0 13.1983042
729 1 4.8800002 -22.0300007 9.0150003 0 0 0 2 10 1 0 0 0 11.6381665
741 4 5.3179999 15.8400002 1.955 0 0 0 3 6 5 0 0 0 12.2519255
742 4 14.9899998 2.806 9.625 0 0 0 4 5 4 1 0 0 12.4031496
755 5 18.0200005 -14.2299996 -17.5599995 0 0 0 4 6 4 0 0 0 11.8098126
758 2 7.923 11.5500002 14.9399996 0 0 0 0 12 0 0 0 0 11.9045344
760 1 9.8879996 8.9510002 -17.2199993 0 0 0 0 12 0 0 0 0 11.3969574
765 1 -1.197 12.0 -21.2800007 0 0 0 0 12 0 0 0 0 11.4864331
776 4 -18.5 15.9099998 9.3599997 0 0 0 1 12 1 0 0 0 12.0952072
818 5 8.5019999 9.9989996 5.7540002 0 0 1 2 9 3 0 0 0 12.7164889
842 5 13.3900004 1.1950001 -6.6890002 0 0 0 2 10 1 0 0 0 12.2387715
849 4 -0.1491 3.902 11.9899998 0 0 0 2 8 5 0 0 0 12.378212
850 5 5.73 18.5300007 -18.1499996 0 0 0 0 12 0 0 0 0 11.5145855
870 2 -17.7800007 10.0299997 -1.194 0 0 0 0 12 0 0 0 0 11.2676153
882 3 -7.5609999 16.7199993 16.4599991 0 0 1 1 8 3 1 0 0 12.5505467
899 4 1.685 -9.3830004 -0.4844 0 0 0 0 12 2 0 0 0 12.0115967
901 4 1.686 19.2999992 -1.331 0 0 0 1 10 4 0 0 0 12.8838778
915 5 -1.5340001 -22.0 -3.984 0 0 1 2 7 5 0 0 0 12.5523539
926 5 1.2280001 7.704 9.092 0 0 0 2 10 3 0 0 0 13.3524122
936 1 2.8540002 13.3800001 -14.87 0 0 0 2 8 2 0 0 0 11.1210661
941 5 3.4979999 4.842 14.2799997 0 0 0 1 10 4 0 0 0 13.168541
946 4 0.538 -13.6899996 20.9300004 0 0 0 0 12 4 0 0 0 13.7216206
950 3 0.08767 -1.472 5.9510002 0 0 0 2 8 5 0 0 0 12.8139334
951 5 10.1499996 16.9599992 -0.8872 0 0 0 1 10 4 0 0 0 13.3867655
958 5 14.6499996 8.0319996 -2.0380001 0 0 0 2 10 1 0 0 0 11.3584614
961 2 -1.2000001 18.7600003 -17.6499996 0 0 0 3 6 5 0 0 0 12.1541414
962 4 -3.573 -14.5900002 -11.5100003 0 0 1 1 9 3 0 0 0 12.3804789
963 5 -6.0050001 -12.7600003 -15.2600002 0 0 0 3 6 4 0 0 0 11.3091002
978 4 -14.9300004 -19.5100003 13.4899998 0 0 0 1 9 2 1 0 0 12.0361919
990 4 12.8999996 16.4899998 -0.7202 0 0 1 1 9 4 0 0 0 13.4405346
995 1 4.7129998 -17.3400002 13.0 0 0 0 0 12 2 0 0 0 12.2921629
1007 2 5.5349999 -4.7919998 -2.6429999 0 0 0 0 12 0 0 0 0 10.673235
1010 4 -14.1899996 3.7149999 -20.8199997 0 0 0 1 10 4 0 0 0 12.533639
1025 1 5.2709999 -12.8800002 11.6899996 0 0 0 4 6 3 0 0 0 11.2857113
1047 4 -8.5649996 21.0 2.82 0 0 0 1 10 2 0 0 0 12.5802822
1050 1 3.698 -10.3699999 18.5499993 0 0 0 0 12 0 0 0 0 11.3023138
1051 4 6.9860002 17.8600006 -19.9300004 0 0 0 1 12 2 0 0 0 12.7225447
1055 2 12.0699997 5.303 -8.066 0 0 1 3 7 2 0 0 0 11.5704384
1057 4 15.8999996 -8.3389998 -12.0100002 0 0 0 2 8 4 0 0 0 11.7818098
1059 4 -4.0650001 13.0500002 2.606 0 0 0 3 6 5 0 0 0 12.5353546
1063 5 -9.224 9.4910002 9.5530005 0 0 0 2 10 2 0 0 0 12.67484
1068 5 -17.4200001 14.75 -2.981 0 0 1 1 9 3 0 0 0 11.9160214
1072 4 -12.0799999 21.2800007 10.3699999 0 0 0 2 8 4 0 0 0 12.3297625
1089 4 16.4699993 -20.4500008 -16.4799996 0 0 0 0 12 3 0 0 0 12.4625082
1094 5 -16.3600006 0.3695 11.1899996 0 0 0 3 6 6 0 0 0 12.6689482
1110 5 4.737 -2.5290001 18.7299996 0 0 1 1 9 3 0 0 0 11.9611702
1118 1 17.4200001 -14.0799999 0.8696 0 0 0 0 12 0 0 0 0 10.7621546
1128 2 6.9660002 -19.4799996 0.7094 0 0 0 0 12 0 0 0 0 11.1678667
1153 5 9.3909998 -15.3299999 19.0100002 0 0 1 1 11 1 0 0 0 12.7978058
1159 4 6.6729999 -10.1400003 15.2100001 0 0 1 1 9 4 0 0 0 12.6187525
1167 4 -5.5409999 20.8500004 -12.3100004 0 0 1 2 7 4 0 0 0 12.2152243
1169 2 18.8099995 1.814 -19.5499993 0 0 0 0 12 0 0 0 0 11.1010695
1173 5 -18.2399998 -17.7999993 -17.2600002 0 0 0 3 6 4 0 0 0 12.7845345
1178 2 9.7040005 5.8790002 10.1400003 0 0 0 4 4 2 2 0 0 12.8298311
1187 5 -1.979 18.5300007 -13.87 0 0 0 3 8 3 0 0 0 12.6480103
1188 4 13.8000002 16.0499992 8.1610003 0 0 0 0 12 2 0 0 0 12.0696459
1189 4 1.821 21.1200008 20.9799996 0 0 0 3 6 6 0 0 0 12.0562296
1190 2 9.2919998 -17.7900009 -16.8500004 0 0 0 1 10 2 0 0 0 10.8892956
1194 5 -15.9200002 12.6000004 17.6100006 0 0 0 2 8 2 0 0 0 11.9717026
1199 4 -11.6999998 -9.9969998 -15.1999998 0 0 0 1 10 4 0 0 0 12.7317133
1214 5 -7.638 8.9110004 -21.4200001 0 0 0 2 8 2 0 0 0 11.6361466
1222 1 -6.4730001 16.9200002 -1.612 0 0 0 1 10 2 0 0 0 12.7851029
1244 3 -5.3390002 -10.6400004 -9.2180004 0 0 0 0 12 0 0 0 0 11.6265927
1247 1 15.0100002 0.9658 -19.7800007 0 0 1 3 7 3 0 0 0 11.9585676
1261 4 7.2969999 18.4400006 20.5300007 0 0 1 5 3 2 2 0 0 11.6113281
1264 2 12.7100001 16.8600006 10.29 0 0 1 0 11 1 0 0 0 11.7837534
1272 4 19.2399998 18.5599995 -9.3219996 0 0 0 5 6 2 0 0 0 12.0710468
1276 4 -15.1099997 -20.8799992 9.2449999 0 0 1 2 7 5 0 0 0 11.4192658
1280 5 -5.3109999 1.31 -11.5500002 0 0 0 1 10 2 0 0 0 12.0756321
1288 5 -6.8600002 -9.3000002 15.96 0 0 0 1 10 2 0 0 0 12.6124735
1299 4 0.09542 -10.8299999 6.2030001 0 0 0 1 10 4 0 0 0 13.453641
1302 4 10.6899996 -1.6360001 -18.8999996 0 0 0 1 10 3 0 0 0 12.1062708
1303 2 -1.425 5.211 -0.1093 0 0 0 2 8 2 0 0 0 11.8378506
1305 5 10.8000002 13.87 4.9380002 0 0 0 0 12 2 0 0 0 12.1129952
1320 2 -9.6350003 12.5699997 12.3299999 0 0 0 0 12 0 0 0 0 11.3857107
1338 2 -6.0040002 20.7999993 -19.0900002 0 0 1 2 7 2 0 0 0 11.4774161
1339 5 9.0369997 2.2650001 3.7320001 0 0 1 2 7 4 1 0 0 13.0671759
1342 4 -7.8590002 18.6599999 18.0699997 0 0 0 2 8 5 0 0 0 13.0587158
1363 2 -4.698 -4.4640003 2.51 0 0 0 1 10 3 0 0 0 12.0278244
1370 4 -14.3900004 -20.1200008 16.0 0 0 0 3 9 2 1 0 0 13.1432104
1377 4 -2.095 -3.6889999 -12.6099997 0 0 0 1 10 4 0 0 0 13.0341702
1387 3 -9.7139998 -22.0 6.7550001 0 0 0 0 12 3 0 0 0 13.649808
1391 4 8.1969996 21.4099999 -13.2100001 0 0 0 4 4 6 0 0 0 12.2305231
1398 4 -16.4899998 -6.4359999 -17.4899998 0 0 1 2 7 4 2 0 0 13.4709215
1434 5 -7.7100001 9.4969998 -11.6999998 0 0 0 5 3 5 1 0 0 12.638115
1435 4 -16.6299992 -11.9099998 -3.089 0 0 0 0 12 2 0 0 0 12.2474375
1445 2 7.5939999 2.983 8.4280005 0 0 0 0 12 0 0 0 0 11.6903811
1456 4 -4.651 -10.1000004 -19.9099998 0 0 0 3 6 6 0 0 0 12.2661505
1457 4 -4.04 2.881 3.8020001 0 0 0 1 10 2 0 0 0 12.1709995
1463 4 7.217 17.1399994 0.3546 0 0 0 0 12 2 0 0 0 13.2250271
1477 2 0.4191 -6.0170002 -19.4300003 0 0 0 3 6 4 0 0 0 12.0003986
1492 5 -0.7407 20.4899998 9.6630001 0 0 0 2 8 4 0 0 0 12.6054383
1502 5 5.5640002 6.5689998 -4.448 0 0 0 2 10 2 0 0 0 12.4927168
1509 5 9.1219997 -19.8799992 16.5200005 0 0 0 2 8 4 0 0 0 12.4869614
1515 5 -5.9200002 0.7989 -19.4500008 0 0 0 0 12 0 0 0 0 11.6621428
1523 2 -7.3720002 13.4399996 -21.2399998 0 0 0 2 8 2 0 0 0 11.3419027
1545 4 8.4180002 -9.0360003 -16.6499996 0 0 0 2 8 2 0 0 0 11.7705632
1556 5 17.3999996 -7.1589999 -7.956 0 0 1 3 5 6 0 0 0 12.0699587
1563 5 -19.5 6.4930001 -9.0600004 0 0 0 2 8 4 0 0 0 12.1340408
1565 2 -16.6399994 -7.5250001 -5.645 0 0 0 0 12 0 0 0 0 10.8877268
1567 4 -18.3799992 18.3099995 -21.7700005 0 0 0 2 10 2 0 0 0 12.6093817
1583 2 -1.38 -7.3140001 2.53 0 0 0 1 10 3 0 0 0 12.4747
1587 5 -14.2399998 -0.112 -14.4399996 0 0 0 1 10 3 0 0 0 12.283392
1599 4 15.75 18.5 -21.0200005 0 0 0 2 8 4 0 0 0 13.0544882
1605 5 14.5 12.9300004 -2.73 0 0 1 1 9 3 0 0 0 11.6469269
1607 4 1.2740001 11.0200005 18.3799992 0 0 0 0 12 0 0 0 0 12.1202049
1615 4 13.3299999 20.7000008 0.4269 0 0 1 3 5 6 0 0 0 11.3445072
1620 4 -9.849 -1.4880001 19.5699997 0 0 0 2 8 1 2 0 0 12.5438442
1627 4 -15.6199999 -20.0 -9.2069998 0 0 0 0 12 0 0 0 0 11.2358055
1634 5 14.04 17.9599992 -6.0380001 0 0 2 0 8 4 0 0 0 12.3225804
1642 4 12.3500004 -19.3099995 6.2090001 0 0 0 0 12 0 0 0 0 11.2064104
1657 5 -6.961 15.3400002 13.9799996 0 0 0 1 10 4 0 0 0 12.7456846
1663 2 -3.993 -3.3599999 11.0 0 0 0 0 12 0 0 0 0 11.5852127
1669 4 -5.2350001 -20.2199993 -5.355 0 0 0 0 12 3 0 0 0 13.3435507
1692 5 -13.3199997 -20.7700005 11.8500004 0 0 0 1 10 2 0 0 0 11.7801247
1694 2 13.1499996 -17.7299996 -3.806 0 0 0 1 10 2 0 0 0 11.4914608
1698 4 -3.5290001 -1.418 21.1900005 0 0 0 1 10 2 0 0 0 11.6507874
1702 2 9.2620001 -10.1700001 14.6300001 0 0 0 2 8 1 0 0 0 11.3190794
1706 4 8.2849999 -0.05349 -9.5539999 0 0 0 3 6 4 0 0 0 12.0268803
1722 5 0.6684 -1.6900001 -2.4519999 0 0 0 3 6 5 0 0 0 12.3492336
1726 5 5.4520002 -8.2229996 -5.994 0 0 0 1 10 2 0 0 0 11.9466716
1730 5 15.6899996 20.1900005 9.3170004 0 0 0 3 6 5 0 0 0 12.9134952
1766 4 -3.944 -18.4799996 -3.1819999 0 0 0 0 12 2 0 0 0 12.286953
1774 4 1.611 1.581 -12.6199999 0 0 0 0 12 3 0 0 0 12.6299477
1781 5 -17.2800007 19.5499993 7.3039999 0 0 0 4 4 6 0 0 0 12.1514702
1795 4 -0.4934 20.6299992 -13.5299998 0 0 0 0 12 0 0 0 0 11.6290198
1805 4 -14.0699997 17.6599999 9.5410004 0 0 2 1 8 2 2 0 0 12.8267069
1812 4 13.5900002 -8.198 15.3500004 0 0 0 2 8 5 0 0 0 12.5381985
1818 4 -3.7479999 0.4647 17.1700001 0 0 0 2 8 2 2 0 0 12.5125704
1823 5 -19.6700001 -21.1399994 -8.1529999 0 0 1 3 5 5 0 0 0 13.0668812
1826 2 -18.0300007 -11.1499996 13.1700001 0 0 1 2 7 2 0 0 0 11.1068335
1829 5 -8.731 16.6700001 -19.3899994 0 0 0 0 12 0 0 0 0 10.8311339
1847 4 7.3810001 -21.75 -10.9099998 0 0 0 0 12 0 0 0 0 11.3037672
1851 1 -2.3900001 20.4799996 16.2999992 0 0 0 0 12 0 0 0 0 10.986228
1865 2 14.6000004 -6.8239999 5.7459998 0 0 0 2 9 3 1 0 0 12.7545519
1873 4 6.0539999 -19.7299996 5.4190002 0 0 0 0 12 2 0 0 0 13.0262775
1882 2 12.25 12.0 15.75 0 0 1 1 9 3 0 0 0 12.6997071
1891 1 -18.0 -2.523 -5.3979998 0 0 0 2 8 2 0 0 0 11.2686062
1905 4 -7.3979998 -6.04 12.1099997 0 0 0 1 10 4 0 0 0 12.7052136
1906 2 -5.224 17.2999992 0.8736 0 0 0 1 10 2 0 0 0 11.7119684
1920 5 13.4200001 -5.2140002 7.4439998 0 0 0 3 10 2 0 0 0 13.2443552
1942 5 7.356 -19.7399998 14.9099998 0 0 0 1 10 2 0 0 0 11.4502135
1947 5 4.389 6.1500001 10.6999998 0 0 1 3 6 4 1 0 0 13.5110321
1951 4 8.0450001 21.1000004 17.2999992 0 0 1 0 11 4 0 0 0 13.4206095
1965 2 -4.0040002 1.298 -20.8899994 0 0 1 2 7 5 0 0 0 12.2946901
1970 2 18.9099998 19.7199993 -19.1499996 0 0 0 0 12 0 0 0 0 11.2838707
1975 4 -4.5669999 2.369 -18.5400009 0 0 0 1 10 2 0 0 0 12.1189108
1990 5 9.4540005 -8.929 -5.1719999 0 0 0 0 12 0 0 0 0 11.2564802
2013 5 1.645 12.5799999 -5.8800002 0 0 0 2 7 2 1 0 0 11.3792372
2016 4 -16.8299999 -13.6099997 13.6199999 0 0 0 1 10 2 0 0 0 12.0459385
2020 2 2.2550001 -9.1490002 -17.3500004 0 0 0 2 10 0 0 0 0 11.2179985
2023 5 -18.4799996 -18.0799999 21.5400009 0 0 0 1 10 4 0 0 0 12.7569037
2029 4 4.4270001 3.1900001 15.9700004 0 0 0 3 6 6 0 0 0 12.4328528
2039 4 -18.8299999 20.3799992 20.6000004 0 0 0 4 8 1 0 0 0 11.7477045
2041 5 19.6299992 1.332 16.2600002 0 0 0 0 12 2 0 0 0 11.8898612
2046 2 -12.6000004 -9.8929996 4.2750001 0 0 0 0 12 0 0 0 0 11.5070391
2053 2 -13.5699997 6.3769999 -1.327 0 0 1 1 9 3 0 0 0 12.5068875
2054 4 17.0100002 -3.3340001 6.6890002 0 0 0 0 12 1 1 0 0 12.503563
2066 5 -3.7620001 -17.1499996 10.5900002 0 0 1 2 9 4 0 0 0 13.6133976
2082 2 -11.87 -15.0500002 -12.8500004 0 0 2 2 5 4 1 0 0 11.1279335
2089 1 -9.7399998 -5.164 12.0500002 0 0 0 4 6 2 0 0 0 11.2713909
2097 5 2.4270001 -7.283 -1.324 0 0 0 1 10 4 0 0 0 12.9477968
2112 4 -18.1599999 -2.991 1.318 0 0 0 2 8 4 0 0 0 11.8906938
2116 5 15.9399996 -14.6700001 -11.2200003 0 0 0 3 6 4 0 0 0 11.7021656
2119 2 -12.4799996 14.4600001 -4.0159998 0 0 0 0 12 0 0 0 0 11.1503763
2124 5 19.2099991 -15.6300001 13.87 0 0 0 1 10 2 0 0 0 12.3900681
2126 5 16.8199997 -6.5520001 -13.3199997 0 0 1 2 7 2 2 0 0 12.0788651
2144 4 13.9200002 7.184 4.902 0 0 0 2 10 1 0 0 0 11.5268517
2147 1 15.7299996 -14.3800001 -16.1000004 0 0 1 0 11 1 0 0 0 11.2503061
2148 2 14.2799997 9.9899998 -6.6620002 0 0 0 0 12 0 0 0 0 11.2367535
2151 2 -7.4380002 6.7119999 21.3899994 0 0 0 0 12 0 0 0 0 11.229641
2163 2 -1.4830001 15.7600003 10.5200005 0 0 0 0 12 0 0 0 0 11.0926476
2169 1 -17.0200005 -21.5400009 -7.7620001 0 0 0 3 6 4 0 0 0 11.304636
2180 5 3.2179999 1.615 -10.0600004 0 0 2 1 7 3 1 1 0 12.8849068
2202 4 -11.8100004 11.8800002 18.9200002 0 0 0 2 9 3 1 0 0 12.7755604
2208 2 9.4429999 12.0 3.9260002 0 0 0 3 6 4 0 0 0 12.3750086
2213 2 -16.0400009 -9.6169997 12.8199997 0 0 0 3 6 3 0 0 0 11.4799252
2214 2 6.2160001 -0.1316 -4.4180002 0 0 0 2 8 2 0 0 0 12.0003214
2224 5 -6.3979998 -18.7399998 -17.6499996 0 0 0 2 8 2 0 0 0 11.8525182
2225 4 -18.7800007 -7.6440001 18.2800007 0 0 1 2 6 3 1 0 0 12.0032101
2228 5 -8.9309998 16.3500004 -14.0100002 0 0 0 1 10 3 0 0 0 12.0546923
2232 3 7.0510001 -17.8299999 -9.6470003 0 0 2 2 6 3 2 0 0 11.9936094
2256 2 -12.8299999 3.4849999 -16.1800003 0 0 1 3 7 2 0 0 0 12.3132944
2273 5 14.7399998 -20.5699997 9.3459997 0 0 0 0 11 2 1 0 0 12.3951149
2284 5 15.1199999 14.3500004 -14.7700005 0 0 1 1 8 5 1 0 0 12.4806614
2285 4 -4.8709998 -8.0780001 -21.7700005 0 0 0 1 10 2 0 0 0 12.2348871
2295 1 -12.4499998 12.1199999 6.2490001 0 0 0 0 12 0 0 0 0 10.8678312
2296 4 -14.87 2.7219999 8.4130001 0 0 0 2 8 4 0 0 0 12.6221047
2298 5 13.7700005 21.0100002 -6.5209999 0 0 0 1 10 4 0 0 0 13.0683193
2300 5 -20.0799999 10.4300003 21.4300003 0 0 0 2 10 2 0 0 0 11.5620213
2304 4 16.2099991 -8.1260004 10.8100004 0 0 1 0 10 3 1 0 0 12.7540875
2314 4 -2.342 21.4899998 -20.6000004 0 0 0 3 8 3 0 0 0 12.3131733
2317 4 0.1547 1.814 19.7999993 0 0 1 0 9 3 0 0 0 11.7468357
2322 4 8.9350004 -7.9390002 -9.4169998 0 0 1 2 6 3 1 0 0 11.8326874
2354 2 -16.3999996 19.1800003 -9.2729998 0 0 1 3 5 5 0 0 0 11.6874542
2357 5 -19.8999996 3.4230001 1.161 0 0 0 3 6 5 0 0 0 12.0458231
2368 2 5.4699998 -15.6099997 -15.3100004 0 0 0 1 10 2 0 0 0 12.2352753
2369 5 1.612 14.3400002 -10.2799997 0 0 0 1 12 2 0 0 0 12.9350148
2380 4 -16.0400009 -14.2700005 11.29 0 0 0 2 8 3 0 0 0 12.0051641
2385 4 -6.6199999 2.842 14.1899996 0 0 0 0 12 4 0 0 0 12.9482432
2407 2 3.049 7.7519999 2.1889999 0 0 0 3 6 3 0 0 0 11.9110318
2409 5 -17.0499992 19.3799992 -3.9230002 0 0 0 2 10 3 0 0 0 13.7234154
2418 4 -16.3799992 19.8299999 5.0749998 0 0 0 2 8 4 0 0 0 12.1638947
2427 4 -6.0580001 0.9015 -16.6900006 0 0 0 1 10 3 0 0 0 12.0333242
2430 2 -16.5799999 1.356 -14.04 0 0 0 0 12 0 0 0 0 11.8614922
2441 2 -5.0780001 -16.8799992 8.4930001 0 0 0 2 8 3 0 0 0 12.932992
2446 2 10.1199999 -9.9350004 -12.8199997 0 0 0 0 12 0 0 0 0 11.0637016
2451 2 -8.9759998 -4.099 1.143 0 0 0 3 8 2 0 0 0 11.4515839
2457 4 15.6899996 3.441 7.3189998 0 0 0 3 7 4 1 0 0 13.1798916
2466 2 -16.8400002 4.1880002 7.7340002 0 0 0 0 12 0 0 0 0 11.6096945
2482 5 -6.3990002 0.6496001 -21.7299996 0 0 0 1 10 2 0 0 0 11.0705605
2489 2 8.0690002 -5.9899998 -8.2670002 0 0 0 3 8 2 0 0 0 11.980423
2494 2 -10.25 -4.5700002 -8.5839997 0 0 0 0 12 0 0 0 0 11.2840958
2496 4 8.441 8.1309996 7.5910001 0 0 0 1 10 3 0 0 0 13.2889977
2506 2 -8.0389996 20.1700001 0.4726 0 0 0 1 10 2 0 0 0 12.3729782
2507 4 -19.3999996 -17.1000004 3.836 0 0 0 1 10 4 0 0 0 12.7794123
2513 5 18.0699997 17.4300003 -20.0900002 0 0 0 1 10 3 0 0 0 12.3447619
2520 4 -13.9499998 -11.9399996 18.6499996 0 0 0 2 10 2 0 0 0 12.7578068
2521 2 2.4990001 15.0799999 10.2299996 0 0 0 0 12 0 0 0 0 11.0370188
2523 4 16.0200005 12.3299999 20.9500008 0 0 0 2 9 3 1 0 0 13.4171429
2527 1 -6.4549999 -11.3100004 -13.5699997 0 0 2 2 8 2 0 0 0 11.6053896
2536 4 -18.4500008 4.9980002 -11.0600004 0 0 0 0 12 3 0 0 0 12.8901464
2541 2 -5.3369999 13.6400004 20.1399994 0 0 0 5 7 1 1 0 0 12.966756
2543 5 -11.04 1.831 -1.024 0 0 0 1 10 4 0 0 0 13.2660599
2545 5 -10.6000004 3.6300001 10.8900004 0 0 1 3 7 4 0 0 0 12.2344771
2548 2 -3.174 -6.6700001 -16.8999996 0 0 0 0 12 2 0 0 0 12.6443424
2553 2 -4.2459998 3.389 -12.3599997 0 0 0 2 10 1 0 0 0 11.360878
2557 4 1.726 17.2199993 -14.5200005 0 0 0 2 8 4 0 0 0 12.3556442
2562 5 -1.679 18.6299992 -20.3199997 0 0 0 2 8 4 0 0 0 12.5678616
2564 4 10.6800003 9.8730002 -11.87 0 0 0 4 6 6 0 0 0 12.5906315
2573 5 16.6800003 -3.875 13.7799998 0 0 0 4 6 3 0 0 0 11.8645812
2574 2 -2.365 -21.2099991 4.1020002 0 0 0 0 12 0 0 0 0 11.2964172
2594 2 11.3400002 -2.342 -8.0909996 0 0 0 0 12 3 0 0 0 12.0291891
2596 4 19.5799999 15.0799999 19.9300004 0 0 1 2 7 2 2 0 0 11.5581684
2619 5 -2.8110001 -7.0999999 21.0599995 0 0 0 0 12 2 0 0 0 12.284152
2627 4 3.2620001 -15.1599999 -16.8199997 0 0 1 1 9 4 0 0 0 12.5877905
2632 4 6.4380002 1.038 -20.7000008 0 0 0 1 10 2 0 0 0 12.2676582
2644 2 7.9650002 17.4599991 10.1099997 0 0 0 3 8 2 0 0 0 11.5198117
2647 4 19.5100003 -5.928 -18.6499996 0 0 0 1 10 4 0 0 0 12.5396109
2657 4 -9.0240002 18.7800007 -14.79 0 0 1 0 9 3 0 0 0 12.0019846
2664 5 -14.0299997 -5.164 -18.1200008 0 0 0 4 5 5 1 0 0 12.2379227
2673 4 -16.2199993 -4.4070001 14.3000002 0 0 0 2 8 4 0 0 0 12.8050595
2675 4 -7.6700001 4.6900001 10.4099999 0 0 1 1 9 3 0 0 0 12.0430002
2680 4 -13.6899996 12.9099998 -2.3110001 0 0 0 0 12 3 0 0 0 13.0540724
2695 4 1.5800001 -7.151 21.0200005 0 0 0 1 12 2 0 0 0 12.5134897
2713 1 -19.5599995 14.4899998 18.0 0 0 0 4 8 1 0 0 0 12.138689
2719 4 -14.1599999 -16.1100006 8.5649996 0 0 0 0 12 0 0 0 0 11.1966944
2722 5 -13.2200003 20.5 0.9474 0 0 1 1 9 3 0 0 0 11.9448224
2754 5 -13.5200005 9.0769997 16.2299996 0 0 0 1 10 2 0 0 0 11.2836018
2760 5 0.1905 0.5426 -20.1499996 0 0 1 1 9 4 0 0 0 12.6988688
2768 2 12.3000002 5.8530002 -5.796 0 0 1 4 5 3 0 0 0 11.7328568
2774 4 15.1599999 0.947 6.8179999 0 0 0 2 8 5 0 0 0 12.3636675
2778 4 8.1859999 12.1000004 17.6499996 0 0 0 0 12 4 0 0 0 13.9418918
2782 4 -7.243 -20.9799996 13.29 0 0 0 1 10 4 0 0 0 13.2996721
2787 4 -16.9099998 1.9400002 6.7560001 0 0 0 3 8 3 0 0 0 12.5368347
2790 4 0.971 17.8899994 2.949 0 0 0 3 6 8 0 0 0 13.7352906
2799 4 6.7610002 -12.1499996 -22.0799999 0 0 0 4 12 0 0 0 0 13.8114319
2800 4 -10.6300001 16.6399994 -20.6299992 0 0 0 3 6 4 0 0 0 11.3226452
2802 5 -0.2777 11.6999998 11.0200005 0 0 2 2 6 5 0 0 0 13.1210899
2807 5 -18.8400002 14.5 -20.9799996 0 0 0 0 12 0 0 0 0 10.9132442
2814 4 -15.9499998 -7.764 8.2489996 0 0 0 3 7 5 1 0 0 13.2007189
2820 4 18.6800003 -10.9399996 9.0570002 0 0 0 1 10 3 0 0 0 11.6525603
2823 4 -9.1499996 12.5900002 18.7199993 0 0 2 1 7 3 1 1 0 13.7540331
2830 4 -12.9499998 -21.7099991 -16.4599991 0 0 0 2 10 2 0 0 0 12.6999531
2848 4 19.7600003 -17.3899994 0.9905 0 0 0 2 8 4 0 0 0 12.0090103
2851 3 -10.7299996 2.1040001 -15.5699997 0 0 0 1 10 4 0 0 0 13.2174025
2857 4 -0.1831 20.9599992 -2.6700001 0 0 0 1 10 3 0 0 0 11.9232264
2885 2 18.6000004 17.4799996 -17.7399998 0 0 0 0 12 3 0 0 0 12.7457867
2895 4 9.6099997 -19.8500004 -4.7820001 0 0 1 4 3 5 2 0 0 12.0454416
2906 4 18.8600006 9.4239998 1.979 0 0 0 0 12 2 0 0 0 12.0059929
2908 5 0.9827 8.4329996 0.8003 0 0 0 2 8 4 0 0 0 12.1604137
2914 2 2.721 -1.6970001 -6.4099999 0 0 0 2 8 2 0 0 0 11.2955332
2932 4 -6.5570002 -14.1700001 -1.55 0 0 0 1 10 3 0 0 0 12.7437544
2955 4 -4.4159999 8.3979998 -14.1099997 0 0 0 2 10 2 0 0 0 12.427927
2966 5 -16.1800003 10.1499996 11.9099998 0 0 0 1 10 2 0 0 0 11.6326838
2975 5 11.5500002 -4.9699998 -6.7610002 0 0 0 4 5 4 1 0 0 13.0301743
2985 4 0.5628 3.385 -16.6800003 0 0 0 1 10 4 0 0 0 12.8967142
2993 4 17.7800007 -0.3579 9.9069996 0 0 1 2 7 5 0 0 0 12.2192183
2994 4 -6.8969998 -15.0299997 -14.6099997 0 0 0 1 10 4 0 0 0 12.1061907
3004 5 15.3800001 -2.099 -9.2930002 0 0 0 3 8 4 0 0 0 12.3195973
3009 4 12.1899996 -10.2299996 -7.8590002 0 0 0 1 12 1 0 0 0 12.0218143
3020 5 10.8199997 20.2000008 -9.5019999 0 0 0 3 6 4 0 0 0 11.9955846
3025 2 -13.3699999 -9.2539997 -3.7260001 0 0 0 3 6 4 0 0 0 11.9706278
3038 2 -14.4200001 6.4619999 19.9200002 0 0 0 0 12 0 0 0 0 11.1876183
3060 4 -8.0290003 20.8799992 -15.5299998 0 0 0 0 12 0 0 0 0 10.854662
3068 2 9.2539997 3.5480001 6.3400002 0 0 0 0 12 3 0 0 0 12.834158
3100 4 1.192 2.049 0.2416 0 0 0 1 10 3 0 0 0 12.344203
3113 2 -15.3800001 -19.2900009 -14.5900002 0 0 0 1 10 2 0 0 0 12.0819683
3115 4 1.985 8.198 -2.474 0 0 0 4 5 5 1 0 0 13.1580916
3118 4 6.6760001 -2.56 -3.4360001 0 0 0 2 8 5 0 0 0 12.769536
3134 2 7.5320001 7.7210002 -14.3800001 0 0 0 1 10 2 0 0 0 11.2816401
3150 2 19.4500008 19.1000004 8.4069996 0 0 0 2 8 2 0 0 0 11.3648911
3151 4 -13.75 16.3799992 20.4699993 0 0 0 2 8 4 0 0 0 11.7422734
3152 4 3.873 -17.2600002 -15.4099999 0 0 0 0 12 0 0 0 0 11.3278866
3158 2 16.5599995 -7.389 3.8120001 0 0 0 1 10 2 0 0 0 11.4382344
3159 5 -4.0819998 15.3199997 -5.6620002 0 0 0 2 8 4 0 0 0 11.8606216
3165 5 17.3199997 -15.2399998 18.5499993 0 0 0 2 8 4 0 0 0 12.6562796
3167 2 2.2839999 2.717 20.75 0 0 0 2 8 3 0 0 0 12.1878233
3174 4 -0.9521 0.2223 -5.4169998 0 0 0 4 6 3 0 0 0 12.1197233
3185 5 4.204 5.2810001 6.619 0 0 1 2 7 2 2 0 0 12.2635489
3186 5 10.5500002 -1.527 -1.678 0 0 1 1 9 4 0 0 0 13.5128422
3189 5 -16.0300007 -13.8400002 18.8999996 0 0 2 3 5 4 1 0 0 12.1553898
3199 5 12.0100002 18.4699993 0.6468 0 0 0 1 10 2 0 0 0 12.6273909
3201 5 -12.7600003 19.6100006 -12.6999998 0 0 1 2 7 4 0 0 0 12.2356539
3220 4 -6.4510002 19.3400002 -14.1899996 0 0 0 1 10 3 0 0 0 12.4677058
3222 4 17.9699994 -2.4860001 -10.0100002 0 0 0 2 8 5 0 0 0 11.9299956
3230 5 -15.9399996 7.0349998 -7.1350002 0 0 0 2 8 4 0 0 0 12.2529535
3233 4 -17.7099991 -6.2579999 14.4899998 0 0 0 1 10 3 0 0 0 12.6972714
3234 4 -2.6400001 -7.3740001 5.1900001 0 0 1 0 11 4 0 0 0 12.9990368
3240 1 5.877 8.4630003 -12.6999998 0 0 0 0 12 0 0 0 0 11.7399245
3241 4 -10.6400004 21.1900005 -14.4200001 0 0 0 1 10 5 0 0 0 13.6377774
3246 5 3.8299999 -21.1900005 4.1440001 0 0 0 3 6 5 0 0 0 13.1585121
3267 5 9.2089996 -13.87 -7.8150001 0 0 0 1 10 4 0 0 0 12.955782
3286 5 16.0499992 -7.797 14.9799996 0 0 0 0 12 0 0 0 0 11.311367
3287 5 12.9099998 15.3699999 -16.3899994 0 0 0 0 12 0 0 0 0 11.2228699
3294 2 -20.2399998 20.6000004 12.87 0 0 0 0 12 0 0 0 0 10.9327278
3295 4 -16.1900005 -1.824 -19.9599992 0 0 0 0 12 2 0 0 0 11.9001018
3298 5 9.2580004 -21.1800003 14.3699999 0 0 0 1 10 2 0 0 0 12.0222082
3315 4 8.0010004 -10.2600002 9.9139996 0 0 0 2 8 2 0 0 0 12.0518827
3323 5 -13.8299999 1.084 12.4399996 0 0 1 3 7 4 0 0 0 12.9850216
3337 5 -4.1859999 -16.5599995 1.333 0 0 0 4 4 7 0 0 0 12.3292685
3343 5 -9.4180002 19.1200008 -6.5089998 0 0 0 0 12 0 0 0 0 11.6551018
3346 2 -13.4399996 -15.9300004 -4.422 0 0 0 1 10 2 0 0 0 11.402977
3357 4 -9.9969998 12.54 -6.678 0 0 1 2 7 4 0 0 0 11.4410801
3362 1 -15.0299997 -5.8280001 -20.6299992 0 0 0 4 5 4 1 0 0 12.0308123
3365 5 -12.96 -2.905 -0.5493 0 0 0 4 6 5 0 0 0 12.6988383
3406 5 -7.6599999 6.4530001 -0.6458 0 0 0 3 6 4 0 0 0 11.1492395
3408 5 -12.5799999 4.6630001 -13.6400004 0 0 0 0 12 2 0 0 0 12.2814293
3433 4 0.4865 18.2600002 -12.3900004 0 0 0 0 12 3 0 0 0 12.6947909
3444 5 17.0900002 -13.4200001 3.0750001 0 0 0 2 8 4 0 0 0 12.3288365
3446 4 15.0799999 -10.1999998 6.797 0 0 0 3 7 5 1 0 0 13.4671688
3454 2 12.3299999 14.2399998 2.806 0 0 0 2 8 2 0 0 0 11.0818253
3456 5 -14.5699997 -19.7600003 7.1589999 0 0 3 2 4 4 1 1 0 11.9846926
3465 5 -9.2259998 0.4085 -8.875 0 0 0 0 12 0 0 0 0 11.0700045
3467 4 7.2839999 -6.5809999 -10.9799996 0 0 1 2 7 4 0 0 0 12.901086
3471 2 -12.1899996 -21.1100006 16.8099995 0 0 0 0 12 0 0 0 0 11.0353498
3481 4 5.6570001 -14.6700001 -17.6900006 0 0 0 0 12 0 0 0 0 11.8328076
3482 3 -12.6099997 8.3240004 4.4660001 0 0 0 2 8 4 0 0 0 12.724185
3489 2 -1.916 -7.2129998 -19.0 0 0 0 3 7 3 1 0 0 12.56215
3501 4 12.7700005 -6.4159999 9.5790005 0 0 0 2 8 2 0 0 0 12.3066492
3507 5 -16.3799992 -11.6700001 17.7299996 0 0 0 4 6 4 0 0 0 12.5300856
3529 5 16.9699994 -8.6470003 -2.0239999 0 0 0 3 8 2 0 0 0 11.7297211
3540 4 5.8860002 3.2190001 -8.2489996 0 0 1 1 7 5 0 0 0 11.9588214
3561 5 -1.4600001 14.2399998 5.8460002 0 0 2 1 7 3 1 1 0 12.676076
3563 2 -7.2620001 -7.4169998 -22.1599999 0 0 0 1 10 2 0 0 0 11.7670031
3569 2 -13.6400004 -6.638 -13.6000004 0 0 0 0 12 0 0 0 0 11.4532757
3571 4 2.112 10.0 -0.6789 0 0 0 4 4 6 0 0 0 12.3575478
3589 4 -14.1499996 -7.3119998 -8.3940001 0 0 0 1 10 2 0 0 0 11.9560232
3597 2 16.9500008 -0.2575 -9.929 0 0 0 4 6 3 0 0 0 11.9989376
3613 4 -0.7516001 16.3400002 -13.2600002 0 0 0 1 10 2 0 0 0 11.97466
3614 4 -1.377 2.336 7.072 0 0 0 2 8 5 0 0 0 12.5800505
3617 5 -7.684 -22.2000008 0.4326 0 0 0 2 8 4 0 0 0 12.0706482
3636 4 10.8400002 -16.2000008 -0.7934 0 0 1 0 9 3 0 0 0 11.64081
3648 2 -3.4619999 18.6499996 5.5749998 0 0 1 3 8 1 0 0 0 11.5141468
3662 2 2.428 5.8520002 18.5499993 0 0 0 3 6 4 0 0 0 12.4977675
3675 1 3.645 16.3700009 21.1000004 0 0 0 1 10 2 0 0 0 11.1396256
3678 2 -1.904 -2.234 -10.3900004 0 0 0 1 10 3 0 0 0 12.5934582
3690 5 -3.949 -14.4399996 2.8020001 0 0 1 3 6 3 1 0 0 12.9255524
3694 4 -18.9400006 -3.231 17.4400006 0 0 0 1 10 4 0 0 0 12.4993763
3708 3 12.6800003 -4.7379999 -4.3969998 0 0 0 3 6 3 0 0 0 11.9451486
3714 4 11.5200005 -12.5200005 -21.3999996 0 0 0 2 8 5 0 0 0 13.4978314
3738 5 12.1700001 13.6000004 -6.5310002 0 0 0 3 8 5 0 0 0 13.0530691
3744 4 -11.0100002 -18.2000008 13.8800002 0 0 0 0 12 2 0 0 0 12.6209154
3746 4 -4.8740002 -16.7199993 -14.8599998 0 0 0 0 12 0 0 0 0 11.0602646