LAMMPS (29 Oct 2020)
Created orthogonal box = (0.0000000 0.0000000 0.0000000) to (23.273549 23.273549 23.273549)
  1 by 1 by 1 MPI processor grid
Lattice spacing in x,y,z = 1.4661417 1.4661417 1.4661417
Created 8192 atoms
  create_atoms CPU = 0.003 seconds
Created 8192 atoms
  create_atoms CPU = 0.003 seconds
Neighbor list info ...
  update every 1 steps, delay 10 steps, check yes
  max neighbors/atom: 2000, page size: 100000
  master list distance cutoff = 6.5
  ghost atom cutoff = 6.5
  binsize = 3.25, bins = 8 8 8
  2 neighbor lists, perpetual/occasional/extra = 2 0 0
  (1) pair meam/c, perpetual
      attributes: full, newton on
      pair build: full/bin/atomonly
      stencil: full/bin/3d
      bin: standard
  (2) pair meam/c, perpetual, half/full from (1)
      attributes: half, newton on
      pair build: halffull/newton
      stencil: none
      bin: none
1.46614173228346 -nan
Per MPI rank memory allocation (min/avg/max) = 469.6 | 469.6 | 469.6 Mbytes
Step KinEng PotEng Press Temp 
       0            0    4314837.7         -nan            0 
Loop time of 1.90735e-06 on 1 procs for 0 steps with 16384 atoms

157.3% CPU use with 1 MPI tasks x no OpenMP threads

MPI task timing breakdown:
Section |  min time  |  avg time  |  max time  |%varavg| %total
---------------------------------------------------------------
Pair    | 0          | 0          | 0          |   0.0 |  0.00
Neigh   | 0          | 0          | 0          |   0.0 |  0.00
Comm    | 0          | 0          | 0          |   0.0 |  0.00
Output  | 0          | 0          | 0          |   0.0 |  0.00
Modify  | 0          | 0          | 0          |   0.0 |  0.00
Other   |            | 1.907e-06  |            |       |100.00

Nlocal:        16384.0 ave       16384 max       16384 min
Histogram: 1 0 0 0 0 0 0 0 0 0
Nghost:        46239.0 ave       46239 max       46239 min
Histogram: 1 0 0 0 0 0 0 0 0 0
Neighs:    1.23140e+07 ave  1.2314e+07 max  1.2314e+07 min
Histogram: 1 0 0 0 0 0 0 0 0 0
FullNghs:  2.46280e+07 ave  2.4628e+07 max  2.4628e+07 min
Histogram: 1 0 0 0 0 0 0 0 0 0

Total # of neighbors = 24627980
Ave neighs/atom = 1503.1726
Neighbor list builds = 0
Dangerous builds = 0
Total wall time: 0:00:29
