ITEM: TIMESTEP
0
ITEM: NUMBER OF ATOMS
50688
ITEM: BOX BOUNDS xy xz yz pp pp pp
-20.3673 60.7881203 0.87582
-22.2210007 65.3610001 0.0
-22.2210007 65.3610001 0.0
ITEM: ATOMS id type x y z VoronoiIndex1 VoronoiIndex2 VoronoiIndex3 VoronoiIndex4 VoronoiIndex5 VoronoiIndex6 VoronoiIndex7 VoronoiIndex8 VoronoiIndex9 AtomicVolume
7 2 -8.4910002 -13.8299999 -3.3480001 0 0 0 1 10 2 0 0 0 11.8082419
21 2 -11.96 1.804 14.1700001 0 0 0 0 12 0 0 0 0 11.7086211
26 5 -12.8199997 -17.5699997 -8.9910002 0 0 0 1 12 2 0 0 0 13.502944
28 2 6.54 4.8930002 -10.2100001 0 0 0 0 12 0 0 0 0 10.8908168
36 2 16.1399994 -15.1700001 -21.0499992 0 0 0 0 12 0 0 0 0 11.7208529
38 5 10.7200003 -11.3999996 17.5599995 0 0 0 0 12 0 0 0 0 11.8945646
42 2 13.2100001 -3.6099999 -21.5300007 0 0 0 0 12 0 0 0 0 11.2846851
43 5 1.505 12.6599999 10.1199999 0 0 0 2 9 3 0 0 0 11.4320603
50 2 15.5100003 -3.6770001 -22.1499996 0 0 0 0 12 0 0 0 0 10.98135
61 4 -9.342 -8.5489998 -3.336 0 0 0 2 8 4 0 0 0 12.3948708
66 4 -15.4099999 -5.6789999 -2.474 0 0 0 2 8 5 0 0 0 12.7265578
68 1 -15.3699999 -0.5565 3.158 0 0 1 1 9 0 0 0 0 10.690547
98 2 5.1129999 -8.573 18.9200002 0 0 0 0 12 0 0 0 0 11.0199242
128 5 -10.0699997 6.3800001 -10.7700005 0 0 0 2 10 2 0 0 0 12.5761776
145 4 -1.949 -21.9599992 -19.6499996 0 0 0 0 12 2 0 0 0 12.4389982
146 4 3.7490001 9.2889996 -11.3299999 0 0 0 0 12 2 0 0 0 13.0223894
150 2 -12.2399998 7.902 9.2390003 0 0 1 3 5 3 0 0 0 11.6658325
171 2 8.2139998 -0.3493 -2.899 0 0 1 1 9 3 0 0 0 12.134862
176 5 13.6300001 -20.3999996 11.6999998 0 0 0 2 8 3 0 0 0 11.7540026
177 5 14.5900002 14.87 -19.6900006 0 0 0 3 6 4 0 0 0 11.208066
181 5 -4.5669999 -11.0900002 5.8790002 0 0 0 0 12 0 0 0 0 11.0811157
191 5 -10.2399998 5.764 -13.1400003 0 0 1 0 11 2 0 0 0 11.5557194
200 4 -13.8999996 -10.9300004 12.2100001 0 0 0 3 5 4 1 0 0 12.3600607
216 2 14.4499998 16.5400009 11.9200002 0 0 0 0 12 0 0 0 0 11.5499745
219 4 13.0600004 -3.043 15.9300004 0 0 1 0 9 3 0 0 0 11.8506546
220 2 -5.0770001 17.5799999 -5.4619999 0 0 0 2 8 2 0 0 0 11.7109871
231 4 -12.9399996 3.4030001 7.099 0 0 0 3 6 4 0 0 0 12.0862637
240 2 3.5639999 10.5900002 6.0910001 0 0 0 3 6 4 0 0 0 11.7091151
243 4 7.5799999 17.7199993 -2.05 0 0 0 1 10 3 0 0 0 12.7281771
244 5 -4.7820001 -12.5799999 -20.7900009 0 0 1 1 9 3 0 0 0 12.7429791
249 4 -3.5940001 -6.0240002 19.1399994 0 0 0 1 12 2 0 0 0 13.2037315
260 2 -15.87 6.6300001 -15.5200005 0 0 0 0 12 0 0 0 0 11.4549465
262 2 3.356 2.971 9.2019997 0 0 0 2 7 3 1 0 0 12.369915
263 1 -5.5739999 -2.865 -16.2700005 0 0 0 0 12 0 0 0 0 11.1682005
272 4 -17.3700009 -9.0319996 -18.5200005 0 0 0 0 12 2 0 0 0 12.4016009
273 4 -19.8899994 -6.6999998 -14.1099997 0 0 0 0 14 2 0 0 0 14.2803717
277 4 -12.7799998 -0.126 -6.4699998 0 0 0 0 12 0 0 0 0 12.1562424
283 5 -1.298 10.5799999 -11.04 0 0 0 1 12 2 0 0 0 13.0524721
298 4 -4.5799999 17.3199997 3.4519999 0 0 0 0 12 3 0 0 0 12.6229992
301 1 -12.3000002 18.7800007 20.2600002 0 0 1 2 5 5 0 0 0 11.7637072
311 5 -9.6359997 14.0299997 -4.4879999 0 0 0 0 14 2 0 0 0 13.3353748
318 5 0.1267 -14.3599997 -6.1490002 0 0 0 0 10 2 0 0 0 11.693656
322 4 -6.8260002 -8.3579998 3.0480001 0 0 1 1 9 4 0 0 0 12.3287306
335 1 -14.2200003 -18.2700005 -5.4439998 0 0 0 2 8 3 0 0 0 12.149765
336 4 -8.0710001 -16.4400006 -2.4289999 0 0 0 1 10 3 0 0 0 12.1414137
362 5 -6.9699998 -9.6110001 -4.158 0 0 0 1 10 4 0 0 0 13.4174881
370 5 -12.8400002 -17.2000008 -11.6499996 0 0 0 0 12 2 0 0 0 12.7099047
372 5 13.4600001 -20.0200005 4.0970001 0 0 1 1 9 3 0 0 0 12.1367846
377 5 -3.9460002 15.8299999 -0.5503 0 0 0 1 10 4 0 0 0 13.2775879
398 1 -0.5008 0.6832 -1.186 0 0 1 1 9 2 0 0 0 11.4899388
416 2 -6.0929999 -20.9300004 -11.4600001 0 0 0 3 6 3 0 0 0 11.5938282
431 2 -3.846 19.8099995 -19.6800003 0 0 1 0 11 1 0 0 0 11.2055216
437 2 -7.8239999 21.4599991 14.8100004 0 0 0 2 8 1 0 0 0 11.2580443
439 4 -13.7799998 -8.415 15.5 0 0 2 3 6 4 0 0 0 12.6312838
442 4 4.9429998 -20.9799996 -12.7600003 0 0 0 1 12 2 0 0 0 13.4546271
452 4 -10.0299997 -21.9099998 -20.4200001 0 0 1 0 11 1 0 0 0 11.7547589
482 4 8.5150004 -0.2578 -19.7000008 0 0 0 1 10 2 0 0 0 12.7674694
506 4 -1.212 -0.1469 16.4500008 0 0 0 1 10 4 0 0 0 12.6282749
527 5 12.6599999 -5.1079998 4.5520001 0 0 0 4 4 6 0 0 0 12.0130758
537 2 2.7909999 17.8400002 4.8940002 0 0 0 2 8 2 0 0 0 11.6961146
539 2 3.916 -21.7800007 -16.7199993 0 0 1 3 4 3 1 0 0 11.662755
548 4 2.1470001 -7.9660002 1.49 0 0 0 0 12 0 0 0 0 11.1187697
549 5 -13.96 12.5500002 -17.0900002 0 0 0 2 8 5 0 0 0 12.4480381
553 4 11.0799999 4.8410002 -21.4099999 0 0 0 0 12 0 0 0 0 11.875596
559 4 17.6700001 5.4429999 -21.3299999 0 0 0 1 12 1 0 0 0 12.8154736
561 4 5.579 15.4700003 -5.757 0 0 0 2 8 3 0 0 0 11.9088336
564 4 -1.974 4.1230002 -12.0900002 0 0 0 3 7 4 1 0 0 12.3889895
569 2 11.0200005 -3.1440001 4.5539999 0 0 0 3 6 4 0 0 0 11.7119427
570 4 -13.2200003 -20.4500008 -5.8130002 0 0 0 3 6 4 0 0 0 12.2575474
571 5 -12.2200003 5.8309999 8.0179996 0 0 0 3 7 4 1 0 0 13.2724581
587 5 20.0 17.2000008 16.4200001 0 0 0 0 12 0 0 0 0 11.9854164
597 2 2.0350001 -17.3299999 -13.5500002 0 0 0 3 6 3 0 0 0 11.2619419
613 5 18.7700005 -5.3070002 -1.95 0 0 0 3 6 6 0 0 0 12.143302
618 2 1.395 6.474 -12.8800002 0 0 0 0 12 0 0 0 0 11.1734209
623 4 18.3099995 17.2700005 4.903 0 0 0 1 10 3 0 0 0 12.2903004
638 5 -9.1370001 -8.8290005 8.9370004 0 0 2 3 4 6 0 0 0 12.3346481
643 5 -9.844 4.3839998 2.224 0 0 0 1 10 2 0 0 0 12.0433531
645 5 -10.79 17.1399994 6.2880001 0 0 1 3 7 3 0 0 0 12.0340719
654 4 7.0469999 -16.7999993 0.9707 0 0 0 2 8 5 0 0 0 13.1736507
671 2 5.5739999 -9.8059998 9.4060001 0 0 0 0 12 0 0 0 0 11.1010618
681 2 -14.3299999 20.3199997 -8.151 0 0 0 3 6 4 0 0 0 11.5770874
718 2 -17.9699994 -19.9799996 -18.0799999 0 0 0 3 7 3 0 0 0 11.6271458
729 1 4.4400001 -22.1399994 8.868 0 0 0 2 8 3 0 0 0 11.8021212
741 4 5.2849999 15.9700004 1.844 0 0 0 3 6 6 0 0 0 12.7566195
742 4 14.8999996 2.645 9.6400004 0 0 2 2 5 4 1 0 0 11.986106
755 5 17.8700008 -14.1000004 -17.4400006 0 0 0 4 6 5 0 0 0 12.2573385
758 2 7.8610002 11.5299998 14.87 0 0 0 0 12 0 0 0 0 11.8682346
760 1 9.8050003 8.863 -17.2800007 0 0 0 0 12 0 0 0 0 11.2790022
765 1 -1.346 12.0 -21.2600002 0 0 0 0 12 0 0 0 0 11.2829714
776 4 -18.6599999 15.9099998 9.3599997 0 0 0 1 10 3 0 0 0 12.0919657
818 5 8.2250004 10.1300001 5.8260002 0 0 0 2 8 5 0 0 0 12.7899838
842 5 13.3500004 1.136 -6.5100003 0 0 0 1 10 2 0 0 0 12.3341351
849 4 -0.3055 3.7320001 11.9099998 0 0 0 2 8 4 0 0 0 12.0524673
850 5 5.6890002 18.6900006 -18.0599995 0 0 0 1 10 2 0 0 0 11.6041127
870 2 -17.7199993 9.8350001 -1.331 0 0 0 0 12 0 0 0 0 11.0567551
882 3 -7.5370002 16.6200009 16.5300007 0 0 0 2 10 2 0 0 0 12.7719832
899 4 1.3200001 -9.349 -0.4018 0 0 0 0 12 2 0 0 0 12.6957627
901 4 1.632 19.4200001 -1.313 0 0 0 3 6 6 0 0 0 12.1588602
915 5 -1.903 -21.8700008 -3.6310001 0 0 0 2 8 4 0 0 0 12.2558861
926 5 1.107 7.8649998 9.0780001 0 0 0 3 8 4 0 0 0 12.9111262
936 1 2.8440002 13.3000002 -14.8599998 0 0 0 2 8 2 0 0 0 10.6730919
941 5 3.5720001 4.9899998 14.1599999 0 0 0 1 10 4 0 0 0 13.1773462
946 4 0.3034 -13.8100004 20.8799992 0 0 0 0 12 4 0 0 0 13.2676067
950 3 -0.02152 -1.5140001 6.1220002 0 0 1 2 9 2 2 0 0 12.9600526
951 5 10.04 16.8400002 -1.141 0 0 0 2 10 3 0 0 0 13.4254771
958 5 14.4200001 7.8379998 -1.973 0 0 0 2 10 1 0 0 0 11.5259447
961 2 -1.14 18.7099991 -17.4599991 0 0 2 3 4 5 0 0 0 11.6120682
962 4 -3.6140001 -14.5900002 -11.5600004 0 0 1 1 9 4 0 0 0 12.4914427
963 5 -6.2150002 -12.7100001 -15.2299996 0 0 1 3 4 5 1 0 0 11.5694218
978 4 -15.2799997 -19.3400002 13.5200005 0 0 0 3 8 2 0 0 0 12.2144127
990 4 12.9300004 16.6599999 -1.018 0 0 0 2 10 3 0 0 0 13.0495062
995 1 4.3130002 -17.3299999 13.0699997 0 0 0 0 12 2 0 0 0 12.3744059
1007 2 5.264 -4.7189999 -2.4370001 0 0 0 0 12 0 0 0 0 11.1516705
1010 4 -14.1599999 3.757 -20.5900002 0 0 0 1 10 4 0 0 0 13.2654228
1025 1 4.982 -12.8800002 11.8000002 0 0 0 3 6 5 0 0 0 11.4270039
1047 4 -8.408 20.8500004 2.6540001 0 0 0 2 10 1 0 0 0 11.9545946
1050 1 3.589 -10.4099999 18.5400009 0 0 0 0 12 0 0 0 0 11.3878622
1051 4 6.9840002 17.5499993 -19.6900006 0 0 0 1 10 4 0 0 0 13.0881147
1055 2 11.96 5.2589998 -8.0600004 0 0 1 3 5 4 0 0 0 11.4313793
1057 4 15.6499996 -8.3549996 -11.9499998 0 0 0 2 8 4 0 0 0 12.3350182
1059 4 -4.0450001 13.0900002 2.767 0 0 0 5 6 3 0 0 0 12.305006
1063 5 -9.0979996 9.6079998 9.6490002 0 0 0 1 10 3 0 0 0 12.6491947
1068 5 -17.5900002 14.7399998 -2.9690002 0 0 0 1 10 2 0 0 0 11.6919699
1072 4 -11.8599998 21.5 10.2700005 0 0 1 3 5 6 0 0 0 11.7353554
1089 4 16.0300007 -20.4500008 -16.4099999 0 0 0 0 12 3 0 0 0 12.4078016
1094 5 -16.6399994 0.5123 11.0200005 0 0 0 3 7 5 0 0 0 12.9030782
1110 5 4.8039999 -2.5280001 18.8099995 0 0 0 2 10 1 0 0 0 12.0995455
1118 1 17.2099991 -14.04 0.7687 0 0 0 0 12 0 0 0 0 11.1116209
1128 2 6.5339999 -19.3899994 0.5302 0 0 0 0 12 0 0 0 0 11.2400761
1153 5 9.4110003 -15.2700005 19.0400009 0 0 0 1 10 3 0 0 0 12.4391108
1159 4 6.2360001 -10.1499996 15.5100003 0 0 0 2 8 5 0 0 0 12.1028061
1167 4 -5.4000001 20.8799992 -12.2700005 0 0 0 3 8 2 0 0 0 12.1124296
1169 2 18.75 1.703 -19.6200009 0 0 0 0 12 0 0 0 0 10.7052174
1173 5 -18.4899998 -17.7900009 -17.2600002 0 0 0 5 4 5 0 0 0 13.2052803
1178 2 9.7089997 5.5939999 10.3199997 0 0 1 2 9 2 0 0 0 12.7101183
1187 5 -2.0150001 18.5699997 -13.6999998 0 0 0 1 10 3 0 0 0 12.6722899
1188 4 13.7299996 16.1499996 8.0860004 0 0 0 0 12 2 0 0 0 11.990223
1189 4 1.793 21.5 20.7600003 0 0 0 2 10 0 0 0 0 11.3784628
1190 2 8.9519998 -17.7900009 -16.9699994 0 0 1 2 7 3 0 0 0 11.5002547
1194 5 -15.8000002 12.75 17.3600006 0 0 0 0 12 0 0 0 0 11.5577412
1199 4 -12.2200003 -9.948 -15.1400003 0 0 0 0 12 2 0 0 0 12.1848707
1214 5 -7.7230001 8.8929996 -21.3999996 0 0 1 2 5 5 0 0 0 11.6748762
1222 1 -6.4689999 16.6200009 -1.532 0 0 0 1 10 2 0 0 0 12.0830421
1244 3 -5.5370002 -10.7100001 -9.5570002 0 0 0 0 12 0 0 0 0 11.3252764
1247 1 14.9099998 0.7047 -19.8999996 0 0 1 2 7 3 0 0 0 11.5453673
1261 4 7.1849999 18.6200009 20.5200005 0 0 1 3 4 5 1 0 0 11.7742405
1264 2 12.7100001 16.7999993 10.4200001 0 0 0 0 12 0 0 0 0 11.4153929
1272 4 19.4099999 18.5100003 -9.2270002 0 0 0 3 6 4 0 0 0 11.8306608
1276 4 -15.3900004 -20.7299996 9.3769999 0 0 0 3 6 6 0 0 0 12.1147766
1280 5 -5.3769999 1.24 -11.5600004 0 0 0 1 10 2 0 0 0 12.0084181
1288 5 -7.3860002 -9.3290005 16.0100002 0 0 0 1 10 2 0 0 0 12.2451229
1299 4 -0.4136 -10.9700004 6.3730002 0 0 0 1 10 4 0 0 0 13.0229235
1302 4 10.5900002 -1.577 -19.0799999 0 0 1 1 10 2 1 0 0 12.874361
1303 2 -1.658 5.3400002 -0.3119 0 0 0 2 8 2 0 0 0 11.84128
1305 5 10.9499998 14.1199999 4.8249998 0 0 0 0 12 2 0 0 0 11.6911659
1320 2 -9.5850001 12.7600003 12.3299999 0 0 0 0 12 0 0 0 0 10.993146
1338 2 -6.0469999 20.7800007 -19.2900009 0 0 1 2 5 5 0 0 0 11.5806103
1339 5 8.9759998 2.286 3.6930001 0 0 0 2 8 6 0 0 0 13.0107622
1342 4 -7.902 18.7700005 18.0699997 0 0 0 2 8 5 0 0 0 12.5680332
1363 2 -4.7950001 -4.4180002 2.5580001 0 0 0 1 10 4 0 0 0 12.6110173
1365 4 19.6100006 -10.2299996 -16.9200002 0 0 1 1 9 2 2 0 0 13.2833185
1370 4 -14.6300001 -20.0499992 15.87 0 0 1 3 8 2 1 0 0 13.0090408
1377 4 -2.2509999 -3.928 -12.4499998 0 0 0 0 12 3 0 0 0 13.2829313
1387 3 -10.2399998 -21.9500008 6.3969998 0 0 0 3 8 4 0 0 0 13.4144812
1391 4 8.1899996 21.3999996 -13.1800003 0 0 0 4 6 5 0 0 0 12.4528475
1398 4 -16.9799996 -6.5409999 -17.6000004 0 0 1 2 7 3 2 0 0 12.74858
1434 5 -8.1359997 9.3970003 -11.3199997 0 0 0 4 6 5 0 0 0 13.3750687
1435 4 -16.8400002 -11.8299999 -3.0039999 0 0 0 0 12 2 0 0 0 11.903514
1445 2 7.2750001 3.013 8.2849999 0 0 0 0 12 0 0 0 0 11.6595078
1456 4 -4.8010001 -10.0600004 -19.8799992 0 0 1 3 5 6 0 0 0 12.3234749
1457 4 -4.2360001 2.8870002 3.774 0 0 0 1 9 2 1 0 0 12.0916262
1463 4 7.3870001 17.2000008 0.2824 0 0 0 0 12 2 0 0 0 12.952263
1477 2 0.07985 -6.0879998 -19.4200001 0 0 1 3 5 2 2 0 0 11.9656926
1485 4 8.6639996 -22.1399994 -4.9380002 0 0 1 2 7 4 0 0 0 11.1061335
1492 5 -1.0750001 20.3999996 9.9180002 0 0 0 2 8 4 0 0 0 11.8284559
1502 5 5.5890003 6.434 -4.593 0 0 1 2 7 5 0 0 0 12.6291962
1509 5 8.9119998 -19.6000004 16.5300007 0 0 0 1 10 3 0 0 0 12.6538029
1515 5 -5.9759998 0.9143 -19.2900009 0 0 0 0 12 0 0 0 0 11.3713226
1523 2 -7.4819999 13.3999996 -21.2800007 0 0 0 2 8 2 0 0 0 11.9728374
1545 4 8.4270001 -8.8450004 -16.7000008 0 0 0 2 8 2 0 0 0 11.6951933
1556 5 17.3600006 -7.0939999 -7.8449998 0 0 0 3 6 5 0 0 0 12.0628157
1563 5 -19.5699997 6.5720001 -9.1990004 0 0 0 3 8 3 0 0 0 12.3434601
1565 2 -16.7700005 -7.592 -5.6009999 0 0 0 0 12 0 0 0 0 10.7327338
1567 4 -18.1399994 18.3899994 -21.8600006 0 0 1 3 6 3 1 0 0 12.5426359
1583 2 -1.6160001 -7.3579998 2.3010001 0 0 0 3 6 5 0 0 0 12.1870909
1587 5 -14.3900004 -0.3021 -14.25 0 0 0 1 10 2 0 0 0 12.1108208
1599 4 15.6199999 18.5599995 -20.7000008 0 0 0 1 10 3 0 0 0 12.0474873
1605 5 14.3299999 13.1000004 -2.9200002 0 0 0 1 10 2 0 0 0 11.7329388
1607 4 1.392 11.04 18.4400006 0 0 0 0 12 0 0 0 0 11.6344595
1615 4 13.2799997 20.8899994 0.4155 0 0 0 3 8 3 0 0 0 11.3804865
1620 4 -10.0699997 -1.294 19.5300007 0 0 0 3 8 2 0 0 0 12.6946259
1627 4 -15.8800002 -20.0400009 -9.2299996 0 0 0 0 12 0 0 0 0 11.02882
1634 5 13.8400002 18.2000008 -6.0240002 0 0 0 2 10 1 0 0 0 12.5429735
1642 4 11.9499998 -19.1200008 6.0679998 0 0 0 1 10 2 0 0 0 11.0172033
1657 5 -6.9590002 15.3999996 14.0200005 0 0 0 1 10 4 0 0 0 12.7245579
1663 2 -4.277 -3.438 11.0500002 0 0 0 0 12 0 0 0 0 11.1137867
1669 4 -5.5100003 -20.4099999 -5.2199998 0 0 0 1 10 5 0 0 0 13.2227535
1692 5 -13.8000002 -20.6800003 11.7600003 0 0 0 1 10 2 0 0 0 12.0157156
1694 2 12.8199997 -17.7199993 -3.806 0 0 1 1 9 3 0 0 0 12.0334625
1698 4 -3.478 -1.518 21.1399994 0 0 0 1 10 2 0 0 0 11.5921583
1702 2 8.8149996 -10.1499996 14.6499996 0 0 1 2 7 2 0 0 0 11.1189461
1706 4 8.0819998 0.02863 -9.4589997 0 0 0 3 6 4 0 0 0 11.5479346
1722 5 -0.3495 -1.7330001 -2.0090001 0 0 0 4 8 3 0 0 0 12.521574
1726 5 5.3130002 -8.2080002 -6.1739998 0 0 0 1 10 3 0 0 0 12.0268259
1730 5 15.4200001 19.6599999 9.1379995 0 0 1 1 8 3 1 0 0 12.3804875
1766 4 -4.3470001 -18.3999996 -3.129 0 0 0 0 12 2 0 0 0 12.7799778
1774 4 1.456 1.453 -12.5200005 0 0 0 1 12 2 0 0 0 12.495801
1781 5 -17.1299992 19.4799996 7.1869998 0 0 0 2 10 1 0 0 0 12.1964846
1795 4 -0.4058 20.5499993 -13.5100003 0 0 0 0 12 0 0 0 0 11.4289313
1805 4 -14.3299999 17.6700001 9.6759997 0 0 0 2 10 3 0 0 0 13.067049
1812 4 13.3299999 -8.5120001 15.3400002 0 0 1 1 9 4 0 0 0 12.6164007
1818 4 -3.855 0.3656 17.1399994 0 0 1 1 9 3 0 0 0 12.3331547
1823 5 -20.0400009 -21.2000008 -8.118 0 0 0 3 8 3 0 0 0 12.8940402
1826 2 -18.2000008 -11.2100001 13.3000002 0 0 0 3 6 3 0 0 0 11.1488457
1829 5 -8.6949997 16.6399994 -19.4200001 0 0 0 0 12 0 0 0 0 11.547123
1847 4 6.994 -21.8199997 -10.96 0 0 0 0 12 0 0 0 0 11.318223
1851 1 -2.362 20.7900009 16.2800007 0 0 1 0 9 3 0 0 0 11.3267079
1865 2 14.2700005 -7.0019999 5.7600003 0 0 0 2 10 3 0 0 0 12.9968662
1873 4 5.8350001 -19.8700008 5.402 0 0 1 1 8 3 1 0 0 13.1939964
1882 2 12.3800001 11.9799996 15.6199999 0 0 0 2 8 2 2 0 0 12.5131512
1891 1 -18.2399998 -2.6270001 -5.3060002 0 0 0 3 6 3 0 0 0 11.0423098
1905 4 -7.6269999 -5.9629998 12.0799999 0 0 0 1 10 4 0 0 0 12.6784554
1906 2 -5.1329999 17.3500004 0.8932 0 0 0 1 10 2 0 0 0 10.9193936
1920 5 13.0500002 -5.3080001 7.4310003 0 0 0 3 9 2 1 0 0 12.5948754
1942 5 7.2230001 -19.8299999 14.8900004 0 0 0 1 10 2 0 0 0 11.6785088
1947 5 4.2379999 6.2160001 10.5 0 0 0 3 5 5 1 0 0 12.8394662
1951 4 8.0749998 21.1200008 16.8700008 0 0 0 0 12 4 0 0 0 13.232523
1965 2 -3.9990002 1.317 -20.7800007 0 0 0 1 10 3 0 0 0 12.2328587
1970 2 18.7800007 19.7399998 -19.0900002 0 0 0 0 12 0 0 0 0 11.3744955
1975 4 -4.3810001 2.4260001 -18.5400009 0 0 0 4 8 1 0 0 0 11.861744
1990 5 9.2410002 -8.8500004 -5.2859998 0 0 0 0 12 0 0 0 0 10.905056
2012 5 -15.29 -7.408 -22.1499996 0 0 0 2 8 4 0 0 0 12.3821354
2013 5 1.5720001 12.2399998 -6.039 0 0 1 2 7 4 0 0 0 11.6962757
2016 4 -17.0200005 -13.6999998 13.8599998 0 0 0 1 10 2 0 0 0 12.1001844
2020 2 2.0250001 -9.1599999 -17.4099999 0 0 0 2 10 0 0 0 0 11.4741268
2029 4 4.4749999 3.296 15.8500004 0 0 1 3 5 4 0 0 0 12.1102285
2039 4 -18.8700008 20.3500004 20.5499993 0 0 0 3 8 2 0 0 0 12.0095062
2041 5 19.2900009 1.237 16.2600002 0 0 0 0 12 2 0 0 0 12.5999336
2046 2 -12.9700004 -9.7270003 4.402 0 0 0 0 12 0 0 0 0 11.7334738
2053 2 -13.6800003 6.3369999 -1.434 0 0 0 0 12 2 0 0 0 12.7691794
2054 4 17.0200005 -3.29 6.75 0 0 1 0 11 3 0 0 0 13.0297842
2066 5 -3.839 -17.2700005 10.4600001 0 0 1 1 9 4 0 0 0 13.0782728
2082 2 -12.2600002 -14.9899998 -12.8100004 0 0 2 1 6 4 1 0 0 12.0788422
2089 1 -10.0 -5.1539998 12.3000002 0 0 0 3 6 3 0 0 0 12.1249619
2097 5 2.3380001 -7.25 -1.337 0 0 0 0 12 3 0 0 0 13.7417088
2104 2 19.7199993 -18.7999993 -15.8900004 0 0 0 0 12 0 0 0 0 11.4040251
2112 4 -18.3400002 -2.9530002 1.164 0 0 0 1 12 2 0 0 0 12.3579674
2116 5 15.6800003 -14.5600004 -11.1199999 0 0 0 4 6 3 0 0 0 11.8008042
2119 2 -12.6099997 14.5600004 -3.9200002 0 0 0 0 12 0 0 0 0 11.1299906
2124 5 18.8600006 -15.6700001 13.7100001 0 0 0 1 10 2 0 0 0 11.9984722
2126 5 16.5599995 -6.652 -13.3699999 0 0 1 2 7 4 0 0 0 11.8403636
2144 4 13.6499996 7.224 4.85 0 0 0 2 8 3 0 0 0 11.7515688
2147 1 15.4399996 -14.2100001 -16.1599999 0 0 0 1 10 2 0 0 0 11.3494463
2148 2 14.25 10.0299997 -6.6539998 0 0 0 0 12 0 0 0 0 11.2123137
2151 2 -7.5960002 6.8720002 21.3299999 0 0 0 0 12 0 0 0 0 11.1975536
2163 2 -1.6590001 15.6899996 10.2700005 0 0 0 0 12 0 0 0 0 10.5729304
2169 1 -17.6499996 -21.4799996 -7.9330002 0 0 0 2 10 1 0 0 0 11.5706234
2180 5 3.2969999 1.7430001 -9.7679997 0 0 0 0 12 3 0 0 0 12.6804114
2183 2 19.7800007 6.5819998 -12.6800003 0 0 0 2 8 2 0 0 0 11.84303
2202 4 -11.9099998 12.1000004 18.9899998 0 0 1 0 11 3 0 0 0 12.8621102
2208 2 9.573 12.0699997 3.8110001 0 0 0 3 6 4 0 0 0 12.0095797
2213 2 -16.25 -9.5839997 12.9399996 0 0 0 3 6 3 0 0 0 11.8384609
2214 2 6.1939998 -0.05746 -4.1849999 0 0 0 0 12 0 0 0 0 11.9364444
2224 5 -6.4559999 -18.6200009 -17.3799992 0 0 0 2 8 2 0 0 0 11.5876246
2225 4 -18.9899998 -7.6199999 18.2800007 0 0 0 2 8 3 0 0 0 12.0435619
2228 5 -9.0010004 16.1900005 -14.1099997 0 0 2 0 10 2 0 0 0 11.857049
2232 3 6.8579998 -17.9400006 -9.7600003 0 0 1 2 7 3 2 0 0 12.3607111
2256 2 -12.9300004 3.435 -16.3099995 0 0 0 1 10 2 0 0 0 11.911439
2273 5 14.3400002 -20.5699997 9.3100004 0 0 0 2 10 3 0 0 0 12.2492905
2284 5 14.8400002 14.6700001 -14.6599999 0 0 0 1 10 4 0 0 0 12.4440775
2285 4 -5.1020002 -8.1870003 -21.6700001 0 0 0 1 10 2 0 0 0 12.1036129
2295 1 -12.5100003 12.1700001 6.1110001 0 0 0 0 12 0 0 0 0 11.2940731
2296 4 -14.9399996 2.7709999 8.3529997 0 0 0 2 8 4 0 0 0 12.0810127
2298 5 13.6300001 21.0499992 -6.3130002 0 0 0 2 8 2 2 0 0 12.7402373
2304 4 16.0200005 -8.3020001 10.9200002 0 0 0 1 10 4 0 0 0 12.5336132
2314 4 -2.378 21.5499993 -20.5699997 0 0 0 2 8 4 0 0 0 12.5963755
2317 4 0.06267 1.861 19.7700005 0 0 0 0 12 0 0 0 0 11.8279228
2322 4 8.7360001 -7.757 -9.2010002 0 0 1 2 7 2 0 0 0 10.983657
2354 2 -16.2399998 19.3899994 -9.2819996 0 0 0 3 6 4 0 0 0 12.0938721
2357 5 -20.0300007 3.461 1.2230001 0 0 0 2 8 4 0 0 0 12.1717501
2368 2 5.1129999 -15.4600001 -15.3800001 0 0 0 1 10 2 0 0 0 11.8136025
2369 5 1.596 14.2200003 -10.2700005 0 0 0 0 12 3 0 0 0 12.5796204
2380 4 -16.2999992 -14.1800003 11.4700003 0 0 0 2 8 3 0 0 0 12.1515026
2385 4 -6.8200002 2.9260002 14.3900004 0 0 0 0 12 4 0 0 0 13.1837025
2407 2 2.9630002 7.8369999 2.017 0 0 0 3 6 3 0 0 0 11.5991373
2409 5 -17.1499996 19.5400009 -3.937 0 0 1 1 9 4 0 0 0 13.1508913
2418 4 -16.1499996 20.1000004 5.1869998 0 0 0 3 6 4 0 0 0 12.1038466
2427 4 -5.9899998 1.066 -16.5499993 0 0 1 1 9 3 0 0 0 11.848814
2430 2 -16.6399994 1.234 -14.1300001 0 0 1 1 9 3 0 0 0 12.1209536
2441 2 -5.6490002 -16.9599992 8.6040001 0 0 0 2 10 2 0 0 0 12.57059
2446 2 9.8120003 -9.809 -12.9399996 0 0 0 2 10 0 0 0 0 11.5844374
2451 2 -9.2360001 -4.0809999 1.081 0 0 0 3 6 4 0 0 0 11.5751658
2457 4 15.5100003 3.457 7.468 0 0 0 3 7 4 1 0 0 13.0883112
2466 2 -16.7099991 4.289 7.6989999 0 0 0 0 12 0 0 0 0 11.3346233
2482 5 -6.4180002 0.6856 -21.6800003 0 0 0 1 10 2 0 0 0 11.2814722
2489 2 7.7150002 -5.916 -8.2779999 0 0 0 3 6 4 0 0 0 11.7840128
2494 2 -10.4099999 -4.559 -8.783 0 0 0 0 12 0 0 0 0 11.731844
2496 4 8.4239998 8.0419998 7.2729998 0 0 0 1 10 4 0 0 0 12.8081064
2506 2 -7.8179999 20.2399998 0.3661 0 0 0 0 12 0 0 0 0 11.6828232
2507 4 -19.6700001 -16.9699994 4.0479999 0 0 1 2 9 3 0 0 0 12.3062678
2513 5 17.9400006 17.6100006 -20.0100002 0 0 0 0 12 2 0 0 0 12.013895
2520 4 -14.3500004 -11.8400002 18.7800007 0 0 0 1 10 3 0 0 0 12.6099158
2521 2 2.359 14.8800002 10.1400003 0 0 0 0 12 0 0 0 0 11.2071772
2523 4 16.1200008 12.2799997 21.1700001 0 0 1 2 8 3 1 0 0 13.0321608
2527 1 -6.7729998 -11.1800003 -13.5799999 0 0 2 1 8 0 2 0 0 11.8485776
2536 4 -18.6700001 4.823 -10.9200002 0 0 0 2 10 3 0 0 0 12.9806128
2541 2 -5.3530002 13.9899998 20.1900005 0 0 0 6 6 2 0 0 0 13.1838169
2543 5 -11.1499996 1.546 -1.385 0 0 2 1 8 4 0 0 0 12.685935
2545 5 -10.5600004 3.7320001 10.96 0 0 0 2 8 5 0 0 0 12.2787304
2548 2 -3.5060001 -6.7430001 -16.8799992 0 0 0 1 12 1 0 0 0 12.6726933
2553 2 -4.2259998 3.2190001 -12.4399996 0 0 0 2 10 1 0 0 0 11.8470288
2557 4 1.849 17.25 -14.5600004 0 0 0 2 10 2 0 0 0 12.4684725
2562 5 -1.628 18.8199997 -20.2299996 0 0 0 3 8 3 0 0 0 12.7897282
2564 4 10.54 9.8470002 -12.0900002 0 0 0 1 10 4 0 0 0 12.7747431
2573 5 16.6800003 -3.9260002 13.6999998 0 0 0 3 6 4 0 0 0 12.0027533
2574 2 -2.7379999 -21.1499996 4.0799999 0 0 0 0 12 0 0 0 0 11.0053911
2594 2 11.1000004 -2.411 -7.936 0 0 0 1 12 2 0 0 0 12.1693068
2596 4 19.4699993 15.0600004 19.8600006 0 0 0 2 8 4 0 0 0 12.5197726
2619 5 -2.908 -7.289 21.0799999 0 0 0 0 12 2 0 0 0 12.4537916
2627 4 3.029 -15.0600004 -16.6700001 0 0 1 1 9 3 0 0 0 12.4262953
2632 4 6.481 0.8765 -20.5499993 0 0 0 2 8 4 0 0 0 13.0056715
2644 2 7.9910002 17.3999996 9.8800002 0 0 0 1 10 2 0 0 0 11.5727415
2647 4 19.2900009 -5.8990002 -18.9599992 0 0 0 1 10 4 0 0 0 11.9533806
2657 4 -9.1540003 18.6000004 -14.8199997 0 0 0 2 8 5 0 0 0 12.3846731
2664 5 -14.1700001 -5.1370001 -18.3299999 0 0 1 4 5 3 2 0 0 11.946765
2673 4 -16.2999992 -4.4629998 14.1300001 0 0 1 1 9 4 0 0 0 12.3771505
2675 4 -7.5619998 4.7270003 10.2299996 0 0 0 2 8 5 0 0 0 12.2022467
2680 4 -13.8999996 12.9899998 -2.2249999 0 0 0 1 12 2 0 0 0 12.8731862
2695 4 1.507 -7.1589999 20.9500008 0 0 0 0 12 3 0 0 0 12.974085
2713 1 -19.3299999 14.3100004 18.1000004 0 0 0 1 10 2 0 0 0 11.5132571
2719 4 -14.4600001 -16.0 8.6639996 0 0 0 0 12 0 0 0 0 11.1353397
2722 5 -13.1199999 20.6000004 0.8886 0 0 0 1 10 2 0 0 0 11.3314295
2754 5 -13.4799996 8.969 16.3199997 0 0 0 1 10 3 0 0 0 11.658186
2760 5 0.1045 0.4018 -20.0699997 0 0 0 3 10 2 0 0 0 12.9662324
2768 2 12.2700005 5.7220001 -5.5650001 0 0 1 4 5 4 0 0 0 11.803484
2774 4 14.9200002 1.003 6.638 0 0 1 2 7 5 0 0 0 12.5010376
2778 4 8.2010002 12.1899996 17.4899998 0 0 0 0 12 4 0 0 0 13.8979198
2782 4 -7.3810001 -21.1200008 13.3000002 0 0 0 1 10 4 0 0 0 13.9318496
2787 4 -17.0499992 2.0999999 6.5949998 0 0 0 1 11 1 1 0 0 12.8023377
2790 4 0.7049001 17.9899998 3.145 0 0 0 1 10 4 0 0 0 12.988677
2799 4 6.342 -12.2399998 -22.1000004 0 0 0 4 8 4 0 0 0 13.8009472
2800 4 -10.6599999 16.6800003 -20.7700005 0 0 0 3 6 4 0 0 0 11.8838368
2802 5 -0.3049 11.8100004 11.1700001 0 0 2 2 6 4 0 0 0 11.8226233
2807 5 -18.9599992 14.4499998 -21.0799999 0 0 1 0 11 1 0 0 0 11.4226866
2814 4 -16.0300007 -7.8340001 8.165 0 0 0 2 8 4 0 0 0 11.8003521
2820 4 18.6200009 -10.9899998 9.0369997 0 0 0 2 8 5 0 0 0 12.473999
2823 4 -9.1549997 12.9300004 18.7099991 0 0 0 1 10 2 0 0 0 12.9780122
2824 4 19.6900006 6.982 5.6500001 0 0 0 0 12 2 0 0 0 12.4108696
2830 4 -13.4099999 -21.6200009 -16.4300003 0 0 0 4 6 4 0 0 0 12.774086
2848 4 19.4500008 -17.3899994 1.0369999 0 0 0 3 6 6 0 0 0 12.0966826
2851 3 -11.0500002 1.923 -15.6199999 0 0 0 1 10 5 0 0 0 13.2706652
2857 4 -0.1773 20.8899994 -2.7479999 0 0 0 0 12 2 0 0 0 11.7624979
2885 2 18.4699993 17.5699997 -17.5 0 0 0 0 12 3 0 0 0 12.9751788
2895 4 9.349 -19.9099998 -5.0 0 0 0 3 8 3 0 0 0 12.1094341
2906 4 18.7999993 9.4860001 1.975 0 0 0 0 12 2 0 0 0 12.1007557
2908 5 0.6824 8.3800001 0.7807001 0 0 0 2 10 1 0 0 0 12.1196184
2914 2 2.57 -1.813 -6.3060002 0 0 0 0 12 0 0 0 0 10.8586092
2932 4 -6.8249998 -14.2399998 -1.4270001 0 0 0 2 10 2 0 0 0 12.0844545
2955 4 -4.5749998 8.3940001 -14.1099997 0 0 1 1 9 4 0 0 0 13.1975269
2966 5 -16.2999992 10.1300001 11.9099998 0 0 0 1 10 2 0 0 0 11.996421
2975 5 11.4600001 -4.961 -6.6069999 0 0 1 3 5 6 0 0 0 12.7063961
2985 4 0.5232 3.5120001 -16.5900002 0 0 0 1 10 4 0 0 0 12.5693598
2993 4 17.4699993 -0.4653 10.04 0 0 0 2 8 5 0 0 0 12.2429371
2994 4 -7.2080002 -14.8400002 -14.4700003 0 0 0 1 10 4 0 0 0 12.7284603
3004 5 15.1700001 -2.273 -9.2849999 0 0 0 3 6 6 0 0 0 12.5806513
3009 4 12.0100002 -10.2799997 -7.7579999 0 0 0 0 12 2 0 0 0 11.8408118
3020 5 10.9099998 20.3099995 -9.5620003 0 0 1 4 7 2 0 0 0 12.6092844
3025 2 -13.4099999 -9.3789997 -3.845 0 0 0 2 8 4 0 0 0 12.2510681
3038 2 -14.5 6.448 20.0 0 0 0 0 12 0 0 0 0 11.2761946
3060 4 -8.1960001 20.8600006 -15.5500002 0 0 0 0 12 0 0 0 0 11.2685108
3068 2 8.903 3.681 6.388 0 0 0 0 12 3 0 0 0 12.5765496
3100 4 1.03 2.2920001 0.1429 0 0 0 1 10 3 0 0 0 12.2480621
3113 2 -15.8000002 -19.0599995 -14.3999996 0 0 0 2 8 2 0 0 0 12.0985184
3115 4 2.1500001 8.1420002 -2.57 0 0 0 3 6 5 0 0 0 12.5351391
3118 4 6.3850002 -2.4590001 -3.1789999 0 0 0 1 10 4 0 0 0 13.0499935
3134 2 7.27 7.724 -14.6700001 0 0 1 2 7 3 0 0 0 11.887414
3150 2 19.4500008 19.0900002 8.2510004 0 0 0 2 8 2 0 0 0 11.3095484
3151 4 -13.8299999 16.4500008 20.3899994 0 0 0 2 8 4 0 0 0 11.9649992
3152 4 3.411 -17.2800007 -15.4700003 0 0 0 0 12 0 0 0 0 11.1475029
3158 2 16.3700009 -7.3920002 3.823 0 0 0 3 6 4 0 0 0 11.5915985
3159 5 -4.0599999 15.4799996 -5.803 0 0 0 2 8 4 0 0 0 11.5791846
3165 5 17.1700001 -15.3800001 18.3799992 0 0 0 2 8 4 0 0 0 13.0931129
3167 2 2.253 2.662 20.7099991 0 0 0 2 8 3 0 0 0 12.2223587
3174 4 -1.249 0.118 -5.4229999 0 0 0 3 8 4 0 0 0 12.8651086
3180 2 20.0699997 19.8600006 -6.969 0 0 0 3 6 4 0 0 0 11.991643
3185 5 3.7349999 5.375 6.4980002 0 0 1 2 8 3 1 0 0 12.6158514
3186 5 10.2799997 -1.5190001 -1.679 0 0 0 1 10 4 0 0 0 13.0672684
3189 5 -16.3299999 -14.1800003 19.0300007 0 0 0 3 8 3 0 0 0 12.0190506
3199 5 11.9099998 18.5900002 0.6472 0 0 0 2 10 1 0 0 0 12.460227
3201 5 -12.87 19.6800003 -12.8500004 0 0 0 3 8 3 0 0 0 11.709116
3220 4 -6.6020003 19.4500008 -14.2100001 0 0 0 2 10 2 0 0 0 12.8468658
3222 4 17.7000008 -2.5969999 -9.9659996 0 0 0 3 8 4 0 0 0 12.6048031
3230 5 -16.0300007 6.9310002 -7.0669999 0 0 0 2 10 2 0 0 0 11.9094038
3233 4 -17.6700001 -6.4730001 14.7600003 0 0 0 1 10 2 0 0 0 12.0295916
3234 4 -2.948 -7.422 4.9829998 0 0 0 0 12 3 0 0 0 13.5776434
3240 1 5.7740002 8.3620005 -12.7600003 0 0 2 0 8 2 2 0 0 12.3200235
3241 4 -10.87 21.1900005 -14.1800003 0 0 0 1 10 5 0 0 0 14.2571259
3246 5 3.6199999 -20.8700008 4.4089999 0 0 1 5 5 3 2 0 0 13.4391146
3267 5 8.9300004 -13.8100004 -7.9039998 0 0 0 1 10 4 0 0 0 12.0915146
3286 5 15.75 -8.0139999 14.96 0 0 0 0 12 0 0 0 0 11.4669495
3287 5 12.8400002 15.4300003 -16.25 0 0 0 0 12 0 0 0 0 11.3095732
3295 4 -16.5100003 -1.846 -19.9200002 0 0 0 0 12 2 0 0 0 12.21836
3298 5 9.0679998 -21.2000008 14.4200001 0 0 0 1 10 2 0 0 0 11.7897196
3315 4 7.7620001 -10.4600001 9.9320002 0 0 0 2 8 3 0 0 0 11.552476
3323 5 -13.5699997 0.912 12.4499998 0 0 0 1 10 4 0 0 0 13.2342625
3337 5 -4.7140003 -16.6399994 1.386 0 0 0 4 4 7 0 0 0 12.8425294
3343 5 -9.3319998 19.1800003 -6.4749999 0 0 0 0 12 0 0 0 0 12.0787439
3346 2 -13.7399998 -16.0 -4.2010002 0 0 0 1 10 2 0 0 0 11.1358719
3357 4 -10.04 12.7700005 -6.5749998 0 0 1 2 7 4 0 0 0 11.3777695
3362 1 -15.1000004 -5.7849999 -20.5300007 0 0 0 3 6 4 0 0 0 11.3621826
3365 5 -13.4499998 -2.684 -0.4389 0 0 0 3 6 4 0 0 0 12.1902809
3406 5 -7.941 6.559 -0.5776 0 0 0 0 12 0 0 0 0 11.2178068
3408 5 -12.8500004 4.4180002 -13.79 0 0 0 1 10 4 0 0 0 12.2138653
3433 4 0.3902 18.0900002 -12.2799997 0 0 0 0 12 3 0 0 0 12.6603947
3444 5 16.9699994 -13.5200005 3.1110001 0 0 1 1 9 3 0 0 0 12.2933064
3446 4 15.0 -9.9309998 6.704 0 0 0 2 10 4 0 0 0 14.2320318
3454 2 12.3400002 14.4799996 2.655 0 0 0 1 10 2 0 0 0 11.2513552
3456 5 -14.7600003 -19.5900002 6.988 0 0 2 1 8 2 2 0 0 13.005661
3465 5 -9.4499998 0.3572 -8.7770005 0 0 0 0 10 2 0 0 0 11.6356554
3467 4 6.962 -6.4959998 -10.79 0 0 0 4 5 4 1 0 0 12.7651329
3471 2 -12.3900004 -20.8500004 16.8299999 0 0 0 0 12 0 0 0 0 11.1789112
3481 4 5.355 -14.6499996 -17.6100006 0 0 0 0 12 0 0 0 0 12.0489006
3482 3 -12.7299996 8.4029999 4.4099999 0 0 0 2 8 4 0 0 0 12.431612
3489 2 -2.2060001 -7.1989999 -19.0100002 0 0 0 3 8 3 0 0 0 12.3952627
3501 4 12.3900004 -6.388 9.5439997 0 0 0 2 8 2 0 0 0 11.9561234
3507 5 -16.6499996 -11.8500004 18.0100002 0 0 0 3 6 7 0 0 0 12.4369164
3529 5 16.6100006 -8.6160002 -1.9960002 0 0 0 1 10 2 0 0 0 12.3904877
3536 5 -14.1199999 -22.1599999 1.533 0 0 0 2 8 5 0 0 0 12.4687634
3540 4 5.968 3.2720001 -8.283 0 0 0 3 8 3 0 0 0 12.323762
3561 5 -1.436 14.3900004 5.8210001 0 0 3 3 5 3 0 0 0 11.8673554
3563 2 -7.5110002 -7.2930002 -22.0499992 0 0 0 1 10 2 0 0 0 12.2786207
3569 2 -13.87 -6.652 -13.5100003 0 0 0 0 12 0 0 0 0 11.0823565
3571 4 2.0639999 10.1400003 -0.7959 0 0 0 3 8 3 0 0 0 13.1886969
3589 4 -14.4300003 -7.3829999 -8.4600001 0 0 0 3 6 4 0 0 0 11.7360068
3597 2 16.6800003 -0.2879 -9.9829998 0 0 0 3 6 4 0 0 0 12.2533589
3613 4 -0.7728001 16.3099995 -13.25 0 0 0 1 10 2 0 0 0 12.152338
3614 4 -1.685 2.3829999 7.079 0 0 0 2 8 5 0 0 0 12.5943556
3617 5 -8.1070004 -22.1800003 0.3896 0 0 0 2 8 2 0 0 0 11.3690348
3634 5 19.7700005 -13.7299996 -6.329 0 0 0 1 12 1 0 0 0 12.4101353
3636 4 10.6499996 -16.3500004 -0.8824 0 0 0 0 12 0 0 0 0 11.4472056
3648 2 -3.546 18.7399998 5.5190001 0 0 0 1 10 2 0 0 0 11.856246
3662 2 2.2809999 5.956 18.6900006 0 0 0 4 6 3 0 0 0 12.252739
3675 1 3.605 16.2600002 21.1100006 0 0 0 0 12 0 0 0 0 11.0156775
3678 2 -2.2179999 -2.5899999 -10.3800001 0 0 0 1 10 3 0 0 0 12.2417317
3690 5 -4.2810001 -14.1800003 2.949 0 0 1 1 8 4 1 0 0 12.7988415
3694 4 -19.0499992 -3.2090001 17.3899994 0 0 1 1 9 4 0 0 0 12.3095961