ITEM: TIMESTEP
0
ITEM: NUMBER OF ATOMS
50688
ITEM: BOX BOUNDS xy xz yz pp pp pp
-20.3673 74.1005859 14.1882839
-22.2210007 65.3610001 0.0
-22.2210007 65.3610001 0.0
ITEM: ATOMS id type x y z VoronoiIndex1 VoronoiIndex2 VoronoiIndex3 VoronoiIndex4 VoronoiIndex5 VoronoiIndex6 VoronoiIndex7 VoronoiIndex8 VoronoiIndex9 AtomicVolume
7 2 -14.8599998 -13.8400002 -3.263 0 0 0 1 10 2 0 0 0 11.7369824
21 2 -16.0 1.452 15.1800003 0 0 0 2 10 0 0 0 0 11.8022042
22 5 24.0300007 6.599 8.0430002 0 0 0 0 12 0 0 0 0 11.3160658
26 5 -19.2999992 -17.3999996 -9.1549997 0 0 0 3 10 2 0 0 0 13.5670433
28 2 2.415 6.309 -10.8599998 0 0 0 2 7 2 1 0 0 11.7057638
36 2 8.0710001 -14.6400004 -19.2399998 0 0 0 0 12 0 0 0 0 11.7432575
38 5 4.5609999 -11.25 16.8199997 0 0 0 1 10 1 2 0 0 13.1783161
42 2 7.276 -3.524 -21.5400009 0 0 0 0 12 0 0 0 0 11.2073517
43 5 -1.5750001 13.1199999 11.4399996 0 0 1 2 6 3 1 0 0 11.722004
50 2 9.7430001 -3.099 -22.0200005 0 0 0 2 8 2 0 0 0 11.7509403
61 4 -15.3100004 -8.5229998 -3.9990002 0 0 0 2 10 2 0 0 0 13.4083958
98 2 -0.9715 -8.5860005 18.7299996 0 0 0 0 12 0 0 0 0 11.2351523
112 2 23.0900002 5.7410002 20.2099991 0 0 0 1 10 2 0 0 0 11.9785024
128 5 -14.0900002 6.1760001 -9.7709999 0 0 1 5 2 3 1 0 0 11.6627722
146 4 1.4400001 8.573 -11.9200002 0 0 1 5 4 4 1 0 0 13.3829394
171 2 2.915 -0.7427 -2.951 0 0 0 1 10 2 0 0 0 11.87177
176 5 6.8379998 -20.5300007 11.9499998 0 0 0 2 10 1 0 0 0 12.5582791
177 5 14.8100004 14.54 -20.2199993 0 0 0 0 12 2 0 0 0 12.0670939
181 5 -10.7200003 -10.9899998 5.8730002 0 0 0 0 12 0 0 0 0 10.8633738
191 5 -14.2700005 5.6950002 -13.8400002 0 0 0 2 8 4 0 0 0 12.1001196
203 5 20.6399994 -4.0510001 -2.9260002 0 0 0 2 8 3 0 0 0 12.0991011
216 2 13.6599999 16.6399994 10.29 0 0 1 2 7 3 0 0 0 11.1467238
219 4 7.5279999 -2.7620001 16.3199997 0 0 0 1 12 1 0 0 0 12.2694578
220 2 -4.0489998 17.8299999 -5.948 0 0 0 3 6 5 0 0 0 11.6790076
240 2 -0.1662 10.6899996 6.4439998 0 0 0 3 6 2 0 0 0 10.9462558
241 2 22.2000008 12.2299996 -2.175 0 0 0 2 8 3 0 0 0 12.5809298
243 4 7.6659999 17.8099995 -2.2520001 0 0 0 3 6 3 0 0 0 11.9154062
244 5 -11.0699997 -12.4099999 -20.6499996 0 0 0 1 10 2 0 0 0 12.3555365
245 1 13.8599998 -17.5 5.6570001 0 0 0 4 6 3 0 0 0 11.774868
249 4 -9.7749996 -6.0469999 18.8099995 0 0 0 1 12 2 0 0 0 13.2597571
262 2 -1.7560001 3.01 9.1920004 0 0 0 1 10 2 0 0 0 11.9462682
263 1 -11.2100001 -2.6300001 -16.25 0 0 1 0 11 1 0 0 0 12.0601492
266 5 14.2600002 -18.0 16.6399994 0 0 0 2 8 4 0 0 0 11.8901568
283 5 -4.6360002 10.3999996 -10.9799996 0 0 0 0 12 0 0 0 0 11.266613
295 4 26.0100002 21.2399998 2.5150001 0 0 0 4 8 3 0 0 0 12.9186526
298 4 -5.639 17.3400002 3.118 0 0 1 2 9 4 0 0 0 13.1878195
301 1 -12.1199999 19.2399998 19.8600006 0 0 0 2 10 0 0 0 0 10.873992
311 5 -11.7100001 14.1700001 -3.553 0 0 0 3 8 3 2 0 0 12.7562704
318 5 -6.2410002 -14.4099999 -6.1700001 0 0 0 4 4 4 0 0 0 11.6191969
322 4 -12.8199997 -8.4759999 3.2550001 0 0 0 0 12 2 0 0 0 12.0429325
334 4 21.3899994 -4.8020001 -7.1880002 0 0 0 1 10 4 0 0 0 12.4212466
336 4 -14.4399996 -16.2800007 -2.4979999 0 0 0 2 8 4 0 0 0 12.2480259
362 5 -12.8800002 -9.868 -4.046 0 0 0 1 10 3 0 0 0 13.0411682
370 5 -19.2700005 -17.1100006 -11.5799999 0 0 0 0 12 2 0 0 0 12.1731443
372 5 6.8130002 -19.9400006 3.8 0 0 1 2 5 3 2 0 0 11.2929716
377 5 -4.276 15.3699999 -1.204 0 0 0 0 12 4 0 0 0 13.9047214
398 1 -5.632 0.4928 -1.457 0 0 0 1 10 2 0 0 0 11.8508968
409 2 20.1100006 -3.6300001 -17.1000004 0 0 0 2 10 0 0 0 0 11.0138226
416 2 -12.6499996 -21.2800007 -11.3500004 0 0 2 3 3 6 1 0 0 12.0455046
428 4 18.6100006 -6.5960002 4.8049999 0 0 0 2 8 2 0 0 0 11.3969164
431 2 -4.4899998 20.2099991 -19.4500008 0 0 0 3 6 3 0 0 0 11.499033
437 2 -6.3319998 21.2600002 14.9899998 0 0 0 3 8 3 0 0 0 12.7180062
442 4 -1.38 -20.7800007 -12.3999996 0 0 0 1 12 2 0 0 0 12.8662606
452 4 -17.0300007 -22.0300007 -20.4500008 0 0 0 0 12 0 0 0 0 11.0641642
482 4 2.7679999 -0.2647 -19.5499993 0 0 0 3 8 3 0 0 0 12.2322626
506 4 -6.4109998 -0.1734 16.6499996 0 0 0 2 10 1 0 0 0 11.5471401
527 5 7.033 -5.2259998 4.8299999 0 0 0 4 4 6 0 0 0 11.5734864
530 4 21.7999993 -9.6569996 -7.171 0 0 1 4 5 6 0 0 0 13.9870596
531 5 18.1299992 6.4520002 12.3599997 0 0 0 1 10 2 0 0 0 11.6415015
537 2 2.085 17.4400006 5.1269999 0 0 1 2 6 3 1 0 0 11.3526526
539 2 -3.0 -21.6499996 -16.3500004 0 0 1 3 5 5 0 0 0 11.5866509
548 4 -3.533 -8.1140003 1.6310001 0 0 0 2 8 4 0 0 0 12.120347
553 4 6.1929998 4.7600003 -21.4500008 0 0 0 0 12 0 0 0 0 10.9578056
559 4 12.8900004 6.9990002 -22.0400009 0 0 0 4 8 1 0 0 0 12.4575682
561 4 5.7820001 14.96 -6.0689998 0 0 0 2 8 6 0 0 0 13.321106
564 4 -6.2189999 4.2670002 -11.8999996 0 0 0 3 7 5 1 0 0 12.3969879
569 2 5.665 -3.1659999 4.593 0 0 0 3 6 4 0 0 0 11.5071526
570 4 -19.8799992 -20.4500008 -5.9070002 0 0 1 2 7 3 0 0 0 11.1380854
571 5 -15.9300004 4.9099998 6.9260002 0 0 0 4 8 1 0 0 0 12.136117
587 5 20.1900005 17.3999996 17.1499996 0 0 1 1 11 0 0 0 0 11.951686
597 2 -4.4510002 -17.3099995 -13.4300003 0 0 1 2 7 3 0 0 0 11.5193987
613 5 13.2100001 -5.039 -1.5750001 0 0 0 4 4 8 0 0 0 12.234191
618 2 -2.6010001 6.4780002 -12.8100004 0 0 0 1 10 3 0 0 0 12.1192722
623 4 17.8400002 17.9599992 5.0679998 0 0 0 1 10 4 0 0 0 12.5216837
638 5 -15.7600003 -8.8660002 9.1780005 0 0 0 3 8 2 0 0 0 11.6864815
643 5 -13.3100004 3.859 1.2690001 0 0 1 3 6 3 1 0 0 12.4549837
645 5 -10.7799998 16.9599992 5.6040001 0 0 1 2 7 2 2 0 0 12.1635199
649 4 15.7399998 -18.9200002 8.8479996 0 0 0 0 12 2 0 0 0 11.9414406
654 4 0.6643 -17.0699997 1.326 0 0 0 3 8 2 0 0 0 12.4801731
657 4 19.2299996 -10.6300001 15.9700004 0 0 0 2 8 4 0 0 0 12.3725586
671 2 -0.518 -9.7659998 9.3479996 0 0 0 0 12 0 0 0 0 11.2277346
672 2 23.4799996 21.2000008 -17.6599999 0 0 0 0 12 2 0 0 0 12.0409336
677 4 -6.671 21.1200008 12.4700003 0 0 1 3 8 3 1 0 0 13.0392799
699 5 15.1599999 3.293 3.4749999 0 0 1 1 9 4 0 0 0 12.5600853
701 4 19.8400002 -0.6682 20.0200005 0 0 0 1 10 4 0 0 0 12.0820637
726 5 16.5400009 -8.0799999 8.7299996 0 0 0 0 12 2 0 0 0 12.5953894
727 5 -9.625 -20.9200002 21.3099995 0 0 2 2 7 3 1 0 0 13.3453102
729 1 -2.036 -21.6700001 9.6300001 0 0 2 3 3 3 1 0 0 10.8421174
731 5 22.0699997 -7.513 1.477 0 0 0 4 8 0 0 0 0 12.2123585
741 4 4.3020001 16.4300003 2.6440001 0 0 1 2 7 3 2 0 0 12.5014267
742 4 10.1999998 2.7000001 9.7489996 0 0 0 2 9 2 1 0 0 12.4417048
745 4 5.586 21.2700005 -21.1200008 0 0 1 2 8 3 1 0 0 12.6623326
755 5 11.6300001 -14.2700005 -17.7000008 0 0 0 3 6 6 0 0 0 12.4313965
758 2 5.5240002 9.974 14.5799999 0 0 0 3 6 3 0 0 0 11.1967392
760 1 7.3660002 9.8339997 -17.1900005 0 0 0 3 8 1 0 0 0 11.45115
762 5 15.9899998 -5.2870002 -7.5619998 0 0 0 4 7 4 1 0 0 13.4320994
765 1 -2.4089999 13.0799999 -21.5799999 0 0 0 3 7 3 1 0 0 12.184536
809 2 25.1499996 20.2199993 -0.4692 0 0 0 0 12 2 0 0 0 12.6087036
818 5 5.8169999 9.2110005 6.0120001 0 0 2 3 5 2 3 0 0 12.8779746
842 5 8.5489998 1.4780001 -6.4829998 0 0 0 2 8 3 0 0 0 12.2125282
849 4 -3.605 3.3770001 11.1899996 0 0 0 1 10 3 0 0 0 11.310194
850 5 6.7210002 17.2099991 -17.9599992 0 0 2 0 8 4 0 0 0 12.744752
882 3 -7.0549998 16.4599991 16.9400006 0 0 0 2 8 2 0 0 0 11.7259407
899 4 -4.6220002 -9.1920004 -0.5199 0 0 0 0 12 2 0 0 0 12.2395601
901 4 2.4630001 17.5699997 -1.001 0 0 0 4 9 2 1 0 0 13.6668377
915 5 -8.7360001 -22.2000008 -3.793 0 0 0 1 10 3 0 0 0 12.7506094
926 5 -2.54 7.1999998 8.2270002 0 0 0 1 10 4 0 0 0 13.0524197
936 1 2.803 12.6599999 -15.2200003 0 0 0 3 6 4 0 0 0 11.9995012
941 5 -0.3201 4.7360001 14.8100004 0 0 1 2 8 2 1 0 0 11.9901324
945 5 20.2800007 -16.4200001 12.2399998 0 0 0 4 4 4 2 0 0 12.0292788
946 4 -5.7620001 -13.7299996 20.8400002 0 0 0 0 12 2 0 0 0 12.0273037
950 3 -5.2020001 -1.864 5.8449998 0 0 1 0 11 6 0 0 0 14.105258
951 5 9.5050001 16.5900002 -1.12 0 0 1 1 9 3 0 0 0 11.9324542
958 5 11.3000002 7.3239999 -1.306 0 0 0 5 4 4 0 0 0 12.1611586
961 2 -0.1676 18.6900006 -17.7299996 0 0 1 3 5 5 0 0 0 11.4656391
962 4 -10.1499996 -14.5900002 -11.4799996 0 0 1 1 9 3 0 0 0 12.3040762
963 5 -12.4099999 -12.4200001 -15.2299996 0 0 1 4 3 5 2 0 0 11.9650746
990 4 13.6300001 17.5499993 -1.515 0 0 0 1 12 4 0 0 0 13.9060632
993 4 19.0300007 1.908 -13.0699997 0 0 0 2 8 4 0 0 0 12.1250591
995 1 -2.221 -17.3099995 13.2100001 0 0 0 0 12 2 0 0 0 11.7986717
1007 2 -0.1081 -5.0640001 -2.5840001 0 0 0 0 12 0 0 0 0 11.1882887
1021 4 22.7600003 2.0380001 -12.0 0 0 1 3 5 6 0 0 0 12.7549591
1025 1 -1.103 -12.6999998 11.6899996 0 0 1 3 5 5 0 0 0 11.7059794
1027 4 14.8000002 -9.9049998 8.6029997 0 0 0 1 10 4 0 0 0 13.0580368
1047 4 -7.5710001 20.8400002 1.4500001 0 0 0 2 10 2 0 0 0 12.1532049
1050 1 -2.49 -10.3599997 18.75 0 0 0 2 10 0 0 0 0 11.4081707
1051 4 7.1830001 15.5799999 -20.1200008 0 0 0 4 4 7 0 0 0 13.4949923
1055 2 7.857 5.152 -6.889 0 0 1 3 5 3 0 0 0 11.6181612
1056 5 23.4599991 2.8310001 7.322 0 0 0 0 12 0 0 0 0 11.1727495
1057 4 9.8929996 -7.638 -11.7200003 0 0 1 4 5 3 0 0 0 11.6528664
1059 4 -7.0819998 12.4200001 0.8493 0 0 0 2 10 0 0 0 0 11.206768
1063 5 -13.3100004 9.6180001 9.5539999 0 0 0 4 6 3 0 0 0 12.1713123
1079 2 19.25 -14.2799997 -16.8999996 0 0 1 1 9 3 0 0 0 12.1604624
1089 4 9.3579998 -20.2199993 -16.5699997 0 0 0 0 12 3 0 0 0 12.5456562
1098 4 17.3600006 -18.6200009 20.3199997 0 0 0 1 10 5 0 0 0 14.0672398
1102 5 15.4300003 -19.2299996 -15.9300004 0 0 0 0 12 0 0 0 0 11.2944441
1110 5 -0.9954 -3.0139999 18.9599992 0 0 1 2 8 3 1 0 0 12.401928
1118 1 11.5900002 -13.9300004 0.6276 0 0 0 3 6 4 0 0 0 11.8360749
1128 2 0.1044 -19.4400006 0.8501 0 0 0 0 12 0 0 0 0 11.0267744
1153 5 4.1560001 -15.1400003 18.4899998 0 0 0 1 9 2 1 0 0 12.0183201
1159 4 0.5946 -10.0600004 15.29 0 0 0 2 8 4 0 0 0 11.938055
1167 4 -4.527 20.5900002 -13.1499996 0 0 0 3 6 5 0 0 0 12.3467884
1169 2 14.0699997 2.536 -20.3600006 0 0 0 3 6 4 0 0 0 10.9654676
1178 2 6.5409999 4.0250001 10.9899998 0 0 0 2 10 2 0 0 0 12.0679398
1183 4 24.25 13.2299996 -16.1599999 0 0 1 2 6 3 1 0 0 11.893489
1187 5 -1.456 18.4200001 -14.5200005 0 0 1 2 9 4 0 0 0 13.1417904
1188 4 12.4600001 16.3500004 7.9590002 0 0 1 2 9 3 0 0 0 12.828084
1189 4 2.7839999 21.2999992 20.6900006 0 0 0 4 8 1 0 0 0 13.0401268
1190 2 2.3069999 -17.7700005 -16.9300004 0 0 1 1 9 2 0 0 0 11.1935024
1195 2 20.6599999 -12.8000002 -20.1000004 0 0 0 0 12 0 0 0 0 10.7413731
1199 4 -18.2900009 -9.9200002 -15.0299997 0 0 0 1 12 2 0 0 0 12.4962988
1217 5 17.6299992 -9.9580002 -15.8500004 0 0 0 2 10 1 0 0 0 12.0164223
1222 1 -6.3520002 16.1000004 -2.4660001 0 0 0 1 10 2 0 0 0 11.6829453
1244 3 -11.7299996 -10.7100001 -9.2939997 0 0 0 0 12 0 0 0 0 11.2211981
1247 1 10.7399998 1.586 -19.1499996 0 0 0 1 9 2 1 0 0 12.1306343
1261 4 7.1989999 16.5599995 19.2099991 0 0 0 2 8 4 0 0 0 13.0038223
1264 2 11.6899996 17.7099991 10.0699997 0 0 0 2 8 3 0 0 0 11.1817036
1272 4 20.0599995 18.8400002 -9.4429999 0 0 0 4 6 3 0 0 0 11.8330384
1280 5 -9.9370004 1.5240001 -11.2799997 0 0 0 1 10 3 0 0 0 12.2231779
1283 4 17.2299996 2.1600001 12.9399996 0 0 0 0 12 0 0 0 0 11.1649818
1288 5 -13.3000002 -9.2770004 15.7700005 0 0 0 5 4 4 0 0 0 12.812728
1293 4 18.6599999 -19.8899994 0.4577 0 0 0 2 8 5 0 0 0 12.7423487
1299 4 -6.0910001 -10.8999996 6.4099999 0 0 0 3 8 3 0 0 0 13.1808767
1302 4 4.6950002 -1.597 -18.6100006 0 0 1 1 8 5 1 0 0 12.7957497
1303 2 -6.0100002 5.1259999 0.02891 0 0 0 0 12 0 0 0 0 11.1542625
1305 5 9.7480002 14.2399998 4.8340001 0 0 0 4 4 6 0 0 0 12.7346792
1320 2 -12.3199997 12.3800001 12.3500004 0 0 0 2 8 2 0 0 0 11.4974432
1339 5 3.714 2.408 3.919 0 0 0 2 8 5 0 0 0 13.024004
1342 4 -8.165 18.4599991 17.9200002 0 0 0 1 10 3 0 0 0 12.7105961
1350 4 22.7199993 16.1800003 -0.01951 0 0 0 1 10 4 0 0 0 13.5020952
1363 2 -10.8500004 -4.2350001 2.4419999 0 0 2 2 6 5 0 0 0 12.2556524
1365 4 13.3999996 -9.5930004 -16.7199993 0 0 1 4 6 3 1 0 0 12.605279
1374 4 17.2700005 -10.29 -18.3400002 0 0 0 1 10 5 0 0 0 13.3068371
1377 4 -7.916 -3.573 -12.3599997 0 0 0 1 10 2 0 0 0 11.8150234
1387 3 -16.9400006 -22.0300007 6.4039998 0 0 0 0 12 3 0 0 0 12.9563228
1403 4 17.3199997 -12.6000004 -16.0599995 0 0 0 1 10 4 0 0 0 12.8840218
1414 4 20.7900009 -10.2799997 -4.7800002 0 0 0 1 10 2 0 0 0 12.2123623
1434 5 -11.5900002 10.75 -10.2600002 0 0 0 4 5 5 1 0 0 12.4636154
1445 2 2.3310001 2.925 8.4200001 0 0 0 0 12 0 0 0 0 11.7535572
1456 4 -11.1700001 -9.9390002 -20.0300007 0 0 0 3 6 6 0 0 0 12.642026
1457 4 -9.5579996 3.451 4.2839999 0 0 0 0 12 4 0 0 0 13.2424936
1463 4 6.9959998 17.0799999 0.07751 0 0 0 1 10 5 0 0 0 13.3214121
1471 5 18.8799992 -7.9109998 -19.6299992 0 0 0 5 3 5 1 1 0 12.7016335
1477 2 -5.9400002 -6.1279998 -19.5900002 0 0 0 3 6 4 0 0 0 11.5723734
1478 2 20.0300007 17.6100006 5.7779999 0 0 1 2 7 3 0 0 0 11.6461134
1485 4 2.102 -22.1900005 -4.908 0 0 0 3 6 4 0 0 0 11.6403456
1492 5 -2.478 18.7800007 8.8319998 0 0 2 4 4 4 0 0 0 12.5091086
1502 5 1.638 5.4390002 -3.6010001 0 0 0 2 8 2 0 0 0 12.0909433
1505 4 -4.0450001 20.6200009 21.1700001 0 0 0 2 10 2 0 0 0 12.6573372
1509 5 2.4749999 -19.1000004 16.5799999 0 0 1 2 7 2 2 0 0 12.1945372
1515 5 -11.3699999 1.036 -19.1900005 0 0 0 1 10 2 0 0 0 11.9884768
1523 2 -8.901 13.3199997 -20.5400009 0 0 0 3 6 3 0 0 0 11.2996578
1543 1 22.9899998 5.4390002 -0.6467 0 0 0 2 8 2 0 0 0 11.1373138
1545 4 2.062 -8.4379998 -16.0499992 0 0 0 0 12 0 0 0 0 11.8928804
1556 5 11.5500002 -6.3119998 -7.4949999 0 0 1 4 7 4 0 0 0 13.2235165
1583 2 -7.4510002 -7.4460001 2.221 0 0 0 1 10 3 0 0 0 12.4412661
1599 4 16.4799996 18.6700001 -20.8299999 0 0 0 1 10 3 0 0 0 12.1820803
1605 5 12.7299996 11.3000002 -2.204 0 0 0 2 10 2 0 0 0 12.2541771
1607 4 -2.5150001 10.3400002 18.5499993 0 0 0 4 6 3 0 0 0 12.1381683
1615 4 14.1099997 21.4300003 0.1787 0 0 0 2 8 2 2 0 0 12.3249512
1620 4 -15.7799998 -1.53 19.4200001 0 0 0 2 10 4 0 0 0 13.9544488
1634 5 14.75 19.0100002 -5.7379999 0 0 0 1 10 3 0 0 0 12.0223026
1642 4 6.3829999 -19.7999993 6.1139998 0 0 0 2 7 4 1 0 0 12.5730086
1657 5 -8.7510004 15.1400003 13.5799999 0 0 1 3 7 4 0 0 0 11.994257
1663 2 -10.2100001 -3.23 10.8000002 0 0 0 0 12 0 0 0 0 11.5870104
1669 4 -12.1099997 -20.3799992 -5.3309999 0 0 0 0 12 3 0 0 0 12.5182839
1671 4 25.3899994 18.7800007 -2.918 0 0 0 1 10 3 0 0 0 12.570735
1694 2 6.487 -17.7700005 -3.7890001 0 0 1 3 7 4 0 0 0 11.8426744
1698 4 -9.2329998 -1.4470001 20.9500008 0 0 0 5 4 4 2 0 0 12.4567118
1702 2 2.964 -10.3299999 14.7600003 0 0 1 3 6 2 1 0 0 11.953784
1706 4 3.345 1.175 -7.5619998 0 0 0 1 10 2 0 0 0 12.0504713
1722 5 -4.988 -1.765 -2.362 0 0 0 2 8 4 0 0 0 11.8870602
1726 5 -0.5091 -8.4420004 -6.0180001 0 0 0 0 12 0 0 0 0 11.3943339
1730 5 15.1400003 20.2399998 8.5909996 0 0 2 2 6 3 0 0 0 12.033206
1766 4 -10.9499998 -18.5599995 -3.161 0 0 0 0 12 2 0 0 0 12.3529635
1774 4 -3.4920001 1.14 -12.54 0 0 0 0 12 3 0 0 0 12.5694161
1795 4 0.4348 20.1299992 -13.8500004 0 0 0 0 12 0 0 0 0 11.1360283
1807 4 14.8400002 -8.2919998 14.5 0 0 0 1 10 3 0 0 0 12.0131769
1812 4 7.6209998 -8.1700001 15.4899998 0 0 1 1 8 4 1 0 0 12.7454224
1818 4 -8.8529998 0.5187 17.0799999 0 0 1 1 9 4 0 0 0 11.2592859
1829 5 -9.2559996 15.5600004 -19.5300007 0 0 0 0 12 3 0 0 0 12.6717806
1847 4 0.3771 -21.5799999 -10.7399998 0 0 0 0 12 0 0 0 0 10.8312559
1851 1 -1.169 19.8600006 15.8000002 0 0 1 1 9 3 0 0 0 11.6642714
1865 2 8.5860005 -7.0380001 5.863 0 0 0 0 12 3 0 0 0 12.654974
1873 4 -1.5950001 -19.4400006 6.5809999 0 0 0 5 6 2 0 0 0 12.1324396
1879 5 17.9300004 -16.1599999 -17.4200001 0 0 0 2 10 1 0 0 0 11.8511172
1882 2 9.7539997 11.3100004 14.6300001 0 0 0 3 6 4 0 0 0 12.1912422
1897 4 16.3700009 -0.1331 16.2000008 0 0 1 2 9 4 0 0 0 12.903082
1899 2 21.6900006 2.0899999 3.721 0 0 0 2 8 2 0 0 0 11.7855673
1905 4 -13.4099999 -5.9310002 12.0100002 0 0 0 1 12 1 0 0 0 12.1393004
1906 2 -5.7480002 16.5 0.7226 0 0 0 2 8 1 0 0 0 11.1605024
1920 5 7.6939998 -5.481 7.6329999 0 0 0 2 9 3 1 0 0 12.8145018
1942 5 0.6357 -19.7600003 15.3999996 0 0 0 3 5 4 1 0 0 11.9715186
1947 5 1.059 6.4130001 10.7600003 0 0 0 1 10 4 0 0 0 12.7604847
1951 4 9.8120003 20.2000008 16.9300004 0 0 0 1 10 2 0 0 0 12.0640593
1960 2 22.0499992 7.8140002 0.162 0 0 0 2 8 2 0 0 0 11.9037372
1965 2 -9.6280003 1.499 -20.9899998 0 0 0 1 10 2 0 0 0 12.0183001
1970 2 19.7999993 19.6599999 -19.2000008 0 0 0 0 12 0 0 0 0 11.3394346
1975 4 -9.1669998 2.8710002 -18.8299999 0 0 0 4 8 3 0 0 0 13.031786
1976 5 24.25 17.3400002 15.2799997 0 0 0 3 8 4 0 0 0 12.3455563
1990 5 3.2449999 -8.9049998 -6.3000002 0 0 2 4 3 3 1 1 0 12.2372103
2013 5 0.6332 11.5600004 -5.883 0 0 0 4 5 5 1 0 0 13.0176935
2020 2 -4.322 -8.87 -17.3400002 0 0 0 0 12 0 0 0 0 11.013958
2029 4 -0.4867 2.49 15.9799996 0 0 0 2 8 3 0 0 0 12.0703554
2041 5 14.1400003 1.091 16.5900002 0 0 0 1 10 2 0 0 0 12.0892649
2054 4 11.4200001 -3.3350001 6.809 0 0 0 1 10 5 0 0 0 13.552351
2066 5 -10.1800003 -17.4200001 10.5299998 0 0 0 1 10 4 0 0 0 12.8726226
2077 4 22.5599995 0.7743 -9.7930002 0 0 0 2 8 2 0 0 0 11.9051066
2082 2 -18.5599995 -14.9200002 -12.5900002 0 0 1 3 5 4 0 0 0 11.9034224
2085 5 23.4500008 18.6399994 -17.9899998 0 0 0 0 12 0 0 0 0 11.7635765
2089 1 -15.5299998 -4.7259999 12.0900002 0 0 0 3 6 3 0 0 0 11.173295
2091 4 20.0100002 -7.9759998 -12.9399996 0 0 0 2 8 3 0 0 0 11.6892138
2097 5 -3.5350001 -7.1479998 -1.209 0 0 0 1 10 2 2 0 0 13.3135195
2104 2 13.0200005 -18.6700001 -15.79 0 0 0 0 12 0 0 0 0 11.0022163
2116 5 8.9060002 -13.8100004 -11.3199997 0 0 0 3 10 1 0 0 0 12.2413836
2119 2 -14.3199997 14.3000002 -4.369 0 0 1 2 5 5 0 0 0 11.5444498
2124 5 12.3800001 -15.5900002 13.5799999 0 0 0 1 10 2 0 0 0 10.9988204
2126 5 10.7200003 -6.04 -13.3500004 0 0 0 4 8 1 0 0 0 11.8906518
2144 4 9.5109997 7.244 5.2709999 0 0 0 2 8 5 0 0 0 12.6726876
2147 1 9.0240002 -14.1499996 -15.7799998 0 0 2 3 4 6 0 0 0 11.7030621
2148 2 13.3299999 10.3699999 -6.494 0 0 0 0 12 2 0 0 0 11.905099
2151 2 -11.4399996 6.7199998 21.4400006 0 0 0 2 8 2 0 0 0 12.0051403
2163 2 -2.372 15.4899998 10.4700003 0 0 1 3 5 4 0 0 0 11.4074669
2180 5 -2.096 0.8313 -10.3599997 0 0 0 0 12 0 0 0 0 11.5083542
2183 2 17.4599991 5.8709998 -13.5 0 0 0 2 10 1 0 0 0 11.8040333
2208 2 7.935 12.8100004 4.6479998 0 0 0 4 4 5 0 0 0 11.6310759
2214 2 1.016 -0.3359 -4.2399998 0 0 0 1 10 2 0 0 0 11.7105608
2219 5 15.7200003 -18.4400006 11.6999998 0 0 0 3 6 4 0 0 0 11.4276877
2224 5 -13.2600002 -18.4099999 -17.2999992 0 0 1 2 6 3 1 0 0 12.0689182
2228 5 -9.0209999 16.5699997 -14.3999996 0 0 0 1 10 2 0 0 0 11.621706
2231 5 8.9099998 20.8099995 21.2199993 0 0 0 0 12 3 0 0 0 13.4226475
2232 3 0.4012 -17.8099995 -9.4370003 0 0 1 3 7 4 0 0 0 12.2017574
2265 2 17.0100002 0.4663 -13.1199999 0 0 0 0 12 0 0 0 0 11.5352812
2273 5 7.6090002 -20.6399994 9.3809996 0 0 0 1 9 4 1 0 0 12.6557141
2274 1 18.3099995 5.1750002 5.4899998 0 0 0 1 10 2 0 0 0 11.2859306
2284 5 14.7200003 14.2299996 -15.1999998 0 0 2 0 8 4 0 0 0 13.8365526
2285 4 -11.2299996 -7.868 -21.6800003 0 0 0 3 8 2 0 0 0 12.0989819
2304 4 9.8500004 -8.2620001 10.8999996 0 0 2 1 7 5 1 0 0 12.779459
2317 4 -5.7100001 1.523 20.8299999 0 0 1 4 4 3 1 0 0 11.5288668
2322 4 2.931 -7.5229998 -8.6120005 0 0 0 2 8 6 0 0 0 13.0075769
2326 4 23.6800003 5.4910002 10.2399998 0 0 0 0 12 2 0 0 0 12.6914311
2337 5 13.5799999 -8.5609999 -14.6499996 0 0 1 3 5 3 1 1 0 12.060276
2341 4 14.87 -5.4959998 -14.4600001 0 0 1 3 4 5 1 0 0 12.2923765
2368 2 -1.0599999 -15.3500004 -15.3699999 0 0 0 1 10 2 0 0 0 12.1940956
2369 5 1.054 13.3100004 -10.3100004 0 0 0 1 12 3 0 0 0 13.0099649
2385 4 -11.2299996 3.1329999 14.3000002 0 0 0 3 8 4 0 0 0 12.187727
2386 2 22.0 20.9899998 -22.1900005 0 0 0 2 8 2 0 0 0 11.4410515
2407 2 -0.1701 8.4940005 2.1400001 0 0 1 3 7 0 0 0 0 11.0299368
2414 1 13.8199997 -12.6499996 -16.7000008 0 0 1 3 5 4 0 0 0 11.4772816
2427 4 -11.3500004 1.3710001 -16.6700001 0 0 0 1 10 4 0 0 0 12.4688864
2429 5 15.1300001 -17.5699997 20.9699994 0 0 0 3 6 4 0 0 0 11.9741508
2441 2 -12.0100002 -16.9799996 8.6630001 0 0 0 3 10 1 0 0 0 12.7446604
2442 4 16.5499993 2.03 -20.7199993 0 0 0 0 12 2 0 0 0 12.478158
2443 5 21.1800003 20.3500004 1.947 0 0 0 2 8 6 0 0 0 13.3684969
2446 2 3.4790001 -9.6450005 -12.4399996 0 0 0 2 8 4 0 0 0 12.3635836
2451 2 -15.1599999 -4.441 1.6410001 0 0 0 0 12 0 0 0 0 10.6664658
2457 4 10.7600003 3.4849999 7.5609999 0 0 0 2 9 3 1 0 0 12.9671116
2482 5 -12.0699997 0.8808 -21.6399994 0 0 0 1 10 3 0 0 0 12.776021
2489 2 2.4370001 -5.0739999 -7.9650002 0 0 0 3 6 4 0 0 0 11.7144051
2494 2 -16.3899994 -4.244 -8.8599998 0 0 0 1 10 2 0 0 0 12.2124195
2496 4 4.4320002 6.2839999 7.1859999 0 0 1 3 5 4 1 0 0 13.2266159
2506 2 -8.1009998 19.4899998 -0.8228 0 0 0 3 6 4 0 0 0 12.1014824
2513 5 18.3999996 17.4099999 -20.1599999 0 0 0 1 12 2 0 0 0 12.7008972
2521 2 -1.254 13.8800002 9.0200005 0 0 1 2 9 2 0 0 0 11.9988184
2523 4 12.8400002 12.4499998 21.1299992 0 0 0 0 12 4 0 0 0 13.5858412
2527 1 -13.3100004 -11.3199997 -13.3599997 0 0 1 3 5 2 2 0 0 10.8441258
2541 2 -7.6360002 14.2600002 19.9599992 0 0 0 5 6 2 0 0 0 11.7705708
2543 5 -15.7299996 0.9562 -1.3710001 0 0 0 1 12 1 0 0 0 12.5444117
2545 5 -15.1000004 3.7709999 11.04 0 0 1 0 11 1 0 0 0 11.9140062
2548 2 -9.2930002 -6.6789999 -17.0200005 0 0 2 2 9 1 1 0 0 12.7202568
2553 2 -8.7410002 3.52 -12.3599997 0 0 0 1 10 2 0 0 0 11.5911284
2557 4 2.187 16.6000004 -14.7399998 0 0 0 2 10 2 0 0 0 12.2637549
2562 5 -0.924 19.3299999 -20.2800007 0 0 2 1 7 3 1 0 0 11.9714088
2564 4 8.3780003 8.9659996 -11.6400004 0 0 0 5 6 2 0 0 0 12.0704899
2573 5 11.2200003 -3.8670002 13.8999996 0 0 0 3 6 4 0 0 0 11.8176451
2574 2 -9.5939999 -21.3799992 3.998 0 0 0 2 8 1 0 0 0 10.4985171
2594 2 5.724 -1.5010001 -8.3219996 0 0 0 3 6 4 0 0 0 11.0873022
2596 4 16.0699997 14.4499998 19.6000004 0 0 0 2 10 2 0 0 0 12.2330656
2600 1 17.0699997 -6.9369998 -1.5110001 0 0 0 0 12 0 0 0 0 10.821867
2619 5 -8.9720002 -7.2849999 20.8600006 0 0 0 0 12 2 0 0 0 12.1611357
2627 4 -3.425 -14.8999996 -16.75 0 0 1 2 7 4 0 0 0 12.9707738
2632 4 0.9574 1.142 -20.7900009 0 0 0 2 10 2 0 0 0 12.5850334
2644 2 7.949 18.7700005 9.1239996 0 0 0 0 12 0 0 0 0 12.1800976
2647 4 13.3800001 -5.5190001 -18.8600006 0 0 0 1 12 2 0 0 0 12.3137541
2657 4 -8.4899998 18.8799992 -15.5100003 0 0 0 0 12 3 0 0 0 12.7027407
2666 2 17.6499996 -4.5630002 8.955 0 0 0 1 10 2 0 0 0 12.460392
2675 4 -11.7799998 5.2659998 10.1599999 0 0 0 1 10 2 0 0 0 11.435792
2695 4 -4.809 -7.408 20.8099995 0 0 0 1 10 3 0 0 0 12.3395891
2700 1 18.3799992 0.1381 5.263 0 0 0 1 10 2 0 0 0 11.4837828
2722 5 -12.0299997 19.4099999 0.3218 0 0 0 1 10 3 0 0 0 11.6707983
2752 2 21.3899994 15.9499998 -4.6620002 0 0 0 0 12 0 0 0 0 11.4310971
2760 5 -5.3699999 0.0188 -20.1399994 0 0 0 0 11 2 1 0 0 12.2744122
2768 2 8.7379999 5.7420001 -4.8590002 0 0 0 4 4 3 0 0 0 11.5476837
2774 4 9.9160004 0.9548 7.1630001 0 0 0 1 10 4 0 0 0 13.0526857
2778 4 6.184 10.9799996 16.7600003 0 0 0 1 10 2 0 0 0 11.3173075
2782 4 -14.3500004 -21.0300007 13.1800003 0 0 1 0 11 3 0 0 0 13.6536436
2790 4 -0.2831 16.9099998 3.6110001 0 0 0 3 6 4 0 0 0 12.3148365
2799 4 0.2685 -11.7799998 -21.9599992 0 0 0 1 10 5 0 0 0 13.4189739
2800 4 -11.4899998 16.1900005 -20.8099995 0 0 0 3 6 4 0 0 0 11.6763964
2802 5 -3.6210001 11.4300003 11.4700003 0 0 0 2 8 4 0 0 0 12.1063147
2820 4 12.4899998 -11.1300001 9.1260004 0 0 0 2 8 5 0 0 0 12.2548561
2823 4 -12.2200003 12.8299999 18.6800003 0 0 1 3 7 3 2 0 0 13.4810963
2824 4 17.1399994 7.0669999 4.6599999 0 0 0 0 12 2 0 0 0 12.3475399
2830 4 -20.0300007 -21.9300004 -16.2700005 0 0 1 3 5 6 0 0 0 12.2723589
2848 4 12.7600003 -17.6100006 1.027 0 0 0 3 6 4 0 0 0 11.9885932
2851 3 -15.6300001 3.0309999 -16.0499992 0 0 0 1 10 3 0 0 0 12.7189904
2857 4 -0.1434 21.3799992 -2.5969999 0 0 0 4 4 7 0 0 0 11.8602572
2880 5 20.0100002 -20.75 -16.9899998 0 0 0 1 10 4 0 0 0 12.3626537
2885 2 19.5400009 17.9899998 -17.6599999 0 0 0 3 6 4 0 0 0 11.108037
2895 4 2.7449999 -19.8999996 -4.947 0 0 0 1 10 2 0 0 0 11.4870425
2899 5 15.3199997 -12.6000004 -1.6360001 0 0 0 2 8 4 0 0 0 12.1380034
2906 4 16.5100003 9.5459996 1.597 0 0 0 1 10 2 0 0 0 11.3560276
2908 5 -1.949 8.4530001 0.3938 0 0 0 2 8 3 0 0 0 12.0876694
2914 2 -2.82 -1.972 -6.5570002 0 0 0 2 8 2 0 0 0 11.281847
2932 4 -13.1400003 -14.29 -1.206 0 0 0 1 10 4 0 0 0 12.9580518
2955 4 -8.7519999 8.5299998 -14.0200005 0 0 0 1 10 2 0 0 0 11.8006811
2975 5 6.8379998 -3.6180001 -6.6859999 0 0 0 3 9 2 1 0 0 13.4252596
2985 4 -4.1110001 3.412 -16.5100003 0 0 0 1 10 3 0 0 0 12.4753247
2993 4 12.0799999 -0.6856 10.2600002 0 0 0 3 6 5 0 0 0 12.6164274
2994 4 -13.5100003 -14.6899996 -14.3699999 0 0 0 1 10 4 0 0 0 12.6440153
3004 5 10.1499996 -2.2550001 -9.2620001 0 0 1 2 7 6 0 0 0 12.741787
3009 4 6.02 -10.5500002 -7.6729999 0 0 1 0 9 3 0 0 0 11.2981367
3020 5 12.1199999 20.2800007 -9.7159996 0 0 0 3 8 2 0 0 0 11.8621732
3023 2 19.0699997 -9.0039997 -10.6999998 0 0 0 1 10 3 0 0 0 12.3844576
3060 4 -8.0740004 21.4099999 -16.4400006 0 0 0 2 10 1 0 0 0 12.2159872
3068 2 4.0110002 3.6659999 6.8020001 0 0 0 3 5 4 1 0 0 12.6535168
3090 5 17.1700001 -9.8020001 20.1000004 0 0 1 0 11 3 0 0 0 12.2576923
3100 4 -3.929 1.888 -0.04107 0 0 0 0 12 2 0 0 0 12.1764546
3115 4 -1.138 7.4520002 -1.38 0 0 0 0 12 0 0 0 0 11.5674448
3118 4 1.199 -2.8020001 -3.582 0 0 0 0 12 3 0 0 0 12.895197
3134 2 4.5539999 7.5479999 -14.7600003 0 0 0 3 10 1 0 0 0 12.7101517
3145 2 -11.9899998 21.1800003 4.0050001 0 0 0 1 10 2 0 0 0 12.0541868
3150 2 21.0699997 19.5100003 7.2220001 0 0 0 1 12 1 0 0 0 12.6434117
3152 4 -3.086 -17.1200008 -15.4600001 0 0 1 0 9 3 0 0 0 11.8497696
3158 2 10.5 -7.3930001 3.958 0 0 0 3 8 2 0 0 0 12.1068134
3159 5 -4.4499998 15.3599997 -6.48 0 0 0 4 8 2 0 0 0 12.9325372
3165 5 10.8100004 -15.5299998 18.3500004 0 0 0 1 10 3 0 0 0 12.3565178
3167 2 -4.1129999 2.3840001 19.4799996 0 0 0 2 8 4 0 0 0 11.4853354
3174 4 -6.1919999 0.09512 -5.5609999 0 0 0 3 6 4 0 0 0 11.9053002
3178 4 16.8700008 -10.2399998 10.7200003 0 0 0 0 12 3 0 0 0 12.7296305
3180 2 20.6900006 20.1399994 -6.829 0 0 0 2 8 2 0 0 0 11.3197537
3182 4 14.1599999 -18.6100006 -18.2199993 0 0 0 1 10 5 0 0 0 12.931941
3185 5 -0.05925 5.8540002 5.7119999 0 0 1 3 4 5 1 0 0 11.4716587
3186 5 4.5850001 -1.576 -1.275 0 0 1 0 11 1 0 0 0 11.780901
3199 5 12.1499996 19.6399994 -0.02691 0 0 0 3 8 3 0 0 0 12.0606213
3201 5 -12.1000004 18.0300007 -12.7399998 0 0 1 2 7 2 2 0 0 11.4316817
3220 4 -6.0539999 19.4799996 -15.2299996 0 0 1 1 9 4 0 0 0 13.1508818
3222 4 12.5299998 -2.2179999 -9.6239996 0 0 1 2 9 2 0 0 0 12.113843
3234 4 -8.6750002 -7.7230001 5.0029998 0 0 0 0 12 3 0 0 0 13.263444
3240 1 3.626 8.8549996 -13.0100002 0 0 0 3 5 3 1 0 0 11.4360714
3241 4 -10.1700001 21.1100006 -15.2299996 0 0 0 4 6 4 0 0 0 12.7903843
3246 5 -3.039 -21.0100002 4.533 0 0 1 1 9 2 2 0 0 13.1456909
3267 5 2.832 -13.8400002 -7.888 0 0 0 1 10 4 0 0 0 12.6042013
3286 5 9.934 -7.923 15.1499996 0 0 0 2 10 0 0 0 0 10.9349452
3287 5 12.96 15.6400004 -16.3700009 0 0 0 1 10 2 0 0 0 12.0525761
3298 5 2.352 -21.3299999 14.6199999 0 0 0 1 12 1 0 0 0 12.4309559
3301 5 21.2000008 16.2399998 -7.1989999 0 0 0 1 12 1 0 0 0 12.0705137
3303 5 19.5900002 2.55 -15.2200003 0 0 0 0 12 0 0 0 0 11.5203982
3315 4 1.696 -10.4399996 9.9119998 0 0 0 3 6 5 0 0 0 12.6262512
3337 5 -10.8000002 -16.4899998 1.318 0 0 0 2 8 4 0 0 0 12.4861899
3343 5 -8.4549999 18.9899998 -7.1719999 0 0 0 0 12 0 0 0 0 11.251791
3357 4 -11.79 13.7799998 -7.5110002 0 0 0 3 7 2 1 0 0 11.3238649
3387 5 21.2099991 17.5 -19.3299999 0 0 0 1 10 5 0 0 0 13.2334986
3406 5 -11.8400002 7.013 -1.017 0 0 1 4 3 5 2 0 0 12.4605799
3414 2 21.3899994 20.9200002 -4.8509998 0 0 0 0 12 0 0 0 0 11.1875515
3433 4 0.9265 17.7900009 -12.75 0 0 0 1 10 4 0 0 0 12.3388691
3438 5 16.9799996 -17.4300003 -21.6000004 0 0 2 4 3 5 2 0 1 13.9036198
3444 5 10.87 -13.4700003 3.0209999 0 0 0 2 10 1 0 0 0 12.2919283
3446 4 8.8570004 -9.9309998 7.013 0 0 0 1 10 5 0 0 0 14.0057449
3454 2 12.5 15.87 1.895 0 0 0 3 6 5 0 0 0 11.4889889
3465 5 -13.8900004 0.537 -9.6660004 0 0 0 0 12 3 0 0 0 13.1164866
3467 4 1.559 -5.625 -10.1000004 0 0 0 0 12 0 0 0 0 11.6006785
3471 2 -19.2299996 -21.0400009 16.6599999 0 0 0 0 12 0 0 0 0 11.0396996
3481 4 -0.8072 -14.4499998 -17.6900006 0 0 0 1 10 2 0 0 0 12.3003187
3489 2 -8.0740004 -7.4130001 -19.2000008 0 0 0 1 12 2 0 0 0 12.3390741
3497 2 20.9699994 12.2200003 8.7130003 0 0 1 3 4 5 1 0 0 11.529522
3501 4 6.8670002 -6.7199998 9.6079998 0 0 1 3 4 5 1 0 0 12.0788698
3516 4 16.1100006 -9.3059998 2.4619999 0 0 1 2 9 3 0 0 0 11.8794088
3529 5 11.0200005 -8.4460001 -2.0539999 0 0 2 1 7 4 1 0 0 12.4666882
3540 4 2.3729999 3.494 -7.981 0 0 0 0 12 0 0 0 0 10.9733372
3561 5 -3.2880001 14.1300001 7.6100002 0 0 1 2 8 3 1 0 0 12.6436081
3563 2 -13.75 -7.1570001 -22.0100002 0 0 0 1 10 2 0 0 0 12.1023455
3571 4 0.08073 10.8500004 1.937 0 0 0 3 8 4 1 0 0 13.3590021
3587 4 18.2199993 -19.9300004 -20.9799996 0 0 0 1 10 4 0 0 0 13.0784645
3597 2 11.9700004 0.4108 -9.8800002 0 0 1 2 7 4 0 0 0 12.151845
3613 4 -0.5554 16.0300007 -13.9399996 0 0 1 3 4 5 0 0 1 13.1636658
3614 4 -6.3410001 1.842 7.81 0 0 0 3 6 5 0 0 0 11.9617244
3617 5 -14.8000002 -22.0400009 0.3744 0 0 0 2 10 0 0 0 0 12.1826057
3634 5 13.6099997 -13.3100004 -6.2919998 0 0 0 2 10 3 0 0 0 12.0288429
3636 4 4.0149999 -16.1499996 -0.7409 0 0 0 2 8 4 0 0 0 12.0226164
3648 2 -4.2459998 17.9400006 5.1799998 0 0 0 3 7 2 1 0 0 11.4413834
3659 4 18.8999996 -3.276 21.0300007 0 0 0 0 12 0 0 0 0 11.8866302
3662 2 -2.6310001 4.3010001 19.2299996 0 0 1 3 4 4 1 0 0 11.2562218
3675 1 2.1849999 15.29 18.8299999 0 0 0 2 10 0 0 0 0 11.5933695
3678 2 -7.5219999 -2.379 -10.1599999 0 0 0 1 10 3 0 0 0 11.923377
3690 5 -10.4700003 -14.1700001 3.138 0 0 1 2 9 4 0 0 0 13.5160103
3708 3 6.7529998 -4.3060002 -4.1750002 0 0 0 3 6 5 0 0 0 12.5930586
3714 4 4.9060002 -12.3800001 -21.2000008 0 0 1 1 9 6 0 0 0 14.4245291
3726 5 5.0009999 -22.0499992 -20.8899994 0 0 0 2 8 4 0 0 0 12.4024267
3738 5 11.54 13.8900004 -8.1370001 0 0 0 2 8 4 0 0 0 12.289402
3744 4 -17.8999996 -18.2999992 13.7299996 0 0 0 2 10 2 0 0 0 12.151289
3746 4 -11.6099997 -16.5900002 -14.8199997 0 0 1 0 9 3 0 0 0 11.4914847
3747 5 -0.1388 -13.29 -11.3400002 0 0 0 1 12 1 0 0 0 12.8366041
3749 5 -10.4799996 -9.5170002 4.0890002 0 0 0 0 12 0 0 0 0 11.0571556
3752 4 -12.1400003 -4.7340002 -17.7000008 0 0 0 4 8 4 0 0 0 13.704463
3753 5 -4.7560001 -3.527 -0.6371 0 0 0 1 10 2 0 0 0 12.1496744