# LAMMPS data file
50688 atoms
5 atom types
0.0 79.732439473 xlo xhi
0.0 79.732439473 ylo yhi
0.0 79.732439473 zlo zhi

Atoms  # atomic: id tyoe x y z

1 5 48.88696745346629 73.45624198687331 60.19957153154053
2 5 46.271821209850785 1.3430157903909705 50.35191834900014
3 5 30.202842591064737 25.05033647055072 30.986331909726072
4 5 60.59353871607432 3.2336709003614477 51.36077173513357
5 5 68.01390218615148 56.468252648997826 36.378437575731745
6 5 76.1566623420735 31.64230403942939 36.51660088092004
7 5 12.359139059436423 45.493649818309336 62.68182326450641
8 5 50.745721258966654 17.128217508430957 11.204000870149505
9 5 68.72650603062011 67.59521572630027 52.81423660210329
10 5 50.66363026055457 45.78444665820558 59.89499146309831
11 5 7.335339146602003 65.47918639483592 75.10917346446907
12 5 23.589930497946277 16.506143994395675 8.104361021051615
13 5 56.0969034027752 5.137313156380083 60.43905881274333
14 5 15.134847256980718 57.75373393139695 55.50300767050155
15 5 6.204397784969839 40.25255310157008 12.839195866858947
16 5 16.74928266560034 75.24117037475972 16.314957112295
17 5 71.65279309353957 46.01533902768549 13.712228956821159
18 5 18.7537164014491 16.246556796340883 30.633654568556462
19 5 21.174764064074363 59.87025493164757 10.835413661259995
20 5 21.289016540399164 76.85903531096143 5.127969241507229
21 5 18.18635424873698 66.15875127617734 78.5870910410739
22 5 36.24595260347777 79.71325317176714 8.686244089227523
23 5 38.95960227241741 40.0554674844412 42.53751931523992
24 5 66.34811260107705 24.653721904796097 11.999050120196522
25 5 56.52576913833279 50.622224962310625 11.810715313978692
26 5 14.553758649778606 18.10154591934268 49.59797314215109
27 5 68.97537405429287 71.99681529738288 6.113681496986743
28 5 8.925923647050915 18.007786822630568 6.946188210594503
29 5 26.28103545706616 10.734122530343692 22.259049613864466
30 5 70.81401703427811 0.7894777353341098 8.809577284201263
31 5 75.76476317151372 4.896582471687737 4.284339859899777
32 5 43.213590217906486 48.34498242396193 12.319720548980253
33 5 64.51896713550353 41.944857948056175 71.18272876845108
34 5 26.69468637712553 66.69560794483495 47.57194004594364
35 5 67.87752528691964 60.74930475799356 24.421436660771224
36 5 30.25447296083438 75.85804695114793 6.871841376485884
37 5 17.188310771295704 60.6521441131303 79.40389076149108
38 5 60.10976994168972 66.3779521734282 45.51926793894226
39 5 41.93230690924361 70.19549317972796 78.23568556292983
40 5 37.53866436307214 6.109752434654614 53.69526449798037
41 5 41.699123005040704 39.25752998064452 41.263205080955665
42 5 40.257203666526955 63.62683962585127 23.952562771291078
43 5 30.138275313663343 13.232664988650843 14.229600560895221
44 5 5.041708808446805 17.818170785125258 16.86618369103676
45 5 1.3084422663454536 24.24208470540241 76.19213971509642
46 5 64.27032420395004 28.703276926002356 52.60105196370778
47 5 67.86173320974571 52.37966915592782 18.269775832109165
48 5 38.06744095459363 50.48476657687846 46.24465924823768
49 5 33.79716078720953 64.72385286268839 76.71434236606959
50 5 37.89083074998525 75.56309906672747 8.381627457932352
51 5 2.97973169085431 67.75544275424419 27.188579257749158
52 5 54.792658978932025 29.427409352466384 72.56381424047414
53 5 55.36683699236225 30.426746991079956 50.98397888257356
54 5 31.59983026099212 42.67274006918818 47.58797455607538
55 5 61.647825505648285 51.5087277245532 73.35720473430521
56 5 36.787890143851016 73.47894658078688 36.59170995967955
57 5 56.94738005435074 6.543689111055057 9.617009581063819
58 5 11.008291322735587 69.79819274457329 46.10657217049419
59 5 8.261381708249923 36.13776371044962 44.39239607242999
60 5 44.32430598838629 43.721759812042535 74.65229734886593
61 5 17.821072438282837 73.25004802960265 69.10629184975006
62 5 36.50252874999555 28.289316659327373 1.4876659044540081
63 5 19.008249072765828 55.07687908055407 17.231809117262685
64 5 58.567848661325414 71.02911646287973 30.439424934043217
65 5 23.5118037311583 31.988226885650548 16.950513922595512
66 5 54.9254555561913 31.25155409034672 48.9065307711856
67 5 18.44726277283041 67.64790932782356 64.7495318493655
68 5 73.87438600017782 25.866333097171033 71.11429960406292
69 5 1.2353286079372976 74.93372501513333 24.605324290140437
70 5 4.018874440236432 51.17853509652852 31.731167846625564
71 5 4.833678642846166 62.15257853904179 72.09133253557029
72 5 17.08664824795089 76.09488309324993 12.1260063524764
73 5 30.307840805724783 73.08786169365332 46.997513095621805
74 5 0.5991614335258464 44.41929789565898 47.56998164937745
75 5 45.95861946471253 5.134519748384526 38.26105305176084
76 5 47.52060613953924 12.317083428289896 4.917648760169737
77 5 36.70675950329155 42.44278741381293 2.4897628382912056
78 5 5.6435521233128 29.188996025244013 14.786287264451747
79 5 12.952245070690152 51.26116045749615 28.269415804910146
80 5 36.59392835614158 58.3864610252798 7.244764411446131
81 5 14.849883622178362 34.71896566554708 63.470242514173265
82 5 35.008851372919786 20.426866915525217 79.21501904161147
83 5 9.777915102325812 53.24612752018771 4.210175859969281
84 5 22.676917604816705 72.85031258346997 50.46423445546565
85 5 73.11872732796338 31.212040235721172 5.253642744630751
86 5 11.95163587330803 15.800712036269388 22.172970834997766
87 5 35.490946886035886 45.52867361599788 60.203248473916226
88 5 49.96647007420546 77.92869006798288 53.38701527357537
89 5 54.237604974845844 5.152126844303991 72.75929246304166
90 5 30.42215516851967 24.968352352902198 29.67790550174905
91 5 36.96031952317217 13.722201015116338 0.5632528146426977
92 5 29.748135602230143 56.16039897908627 75.6451202046546
93 5 78.48131788227619 37.78235203158577 44.38761065465898
94 5 66.59580638384867 56.056070474867475 57.38767531747758
95 5 1.6064039587336707 16.720358806830223 64.7471761739527
96 5 72.827503987051 71.76781238234508 78.40039122224105
97 5 43.483384410939244 16.832132134585038 9.132899642941906
98 5 8.864474130425233 30.803826729653984 55.69918332005215
99 5 49.13593906635069 44.38738572553911 9.258468064588573
100 5 70.1982084424813 20.111467432028096 45.449522492837
101 5 1.4575837236169067 11.914418909279618 14.107269897727319
102 5 21.119754495841928 46.75798148418743 38.87806084449504
103 5 28.56026218753578 44.5330637685133 42.93425154821306
104 5 27.937677019258047 17.306728012993712 2.8218923607563715
105 5 67.42296078537667 62.334297177351615 53.70184175293851
106 5 76.2163149482168 75.35779276847873 57.46894987201646
107 5 23.03368714132771 56.62109807413394 74.41750813991881
108 5 51.34885607935757 8.44833369650662 16.952381530217906
109 5 24.72394111629079 79.1910875845703 73.80005512797533
110 5 61.45544415876139 78.62807345454193 63.480735635535545
111 5 15.45958426028706 29.219087948880457 2.752739912092416
112 5 40.405891619266015 32.84094788700855 17.81145027551822
113 5 4.738158691664608 19.445494903880153 32.42559447119876
114 5 29.392929617149882 17.178758872248697 33.02322075897934
115 5 5.220292087959693 55.78834723734493 10.892545648142923
116 5 77.91593267648291 66.68950107180697 7.732348223187861
117 5 22.728122697729724 39.87376114517361 62.80333620657669
118 5 61.249060056485085 67.68860630871932 71.48736732872969
119 5 57.20332413220408 66.84738955463898 26.006018219816102
120 5 8.835915991117265 48.79474770133724 73.92621083934057
121 5 14.261016384754763 9.041327065001012 42.38743229874003
122 5 72.52978660344962 17.9535313718202 7.254013921782339
123 5 19.843452366693956 74.11054394304908 54.72754962294671
124 5 14.327578092206767 17.378582910458682 75.48618394689805
125 5 62.107248627041706 77.73091441219007 3.9911594793267393
126 5 48.05167825423619 68.30434563773956 31.234899222047247
127 5 78.00644787301509 20.628712522186593 72.80906671608793
128 5 22.150135412196242 71.88445063611871 62.058575068409276
129 5 43.178021255716224 62.357982823617064 53.843836316738674
130 5 6.431696954708278 39.05708312473267 33.01314755018612
131 5 68.69683100962025 36.52300036003465 27.85402375090346
132 5 68.61993847232289 21.458825022027366 13.43838392486392
133 5 11.29037013047862 68.8407216393719 23.734376085517933
134 5 13.513707454631582 52.591928365556235 0.2712953320252542
135 5 9.731281269987157 51.12132467459177 55.301265002028586
136 5 46.46155687257075 2.8141206877611693 0.4297699924538825
137 5 74.61616523039247 27.340088166497885 66.6513937867257
138 5 71.55123453732713 72.93851994500795 70.30600372921627
139 5 13.757436891751412 6.449233703118911 36.074003776967466
140 5 61.814797562462566 27.75635029416896 48.539629728510626
141 5 63.371236372130625 51.842615123214166 75.94534868458724
142 5 55.37208811419214 24.32778589737474 2.3568293021428697
143 5 9.982453674371586 48.48540098418187 50.085051794292596
144 5 70.50178075576422 51.14010356084803 74.3147545117495
145 5 67.05337257388446 26.897236176043496 70.48913938316458
146 5 38.45513176601398 6.3499296904926075 55.51774536288849
147 5 34.205904856463704 14.083854568728713 34.28647972789267
148 5 72.7395678751191 26.397952742149442 34.990534822125774
149 5 40.23118469447888 28.85697851562047 33.27089019534803
150 5 26.479761725769375 32.420445803138826 50.649321794998805
151 5 41.5977202396452 31.12150571374536 34.06125159724098
152 5 68.08870670200919 54.53117677339295 37.66170545729031
153 5 35.76737714661389 44.736349880548815 32.39896967251807
154 5 12.500961447097731 43.70175488285898 72.87864794489843
155 5 54.93918375054953 20.81649469455587 12.623906926058995
156 5 28.602005151761055 77.19288216706265 5.294965934034894
157 5 53.11221876565245 42.24401922640197 52.248350159739466
158 5 62.24610401340952 13.307560450274574 63.55236732075757
159 5 45.29541878851453 38.450098337875 65.96977999606801
160 5 13.25200450931102 55.14860375022933 65.38990807367149
161 5 14.042429143041993 66.49972806182564 25.193758678890635
162 5 33.22654631051369 48.64018321787108 9.095031327551641
163 5 7.874646282448612 61.898268763252645 2.6593375803177572
164 5 10.0563936781005 19.799004188818994 72.99187374654612
165 5 43.903770853903865 11.560256027881609 5.614135924270662
166 5 64.3308720666158 15.69828508609867 11.560708800624024
167 5 68.56353799814399 56.668408026711866 46.099618647535316
168 5 47.54255282630193 6.965743518101612 47.82230111603616
169 5 31.10080938703376 33.1089059673096 27.367623584402086
170 5 58.84649623069185 68.20225270358962 16.705457406668845
171 5 62.47041286836005 72.25852250785928 11.653533896061571
172 5 16.176554523190628 69.6866051379508 11.46963405999533
173 5 72.70503247417062 45.58564410243935 7.415433609858971
174 5 59.795819952901304 0.7586506723009276 65.30391164090604
175 5 58.40992887909449 27.20598875885369 51.47974961373193
176 5 67.60368289803361 16.67420012790344 31.746004370159362
177 5 32.19778470227163 60.24659279021076 67.36816683871872
178 5 42.65068842053086 47.430371936077 57.137871434354985
179 5 43.760913457313706 66.20615733734145 22.655194552801696
180 5 5.807771943675498 35.80735127739767 26.166085815815144
181 5 55.65507278854374 11.327662750935342 58.80055473094877
182 5 71.01956578461701 10.224033209361194 61.63533556967054
183 5 15.274699046411506 47.270667385381365 47.41835188425888
184 5 15.883318599222074 8.555690699607746 6.6120415300005595
185 5 14.288784505074636 58.27634631632055 45.495057922600544
186 5 7.807686506962398 75.00328193827882 36.336648133778425
187 5 36.367489091119495 44.36576750289092 5.719700760557464
188 5 76.79343149036255 47.57474446619714 7.919051653954887
189 5 7.522882968326194 76.28581665186887 8.693221535742927
190 5 22.578327275452548 46.29977044272976 27.35964450691112
191 5 50.12582818767725 79.53189366163629 55.474469712603806
192 5 28.17028012185266 13.617731546135358 3.4369665881119302
193 5 57.23380493584118 49.48753383918131 77.1264563777005
194 5 73.87516950852941 46.849794322430256 75.67647024227412
195 5 63.69538867788136 20.996096225120024 73.8161325444496
196 5 52.63676105693493 5.2427510776163935 14.68365588115849
197 5 73.50136759678254 5.524602563593495 16.567592609866942
198 5 2.3481643625368656 3.4019424065039003 42.04579182388335
199 5 11.939315287111553 55.54453804260655 61.07130332964087
200 5 48.71858165084065 3.7606754501391215 48.6413855863829
201 5 29.388659796959345 13.420196675249706 9.292114570933123
202 5 63.53797024627805 28.342546049701546 73.51771214389416
203 5 41.390200715904164 5.085376573614595 32.23350770957852
204 5 35.32657578907551 62.39376926928467 73.5125374655891
205 5 46.36077741728564 79.40536638035435 26.913723833675412
206 5 40.6296489487431 62.243287023586944 10.358612130484694
207 5 53.312134768122235 27.047745316107815 47.42329398746801
208 5 66.70395859452768 78.88636172398155 52.130482881143905
209 5 71.53151920216293 39.398848191042305 24.414324737577306
210 5 30.927884773331183 56.46634432715058 30.63910217507332
211 5 44.17376628010205 40.39741009798409 19.888124205639137
212 5 48.755883307458085 76.76468183561613 45.750231596217674
213 5 27.497358368020265 3.6309427944753403 59.84834342412625
214 5 54.45859601527579 27.024390580064058 77.10414478476024
215 5 42.352095645291236 50.98867870049803 5.224737678131311
216 5 68.0283120034216 48.44678328931766 78.94713694097115
217 5 30.40573809900043 29.296717447389117 43.61822570305273
218 5 74.04273477880741 0.0986723524460012 75.81963700940773
219 5 20.545104158325984 10.88633734411502 0.1777446944040511
220 5 53.5970615617077 5.547004062202303 33.92726660360384
221 5 73.86708911840657 10.226487228554275 53.78284098662707
222 5 29.370356359679015 69.33849464833176 30.17518529720722
223 5 11.02028433031586 9.32204677750603 62.507222377331885
224 5 42.12060623595001 59.96554182994204 18.228828068901073
225 5 46.903478271663424 53.70403246398156 16.180373695877186
226 5 53.467005546137976 57.09257069401847 36.184913967981466
227 5 44.940075792159426 34.46534796823122 64.90902610719161
228 5 52.120031161525326 41.56437368069345 71.14615783662184
229 5 53.18231111379749 65.25473871375569 57.60889744946449
230 5 57.51791364963747 56.26307146213168 9.361574656691102
231 5 56.398365453692755 62.58291604716329 5.391167094321588
232 5 30.933744036265434 15.01080090939657 3.720979598010148
233 5 2.76678739813441 14.217426451535799 46.17622845316059
234 5 41.48675804329581 31.719672012913176 79.57006347487065
235 5 72.89789499543019 74.27387504564655 52.32583307173324
236 5 20.72691786312948 22.177900921577024 13.734880635836362
237 5 70.57413651184557 70.12042867338208 42.65688200819084
238 5 49.807134821373246 10.446502885782465 63.56430904065335
239 5 57.793567391257085 43.655389006583746 69.01548432166288
240 5 66.86448448507171 7.640958725523846 76.93774823114376
241 5 14.874166501666625 74.06515884874939 45.12023495988597
242 5 17.673170053906645 62.16292308887094 15.870368219550173
243 5 64.16107866658432 49.465689580910336 6.514515877556164
244 5 75.46799383154948 69.54537094513395 30.684684524521643
245 5 43.19464363734458 53.009519025214225 61.559320054310504
246 5 3.221475136477999 54.1071037521894 39.22942947356674
247 5 39.85306679848767 24.189759233980137 55.91470728060521
248 5 37.30410067673786 3.058055479683182 53.68729395497875
249 5 61.43619963756894 43.99044149641167 66.80962177636464
250 5 49.46832030666127 23.387659509536192 60.00766324307242
251 5 58.396508259804484 46.11804047483308 5.1624056797766835
252 5 58.24214671052532 7.6033353246010424 78.47487445079445
253 5 23.38371683262597 51.97489266139985 0.23480616754984943
254 5 0.11408308354027615 71.68010269069839 45.62607583472571
255 5 73.99213980094828 59.61030972385314 74.13092112476549
256 5 56.349689020712184 5.958211601703987 73.8836275082231
257 5 53.88695538724711 71.52819269790088 2.011208548262082
258 5 68.07727233895999 62.14350583406178 9.489101509929926
259 5 53.784574599675274 46.88987850751503 75.11090497645232
260 5 62.02066747385395 24.99599670092779 73.50200227046528
261 5 34.995283211416265 36.72122151880151 34.584993487236524
262 5 16.06977168518075 47.754614863842924 19.534856013119317
263 5 34.574448022367086 70.97407273963123 74.90658327241222
264 5 53.022015800744306 38.028408139283584 19.89358694721117
265 5 55.21841793855969 20.78271924418874 12.578017039322226
266 5 20.03451171291914 79.03241720810654 15.368433242242293
267 5 72.31257509484371 3.9495707778347855 3.1024807294440837
268 5 31.036727949075928 10.673443987070177 76.06493774505641
269 5 72.15117884906836 63.99449357775194 38.51019507299912
270 5 37.112832972516394 48.29205011171301 21.181362736862095
271 5 22.374256841452137 7.203062661260053 52.35885718039359
272 5 48.49474379772488 75.41359058828333 70.70180284134508
273 5 67.64701898403642 38.88943904783512 1.9772201692417348
274 5 78.67829028937678 22.71668955856997 64.26804359594192
275 5 9.866732050030654 32.258612791153425 12.57369618089397
276 5 35.82998368475165 21.384684823367035 11.692930173887802
277 5 62.7699562889926 72.74663868331093 75.67074586841433
278 5 10.683646416253282 56.19176596486972 34.05666286502835
279 5 45.573994857619404 54.142892502762656 34.07283149680384
280 5 31.67753007546818 0.4404713417655267 28.83311668229414
281 5 65.00271970977496 43.98659246247704 36.86829800984805
282 5 75.89773445564039 68.26760091944259 48.98293825300168
283 5 7.684486167440893 73.96531074797832 75.157291123548
284 5 60.2289464031777 49.71519793926444 54.998660331945764
285 5 42.58661335826884 30.54427348017531 0.6290282862313165
286 5 32.80610990644431 1.2889308535773951 24.259694197035444
287 5 49.70571645926445 64.95766526667401 20.557538126490897
288 5 72.60464404254537 15.071878249670053 58.927877502635276
289 5 60.54911814571828 59.67711285281796 52.27472376169666
290 5 12.085658384754407 7.596129648457469 12.590559103987196
291 5 66.57364918973647 26.16928931741705 9.998675259407024
292 5 8.755004983249997 12.667727930020776 58.848762073381515
293 5 26.06710689238794 74.68149482767708 4.871400784047836
294 5 22.19759645650136 45.60617741079476 26.76218714017544
295 5 57.150119433358434 62.04815541994466 57.386631539398614
296 5 32.95464432896677 61.05921282155954 35.54838579076553
297 5 64.89199338423343 28.847519932313812 36.68103320909246
298 5 78.4505343287644 33.23323101393249 6.298884399302126
299 5 58.898002819275874 6.581262777716059 36.974068210978544
300 5 77.80155624755525 49.706312505919286 53.55133531604735
301 5 76.8626004142343 42.037389688284826 77.90920248126598
302 5 12.089560829394891 47.61512287572423 30.724349759593117
303 5 37.99670734983234 68.0863660115512 14.674158457049044
304 5 14.891622455245765 29.01122503099528 56.250302790675455
305 5 40.602288044414614 28.40328849632186 33.45571259940877
306 5 56.631211455690035 37.23357899176308 6.058741091038664
307 5 54.631034794485075 14.774929442761719 42.17695017217783
308 5 10.507560121081415 39.66998397617405 62.28924601347787
309 5 61.595091574679024 56.166201323899976 53.962888390308535
310 5 27.660895244438603 33.807208707273205 8.888872239981819
311 5 28.062312656809684 38.23953584383273 63.14693815102545
312 5 53.089630166593345 4.274014352636557 69.61909345533225
313 5 65.99654995351392 25.095155050929005 50.700546686985945
314 5 72.30784677593803 21.567161983892483 48.247397051098176
315 5 41.62074314191092 10.466026815658765 26.54947615789117
316 5 49.18163342636538 48.43828907263205 69.69598718242555
317 5 3.9572500934454307 43.792538549028386 26.721841805327383
318 5 42.02487680084486 68.48382067548685 65.91742552586993
319 5 64.54194742622343 24.820156960678524 69.21615195144253
320 5 37.78778407700861 7.877559077297753 32.037961522988766
321 5 0.6508419716972936 72.42250521346405 41.308580461261656
322 5 18.702672979929794 68.48554677820854 5.805437066749598
323 5 19.764775606589662 33.55951648675877 28.654976352043292
324 5 44.769739297139736 37.36082667298504 25.235764293218626
325 5 71.41365057555451 44.10471218403035 63.69224390105206
326 5 63.911713961825804 18.578286929614666 34.948996979744116
327 5 31.960636271455094 11.823742409044115 14.250669349717295
328 5 69.43206259497413 30.473010157770354 67.86328698738657
329 5 73.69297467462133 65.83421832627049 9.79429067800257
330 5 71.89597791446283 49.332538180478174 33.67870574911939
331 5 59.16778849733082 49.817915776453944 54.28157409320152
332 5 53.11631108525631 2.817822634385063 39.7507754362774
333 5 52.91408359514679 10.97352607576696 51.24803103358199
334 5 24.166993015974708 75.59402453712444 18.02762096336665
335 5 79.13228197360252 49.056574367663075 65.72012565253435
336 5 6.885048877952186 10.365541363604668 66.84447362503235
337 5 34.97652072375801 22.537570894989063 76.45832174636172
338 5 56.32937753741638 28.710962691718596 52.48811063428394
339 5 76.64591915345707 30.263960222717287 46.80304843602349
340 5 53.63782094967469 20.226578773557016 50.59493286381559
341 5 6.372860225690285 24.187503281682307 9.364860377988247
342 5 47.76294303934514 42.15378619132725 37.58627042340933
343 5 30.489229353056217 30.942602970999303 46.183500243544664
344 5 78.12950832897873 29.746273648275967 14.534969749745734
345 5 44.486221129692844 63.622395282088064 17.572386830151096
346 5 26.21761809925725 15.373065091521067 50.93070589624758
347 5 32.883982220724896 13.21409346698442 19.33439282685666
348 5 72.22520683462398 56.496860661573244 15.316889550583586
349 5 68.38258464496941 57.08636850150506 68.41484837889767
350 5 34.53393960459811 40.91995501454447 18.061533807647816
351 5 57.74039615211762 69.90640920512456 44.304730761038705
352 5 78.72636681855444 41.33679295000785 5.874290546097973
353 5 16.243001688291372 39.87342161407753 11.469318602984286
354 5 36.690688557869876 45.58477858021023 11.646250809694026
355 5 17.12221558990446 55.32702154420904 38.33911679103965
356 5 71.83818423707369 34.12318746003705 2.01775443622388
357 5 41.32408513094113 43.75495007806281 64.58825706139922
358 5 13.791821659820847 59.13341163113751 64.7213471312825
359 5 28.267995148278864 62.65608700381891 75.68724584702642
360 5 65.95048071632661 42.466275720455464 14.5651394841757
361 5 71.03737434964344 25.960596743770573 27.367833640013334
362 5 10.91371645292561 17.55679143725993 16.46320543523009
363 5 20.253130423117042 33.95158909866128 24.517573446077794
364 5 6.685620576737218 4.305114107907804 53.386169637413616
365 5 72.39622192830223 41.898490151665776 25.934134214765876
366 5 10.129760832973188 61.38198323183309 42.573509267383116
367 5 28.69319367105932 57.18414268805986 1.1255749889930917
368 5 62.66572642300703 66.35465379002706 1.615516553358019
369 5 42.75373298765418 67.07547993916077 68.80601484940352
370 5 33.08433198005545 70.47204953335019 49.4973142091563
371 5 65.05138560730644 5.090569869953978 39.435753854235706
372 5 53.84638703744562 64.36007001601236 61.8856463609012
373 5 29.997710881055735 39.45849534965845 54.78284580291412
374 5 35.410357366108755 44.863172847851345 47.318995927616356
375 5 4.490970391500166 58.685644576741936 9.307366271367815
376 5 53.75925804061779 48.65074857220413 0.02684573679648539
377 5 10.911576190814381 64.28931473490171 54.45839892191211
378 5 56.76149505954815 37.85367560889118 36.176858341591405
379 5 13.135926898688025 42.992616240400544 23.867004624760092
380 5 64.59428254276527 23.035291503098755 51.23937935235174
381 5 15.66318662155668 17.083988722256972 61.32922882670775
382 5 77.54044408297091 34.18323886700867 26.33696992811588
383 5 38.33419921577753 54.55737574352323 30.27748899600194
384 5 44.95358219034235 36.138552971573304 41.32762557289929
385 5 35.106595757310814 71.15432934030912 27.53059056697698
386 5 74.61127400488952 44.4174282883149 37.31597332110423
387 5 75.00801531956861 74.49703661790556 43.67523156984128
388 5 19.27913024564794 60.09509807573157 72.41980041308783
389 5 0.12866558640033582 65.78298709476746 28.251052921825192
390 5 38.884644537042675 77.74992325091304 73.59882440296202
391 5 29.404900833734743 56.05506815007978 63.675495379442225
392 5 53.4221733413887 44.70368373814815 62.453984333220916
393 5 58.757857660261536 54.73266222991402 61.708813976965786
394 5 63.493920963448616 54.84919766266068 77.16075549798262
395 5 39.88364010780182 22.614598383885895 0.3490767682202629
396 5 8.22512333999619 20.156785983786392 3.3154482896116306
397 5 43.627465383982596 39.74266232275999 21.02186677422769
398 5 32.477734332554746 62.057906143089156 50.52743437915359
399 5 55.48795910906626 28.909304176684095 40.843573804457314
400 5 13.14879264707935 66.98162779825664 47.979748702775574
401 5 22.31857977851454 11.470532582939153 28.580470035199518
402 5 6.250655460300363 5.348909791024032 22.264593925819746
403 5 9.788520948026175 5.508679682027081 71.67382782578082
404 5 48.251430023072004 59.60313971491827 50.407633598745996
405 5 69.25391264403508 18.351518079906825 5.203959872801673
406 5 31.053872612024662 8.106632514852421 63.69931043502286
407 5 3.3147985995033786 41.87653435425239 70.72243965338593
408 5 74.01115291599416 33.718516914130575 73.20622916183412
409 5 53.12876476913451 43.168318899136864 35.6235086703767
410 5 68.02975248310769 1.3360688505624416 12.436889400914296
411 5 79.38445017247973 34.270531264755576 10.31848576822126
412 5 32.885764250460845 29.894785470422445 50.84592729155813
413 5 75.90083219525421 23.515478979934485 5.479095885304077
414 5 54.16564223825676 4.078361621881869 75.31028081466148
415 5 60.69680256864046 4.973813964309484 3.104178508885049
416 5 8.742355764165048 8.238600520729701 59.932980239059525
417 5 26.60909195802764 26.567275707845063 35.85052237774727
418 5 40.38147725089418 64.98270286848255 5.606432214619046
419 5 7.153847127862357 52.31636009972011 56.18395154277763
420 5 70.39665538410212 2.3554451616287895 79.17907549026059
421 5 77.75027871256043 10.773890685675678 0.9673086822849318
422 5 56.71505871533627 35.48968421013533 61.323810022290644
423 5 30.570769820078738 77.93985689019954 52.01578819957454
424 5 24.709962724803717 64.39472457928419 16.518245750227585
425 5 70.17323096511511 36.89837886258744 45.76393818816954
426 5 78.04872417401427 74.41689504513229 20.861736538622672
427 5 68.90312870732176 4.959609479608096 46.65023154463759
428 5 6.257492781897756 79.01705679401435 9.941693440626134
429 5 26.587890291850464 14.201748985455364 37.350877346696585
430 5 54.11822323086358 16.893759187881905 42.962419676787356
431 5 24.90646422741945 25.587542368438797 74.91338379025659
432 5 28.735930132538094 17.618958664781008 37.75505042135803
433 5 16.95615119710241 58.316040069318184 74.26357102906063
434 5 17.398675603487327 19.64395438566562 28.750267639697473
435 5 35.36174024040801 65.63992157631928 15.858727225689263
436 5 18.17486923313638 61.911210524043625 57.48593036557962
437 5 9.242509297014736 24.392656694627 9.889898634975102
438 5 52.99192084390735 53.65469769907682 62.20431611999941
439 5 62.0126450835943 70.31309587350741 28.021512121915094
440 5 44.232910049587204 25.612049733012782 43.98248686508301
441 5 38.507729423033965 75.34685610291261 28.06601987180455
442 5 78.98258172209475 41.60472830641595 3.376748795290807
443 5 7.448884822315947 70.32527838153702 40.345569019833704
444 5 65.6156818223577 52.911108067842385 6.938521017207378
445 5 30.929532664389114 24.80811346049988 54.94944807372621
446 5 10.45539684650225 70.29407122633808 47.076683281171306
447 5 37.80351101889275 63.72821321487849 46.58737550575188
448 5 2.018162774239067 2.8414665154781256 0.4427485902910638
449 5 14.96954216316728 31.671618352045776 26.401953904156564
450 5 75.96335369728149 29.01038041316382 4.178011466930495
451 5 42.304634131373106 18.04383086552575 67.58951247231546
452 5 3.798583856689441 5.233316637742445 50.581980480355995
453 5 29.314738275382712 1.8323246110265956 66.82709759978185
454 5 15.968544518332127 68.29539853981643 44.13093221680597
455 5 76.01483902042109 68.43136536575243 62.9363462433422
456 5 75.73954142828084 24.580058585874195 69.47782698685585
457 5 35.6923401076489 50.590405114937106 59.809768587918306
458 5 51.88432185396989 61.39736739328644 60.33774303138911
459 5 74.61243012795693 53.029076274817214 71.80101691365773
460 5 13.880336982327252 32.52790809365869 0.8812506579701956
461 5 0.7201430997417341 33.87873533939613 0.17748131106574097
462 5 7.186223349981407 41.03676573609011 38.95926696027894
463 5 2.968691520435151 9.771966545638437 14.126519565959716
464 5 61.27519335256622 61.489346994305535 41.60162611016311
465 5 35.39914796976375 55.98870968452285 75.8563346365067
466 5 71.4256711061103 70.06274758662882 56.23003188195382
467 5 27.084429762427714 35.61684366125105 54.440327775788425
468 5 47.436234008819305 24.01020014386439 47.72373558399892
469 5 42.15268992017051 68.60550777590282 24.038921833326857
470 5 13.51502080888972 40.38030736937784 44.88754665886978
471 5 41.92260644498535 16.135597890270297 26.006945219167683
472 5 65.92892926918341 33.28217860292656 76.9173499336811
473 5 45.51691132920988 5.274909209392306 60.1033698424394
474 5 68.28931802657556 2.4604302709998342 55.305582799811226
475 5 65.56252846434997 65.77155652453175 39.06721039562009
476 5 66.724920114907 21.70318089218725 7.4296004885765345
477 5 6.301058984888182 44.45207414436043 36.40315783040132
478 5 64.7637814336279 71.9453486585731 73.12083410002892
479 5 34.490789548672254 24.21819742017123 24.8391597680401
480 5 64.81297659743403 47.447034991502605 67.46243956248927
481 5 70.59425818786129 34.905749968672914 58.19271435965198
482 5 38.708932003237216 62.76040682556235 30.089938255150713
483 5 34.794025607135225 35.31296498629172 15.694105942444413
484 5 62.96723330489607 53.90352831320534 51.745667750780825
485 5 17.08291197142385 76.61244706030297 64.62522022291358
486 5 41.37261718374153 79.03557817452347 45.61752644951523
487 5 31.73102638221175 6.093881015804834 71.1994785735088
488 5 65.05583249090326 62.38985053718511 68.5319081778331
489 5 64.16711169913854 34.92694990458684 61.17701076594951
490 5 22.191927025864047 56.45897996591554 9.718196312481032
491 5 43.653475015284464 39.21129617789328 37.44308420665158
492 5 64.91711658441992 39.930445130064015 11.457253787161909