# LAMMPS data file
1000 atoms
5 atom types
0.0 1.0 xlo xhi
0.0 1.0 ylo yhi
0.0 1.0 zlo zhi

Atoms  # atomic: id tyoe x y z

1 5 0.659702647390288 0.3330651817580852 0.5795604217136512
2 5 0.6409625110033476 0.46041682460841094 0.9765902982863093
3 5 0.2766246850576316 0.07459530083486099 0.24010214204673408
4 5 0.6190701115866061 0.9106247076843886 0.7657146723070494
5 5 0.7170022534118273 0.929767886860429 0.18302651338011044
6 5 0.4046602948928528 0.9286635216650071 0.6865785732785653
7 5 0.8384302034888129 0.06685979924267893 0.42866162893827375
8 5 0.11493742688927455 0.5332278769562058 0.8172824100840437
9 5 0.24568935456780727 0.31328048945420006 0.8964565477057208
10 5 0.20030613681157394 0.5023368068016615 0.481979706732346
11 5 0.9619237798012189 0.9882125580029428 0.10222459413796225
12 5 0.16099285277378994 0.34314127386148385 0.6377700649211093
13 5 0.9280571993360845 0.5707959942096366 0.12239730490717116
14 5 0.24374593954134738 0.5234493532015586 0.5468030134622339
15 5 0.03393086881442564 0.7416339266153006 0.49948354950075935
16 5 0.7056879887167266 0.7554564084215885 0.17254792415178588
17 5 0.785921237510779 0.5245833133635301 0.7916362284843838
18 5 0.8525266623758856 0.5051802674896985 0.6963978906834779
19 5 0.4181537339720557 0.9559715861308751 0.2344184276809017
20 5 0.25844739486718127 0.7996689736848046 0.09444325263071651
21 5 0.9889558823813315 0.8320000721457739 0.37028065923272935
22 5 0.3493039900252285 0.35457191547293065 0.7031735746863885
23 5 0.8823410802623519 0.5275650331670361 0.180777972890661
24 5 0.6899676524378 0.004889388345982959 0.005255046942085229
25 5 0.783636336631602 0.1576451232045729 0.44847847081804637
26 5 0.3405917507017713 0.20297180920879132 0.16482331556252194
27 5 0.6018136927514939 0.2817829038367251 0.9605831483798642
28 5 0.30013489541105787 0.22691766396839186 0.9410379586346571
29 5 0.3955831930611605 0.25629115869321295 0.46400022048752065
30 5 0.3527288955779022 0.32528562698811814 0.7192003564236524
31 5 0.5812654439052001 0.0195022447707468 0.5254465271526096
32 5 0.7797489846359456 0.6538373548921294 0.8447211748323632
33 5 0.8032799687885291 0.46718494031415914 0.9436805109805163
34 5 0.23063686530871952 0.5851745460110037 0.8419146937920716
35 5 0.6809186638390656 0.39501412585277484 0.6667922530725806
36 5 0.010620977736864212 0.4310674563557382 0.4764165057551395
37 5 0.09024940881319987 0.2327657140546766 0.34032906974068433
38 5 0.007054570398182913 0.6294383603670568 0.8031600265029448
39 5 0.4220799409399807 0.18118855361062858 0.5041721852316657
40 5 0.1454420822889626 0.2937146020409178 0.7749371632465714
41 5 0.9438780678231957 0.9795546774047486 0.15407564999469314
42 5 0.40528791712991585 0.5747538900834384 0.8984387030172801
43 5 0.4846973193447741 0.08622641446808221 0.1495706091710417
44 5 0.5370995493937046 0.26915631697368114 0.7289754833388028
45 5 0.04504078308369652 0.8473565432873401 0.5099568383767853
46 5 0.9341392579650225 0.09834251432961727 0.19144991924202281
47 5 0.5686163650750298 0.5015653814033665 0.6615166104347878
48 5 0.7783401641153563 0.6195550863791814 0.19104544028758763
49 5 0.6673127615522519 0.3422104236088219 0.05726785208743501
50 5 0.2768102625348018 0.5805932223723604 0.35574475844049924
51 5 0.24380392770408055 0.13807795272206902 0.2516650453434707
52 5 0.8012937955770746 0.0348236742446798 0.8822153164949669
53 5 0.42340429036360683 0.7206753277725241 0.0004262070124204653
54 5 0.2477057661413966 0.9848056922591087 0.8837406408699942
55 5 0.4631226260404627 0.4933651350552497 0.7371341878607384
56 5 0.3083619048655929 0.9208559697313142 0.5283830842874792
57 5 0.5297396761643759 0.5914208427820401 0.573640225526757
58 5 0.6008259958043423 0.10176516853118034 0.8863067160876802
59 5 0.9565806039075977 0.6466245443834631 0.06253261631690765
60 5 0.3507433539605116 0.7358722989460206 0.40206492355712875
61 5 0.5991801211118633 0.4609150304191938 0.5012905544720996
62 5 0.6166730381545366 0.40278759924931895 0.6590582224511885
63 5 0.8827306229812334 0.6399377587540743 0.8821987976524973
64 5 0.45337106797739557 0.26505456078592715 0.03475043952695689
65 5 0.6987423742823076 0.2755995849648617 0.026550921206190514
66 5 0.5473071951622097 0.4207270186819584 0.8045248182941562
67 5 0.28913444530584187 0.3607832742349487 0.05650275209217426
68 5 0.9525580462453318 0.7596708914582979 0.8633583161444935
69 5 0.14860939342647383 0.5827247884856875 0.41831582937589673
70 5 0.848896448692243 0.9228172726956981 0.45713617341299395
71 5 0.9255441068984716 0.4048698356801105 0.7335932745852255
72 5 0.4839441542892158 0.6408267980844816 0.5377354381037065
73 5 0.26089013002292816 0.6418293894955168 0.5468162620490599
74 5 0.31035663077629394 0.923393714303746 0.9454238816026382
75 5 0.8020323619208356 0.6670594993636879 0.8532075403241193
76 5 0.020792647922917018 0.28729350961229994 0.7278111218676826
77 5 0.8606272084608934 0.022914559022245484 0.5146375775519705
78 5 0.5825204189874253 0.5460964682271288 0.08083163638677682
79 5 0.9856378771136276 0.9524737224864643 0.1922638609891555
80 5 0.30302782750798707 0.7676402068671545 0.1304204058752929
81 5 0.9737655529579929 0.5927972676850143 0.07917259010917543
82 5 0.379362149735766 0.8668418317633669 0.7099848928217256
83 5 0.5349755138631207 0.8497361670249934 0.07449867712486447
84 5 0.5139371498989698 0.7944139645089987 0.47481252560203735
85 5 0.08320879139009363 0.18079815079079387 0.6105203222873135
86 5 0.8464530558894036 0.3754675899097738 0.6189139046652352
87 5 0.13563281008773098 0.971297158096182 0.36941871008797644
88 5 0.8058109322401965 0.8407304293532105 0.006084257785238467
89 5 0.79377267480179 0.5897435332133794 0.31275324781257596
90 5 0.7304602488840206 0.8365247297794797 0.02891642843971487
91 5 0.41584569831008933 0.43855068028773625 0.6181822366529296
92 5 0.29050006494888503 0.9368872243116892 0.5872202968630946
93 5 0.601234033177791 0.5067098061758243 0.9245856577341707
94 5 0.7193754749043597 0.5437350403155982 0.6440417309469318
95 5 0.526740595211385 0.43390913893619854 0.6477149787606026
96 5 0.31735366725804803 0.7507751559835478 0.3068915898501835
97 5 0.842740521036292 0.5417755794226813 0.8405393937555711
98 5 0.737881738606568 0.6905929904106168 0.8519859999161327
99 5 0.19927664712621374 0.7334916971288826 0.9932909848154979
100 5 0.9056250933890911 0.24262813510704573 0.06444666725130876
101 5 0.027922660607037075 0.020176878271288556 0.32121186903236987
102 5 0.1708754730019556 0.351783222066936 0.6176768364641828
103 5 0.1394543292797935 0.8639876099898941 0.134257976656611
104 5 0.2711805625722623 0.6687053835395236 0.7911613690598455
105 5 0.8876705919421817 0.33933159119779044 0.18825213251256223
106 5 0.78336012320626 0.024993551147402093 0.9166024142957168
107 5 0.35364102846478285 0.7595555386941637 0.8589467276804376
108 5 0.018896755051061254 0.47083640726390696 0.22065207127775122
109 5 0.2600228288337858 0.37945705607031077 0.0677710493307716
110 5 0.9008853555777481 0.5057781757093257 0.02391775567540355
111 5 0.36795452976977017 0.9974624854559402 0.9316870832814587
112 5 0.019297796966378566 0.7781375891776524 0.32039631508969846
113 5 0.6756352988687653 0.26580005545907825 0.36163154677451514
114 5 0.8503642050279834 0.8277815001532787 0.5461797348893493
115 5 0.3392441632985249 0.4237522760468012 0.8572035551391014
116 5 0.8379212757948761 0.6380049485167979 0.038124990507069856
117 5 0.4054831685326581 0.5397438310940292 0.29230378336231677
118 5 0.4454001743566912 0.018205581433368145 0.45598333692964466
119 5 0.8633242556083949 0.10032934242345126 0.19760733053409285
120 5 0.7937719283844339 0.2851956449805405 0.5641351130581159
121 5 0.12396566921178831 0.04195661189321531 0.3962731306484829
122 5 0.006877818658137302 0.5896957339246833 0.22893067795775635
123 5 0.47548910805400235 0.06326601769513451 0.14082728374565345
124 5 0.42695112755815057 0.10409963189937499 0.08309117334185667
125 5 0.17698678681624136 0.06189609535101703 0.48827355788054594
126 5 0.6379231383711952 0.45340996521946053 0.7721861559763501
127 5 0.19589871576597617 0.9989130748520957 0.6483114785385911
128 5 0.6382617475787401 0.9886975315467573 0.5362526185758597
129 5 0.277915594121916 0.2533549965093522 0.6190520006399963
130 5 0.7165452530410202 0.2258815749479468 0.3706171597983259
131 5 0.5959870158514786 0.37530953757581365 0.9916859057145506
132 5 0.48750823725928827 0.10526502737134202 0.4579240175925816
133 5 0.08336731535728614 0.2121040985607825 0.4835461789589125
134 5 0.5420732060319267 0.5593016198405343 0.4478078058614374
135 5 0.6181706240112279 0.2836047123157259 0.08165997278946835
136 5 0.46590082882311923 0.6806875767220502 0.7435666272448561
137 5 0.2528627256934932 0.8459471146606566 0.9578184080026304
138 5 0.17773518437538238 0.42695944708394973 0.17852164439599516
139 5 0.624772788843499 0.06482580085205325 0.010413271923132017
140 5 0.8006420365164357 0.9467206575057057 0.1213682709005568
141 5 0.45292871778790134 0.947916314584041 0.6950603987509352
142 5 0.3002317435414992 0.46493378699171617 0.24489343646946582
143 5 0.52248794750273 0.17369152132943544 0.8889333762242132
144 5 0.08236117515274854 0.4526702123807982 0.18746175603632032
145 5 0.04796748219464653 0.9768112798356581 0.4811647209515426
146 5 0.08292482900835263 0.2801744456379557 0.03911052219272204
147 5 0.3501498838423486 0.629503466255866 0.06483580366439634
148 5 0.3016096036293572 0.8464682673482218 0.576156161277637
149 5 0.6940232600338659 0.1659208110088075 0.9284766733078554
150 5 0.7044420490618504 0.5963160543059107 0.7884718701288186
151 5 0.9299925047566956 0.20510149604523065 0.9932864713235793
152 5 0.968074702496198 0.5178567450947751 0.2644542137089675
153 5 0.6856482903245669 0.2516462632580667 0.9868921700801184
154 5 0.4774047875932558 0.20175541815937315 0.6139472228381462
155 5 0.07547513108255854 0.5171811051196573 0.02917861618212414
156 5 0.5733714229372594 0.06748457154380572 0.36376892815714845
157 5 0.9467912491431497 0.16602494929539113 0.7773377230771928
158 5 0.9499387307202624 0.5552944512553778 0.0005112650702504551
159 5 0.6902948994940037 0.3943126345123227 0.17054387852604702
160 5 0.3967308852429119 0.30427887106827456 0.9250485101219396
161 5 0.6748922837343075 0.059633107026327514 0.935087490525781
162 5 0.8644987946771389 0.053816573023771186 0.06111927422685115
163 5 0.13672811705999144 0.2686528443792716 0.7705363864782361
164 5 0.5167999922924502 0.20586891189422285 0.6830630529414549
165 5 0.038801106622227466 0.08750396778525926 0.3613121113365415
166 5 0.3251115112373797 0.589294468477556 0.7150085895977109
167 5 0.5455087419584786 0.612486459962684 0.3335071528766921
168 5 0.8824305395702664 0.8889646951559094 0.8151941162241786
169 5 0.9970910493711412 0.2994646501170569 0.4391007042388858
170 5 0.06434198764042254 0.6817502555026894 0.27587690727003256
171 5 0.23862358444147524 0.6927402607348646 0.0013844251989488798
172 5 0.09504435857291504 0.43834895346170644 0.35411777591102345
173 5 0.43442708581996103 0.7740057048267023 0.6620697825756751
174 5 0.21656394042233396 0.3408369980518623 0.48223449677964625
175 5 0.8054222835912248 0.5466178569890948 0.9415043479751467
176 5 0.14636327023259155 0.39826699822259815 0.553171956664961
177 5 0.28224378572102904 0.3765773149656966 0.8109394500076411
178 5 0.544431684434287 0.2548639567555995 0.7652270849323126
179 5 0.4304118147819107 0.03177913350544581 0.8029646228022794
180 5 0.829688304622292 0.0555525908718455 0.17013523544535902
181 5 0.21162465544619302 0.9076639312268209 0.3578284375169999
182 5 0.25225083601454745 0.28645765308036053 0.09171453245482097
183 5 0.7725084798298053 0.6181921816147802 0.08570635304625385
184 5 0.5437733717586037 0.4615948209517653 0.7871719177979323
185 5 0.4422511379713021 0.49717481869837477 0.35645428312141336
186 5 0.6043362151239271 0.3861830959026348 0.2688376093409668
187 5 0.3092842266987088 0.8629410983149123 0.2796905072044489
188 5 0.7934661702152689 0.49028121956087956 0.2560385274590874
189 5 0.8886789090759346 0.635231147407622 0.07391842182954389
190 5 0.5703637291082724 0.128200493025315 0.46683925133322357
191 5 0.4797580887612535 0.9795262924400295 0.9658617731990092
192 5 0.16943784755954117 0.8439521754392955 0.6756919779793882
193 5 0.9495122848530761 0.5071340615655365 0.3519298716217245
194 5 0.24092982431377696 0.2208206883611118 0.6876662387612522
195 5 0.16721245252979 0.36989996353889343 0.867697741289118
196 5 0.281604084363381 0.588140933690126 0.9470457608351155
197 5 0.02669042220033191 0.9609338683587911 0.17398243127806545
198 5 0.577935683302037 0.43058140757103114 0.7068475443007936
199 5 0.32193177681784113 0.276041811438852 0.5347150183101114
200 5 0.6830508453093086 0.47993845537995405 0.058984712461485955
201 5 0.34723655356971306 0.44132837831347704 0.4670063563391711
202 5 0.14850760266845098 0.37219485759859094 0.5319746842126738
203 5 0.6873751196577245 0.5051250621737358 0.4116718432643687
204 5 0.13119426041418225 0.8163446346350984 0.23617888597947068
205 5 0.7420027787879011 0.19790901554379714 0.2862623418234226
206 5 0.9972214668794869 0.6046658202140579 0.3241466894028643
207 5 0.18650155359748488 0.995262984437304 0.37014469743005207
208 5 0.42405909065031977 0.08720540555118517 0.25203839452092447
209 5 0.9154503787882102 0.5067195791917564 0.1688155968726831
210 5 0.3951832097699436 0.08047365416832597 0.36300999568538905
211 5 0.8508730638197555 0.6847041975850742 0.807397874294651
212 5 0.5531071751362634 0.809563646621398 0.889357994942312
213 5 0.5360333572483494 0.11454923679577289 0.9984097570145969
214 5 0.8591939244076043 0.1404564997778931 0.18309278177987842
215 5 0.09069205278245862 0.24078546972215964 0.15485574207146835
216 5 0.8959270483482314 0.1930041323809384 0.4115011502745388
217 5 0.01974240905115654 0.47183612325505664 0.45688210710856203
218 5 0.3282464063436835 0.7223692155189806 0.82124297954442
219 5 0.25232875183964865 0.3018766446249267 0.7962695615416507
220 5 0.3070168780977267 0.4623031902008603 0.4182133879097967
221 5 0.9701222614521142 0.6806742948176311 0.17132622969355837
222 5 0.7746750465829751 0.4839511226664417 0.6109237138047175
223 5 0.47622935051194315 0.258321323731189 0.07596194933738742
224 5 0.754467514643967 0.04635741957511197 0.8524901601479201
225 5 0.27407867540475195 0.44504842530373223 0.45836480562227555
226 5 0.7030514318156844 0.4688668125890728 0.9953378343023898
227 5 0.48791315276046177 0.5250697233351298 0.8623848596280183
228 5 0.12735577062205505 0.16323505864554688 0.978775010330887
229 5 0.11565506315904928 0.048533741446431744 0.3179946348616437
230 5 0.09085324523163829 0.8405323713355093 0.8745067177789296
231 5 0.5172887747478062 0.3375506476209009 0.767976579951284
232 5 0.27514141635283396 0.7230162624866621 0.5703642865655809
233 5 0.8144563599708492 0.567567390779428 0.3208322228066759
234 5 0.22299709901161502 0.16406892927677874 0.4728903181465147
235 5 0.32007268216382 0.38336842319573616 0.0681884332338315
236 5 0.10634531686357596 0.839023697359831 0.18292097901351634
237 5 0.6719127714013672 0.8942261422116462 0.3836540979038706
238 5 0.011043967081794004 0.6863060122851035 0.15541682133222667
239 5 0.7337083086388928 0.23419650914213508 0.8537970017041906
240 5 0.6914420924241125 0.7110841021009552 0.2856963567822801
241 5 0.20101845132414564 0.8178069310381434 0.34451822683943145
242 5 0.4092731367120678 0.9085190612181934 0.5230598510943572
243 5 0.6757791557080393 0.2838029305943055 0.26583167120679396
244 5 0.9634733207111249 0.5246288213114078 0.2176133564357874
245 5 0.10824285471423722 0.44062602912793436 0.19557562851642618
246 5 0.7744188540003274 0.40690510701773186 0.7142764205951754
247 5 0.30268146770318505 0.6221168277707667 0.40428366057520926
248 5 0.6592088868692058 0.7305002395138323 0.03565408637125378
249 5 0.04987382796681905 0.8473518986546021 0.8380989699965121
250 5 0.006585810010097393 0.3541280381803952 0.14676715089865544
251 5 0.43667083643097204 0.6967184134725473 0.4702279058666501
252 5 0.36782597063721345 0.28431870375053936 0.08277196286795552
253 5 0.9119216049255441 0.023559201920643202 0.8889225394711981
254 5 0.8144240126247217 0.6789521040486424 0.20403848257716628
255 5 0.5991424639036917 0.6384240754808823 0.1029057629563811
256 5 0.6442536484086885 0.42762248895075283 0.8047201802183942
257 5 0.7184332490566749 0.7303861408337534 0.4333241920823412
258 5 0.5002099665983457 0.2776121082180034 0.9786216336212606
259 5 0.9625477499734644 0.1479314830400833 0.08694656477029039
260 5 0.9070649091633212 0.34335374254427153 0.4721579851567268
261 5 0.24164233144060687 0.7467308284296076 0.4972839725548931
262 5 0.09000353690415897 0.39127994838467395 0.10771733568453545
263 5 0.2622380034929266 0.5419883952868613 0.042129977709803756
264 5 0.5202587069139437 0.25053662450751746 0.1266336242587125
265 5 0.6133518095757418 0.6155951131518358 0.9965386914713591
266 5 0.943196227747554 0.8717616188371041 0.7732927850768944
267 5 0.16582604219661867 0.7599359677834643 0.9442959500001188
268 5 0.27789473447274693 0.7461107979917663 0.44654354379629146
269 5 0.798624580048062 0.7230089022269091 0.3654029198358769
270 5 0.04908262338428926 0.40644090335104144 0.5104937340233142
271 4 0.4422972281098355 0.9174628162464216 0.8850600475705441
272 4 0.030654380596362496 0.6672218600219392 0.5501654137505082
273 4 0.006734193938804367 0.10318161328100628 0.5337615766829495
274 4 0.7335942749451587 0.48196148385904847 0.8268943012841934
275 4 0.5113840462982396 0.0027132566266893088 0.5642221608576464
276 4 0.3146297912849715 0.10635156228577336 0.7904948566662036
277 4 0.2634687718161217 0.47569828150488025 0.6915125711867213
278 4 0.045678645655823136 0.16931139482797652 0.9195218528227813
279 4 0.3029011424282674 0.06806155666012981 0.8901665638245003
280 4 0.8345667582142453 0.3016797695999083 0.3046713625047134
281 4 0.7015569143907451 0.6907936179579776 0.18262418266936553
282 4 0.6896190236148104 0.5433454143955581 0.32376079809551095
283 4 0.44386911153198993 0.9274371215424255 0.41714969244995515
284 4 0.9805713973134161 0.027652172878948722 0.4304217302177953
285 4 0.08975297228426893 0.19989295502710602 0.6116342278113479
286 4 0.6603658826097406 0.758237685963495 0.8344029920482124
287 4 0.19433803042639064 0.10664495036692301 0.8262847303825248
288 4 0.013339097859130233 0.46412308631340093 0.7717493990831881
289 4 0.8060771383519871 0.8135336735274039 0.2744134571955448
290 4 0.4175062813656135 0.27732503158328525 0.8225700216664209
291 4 0.3201873878804462 0.34087221198024176 0.46718297371171513
292 4 0.6387853678598348 0.5086413073419604 0.14420821441392306
293 4 0.16695776262944362 0.47918197759335335 0.7841008980478992
294 4 0.13099996045333206 0.13566232120879607 0.9400989726022774
295 4 0.799767168090557 0.9043393137877843 0.9852750272336068
296 4 0.225324270771879 0.11220441898313116 0.32092607394224726
297 4 0.3793040792360802 0.3554340471208014 0.6829690139051395
298 4 0.5779272433237409 0.5150514007614729 0.494480955468691
299 4 0.048037443455674844 0.7848213353333005 0.6869787809171015
300 4 0.5324418441409864 0.1717213691641578 0.08749119722233123
301 4 0.040360125115728174 0.6964211117486577 0.4364492877181183
302 4 0.3342957557882241 0.7347845297056156 0.3391365022463766
303 4 0.9889240108629777 0.9443396251947705 0.34673977385163224
304 4 0.2419158514156612 0.23572924310197907 0.3089065411617943
305 4 0.9860369114012298 0.7539414609009227 0.796142066987053
306 4 0.4312273673177548 0.15254497069704143 0.6079965796882316
307 4 0.12729890463006288 0.39455767382978824 0.6307848992128636
308 4 0.06672019540113305 0.31502397833637397 0.30984078045344143
309 4 0.9028869315775648 0.7937550257303276 0.7723992038966077
310 4 0.9776656100149416 0.4765946460550363 0.6599185258560838
311 4 0.7180148136927077 0.2549153406650473 0.25215435396115127
312 4 0.6232650080381302 0.7298802536796816 0.9430532322509545
313 4 0.6101731106115634 0.002448461489865217 0.5939825923705401
314 4 0.06503322289665248 0.21818534453291094 0.6638657323846592
315 4 0.22062805390937257 0.14280272874675692 0.5898480425847534
316 4 0.5475767572587077 0.7149909105563887 0.09678377022158657
317 4 0.4959363318562483 0.5624572781888857 0.024609056828924447
318 4 0.16837298364637465 0.8099564672784711 0.40903305074237806
319 4 0.20030061694363555 0.14012710043713772 0.96913695437361
320 4 0.5541347210406644 0.1837100238594367 0.20842743216736925
321 4 0.2744769175176943 0.1074877655631461 0.9934172615788709
322 4 0.13655302859653518 0.4253077867912676 0.8625799291659357
323 4 0.5438049066025106 0.9123485992404526 0.9589792790231167
324 4 0.11656769297266101 0.3373345748472468 0.19742101881067597
325 4 0.6813841753064136 0.3079584923199451 0.4617939879904994
326 4 0.5926713932849171 0.3379763815601968 0.6311588830683272
327 4 0.931758082409802 0.7780334984383899 0.8997171292310431
328 4 0.15308361667644232 0.5687966456207734 0.03509936003015646
329 4 0.2678078781743455 0.11565586727081334 0.2084924728237253
330 4 0.7630852438496751 0.8130447329116145 0.04528767467034156
331 4 0.5273715279846014 0.7321540270966728 0.5996456424046142
332 4 0.46696832409500777 0.7566294524973075 0.8482397931216228
333 4 0.35816887601087133 0.5389400525930581 0.48547059658477343
334 4 0.4445560860849833 0.3511069354880534 0.4016224393427017
335 4 0.2485118704868139 0.5131104866855375 0.2950447479279823
336 4 0.5061473984371454 0.11259759147775006 0.6604061934212879
337 4 0.7203088829376024 0.6227326327961688 0.2537314520235695
338 4 0.09315800506393523 0.6008726632174836 0.9581194707518443
339 4 0.4795072351562881 0.5904601837603038 0.37121262457967275
340 4 0.6431448380299353 0.6469095002565659 0.6399178610466955
341 4 0.14680186951545027 0.16120054385973948 0.9476599373889961
342 4 0.3942967712007982 0.5671150766628159 0.38777578305019866
343 4 0.24633820860902722 0.9035988894492962 0.11480408558289312
344 4 0.8984788316713413 0.4619558418603863 0.04914800029949318
345 4 0.3582815992188021 0.6359004102343039 0.7556311175738839
346 4 0.34612768678803707 0.3963378711174186 0.6662183013277277
347 4 0.7196669736562691 0.1003212698782392 0.20840598492655615
348 4 0.11208565000832438 0.6010590101357369 0.8650051320580951
349 4 0.23575823554089392 0.02690476993356461 0.35451983058838554
350 4 0.8631258386978029 0.1602005275912528 0.5551328812400016
351 4 0.31416739224738244 0.9760413040957949 0.5995532536195758
352 4 0.8299172497611238 0.4869761755984824 0.6296718209128335
353 4 0.8327319144183465 0.5749835250185611 0.5837039111838379
354 4 0.8301376519982278 0.13991158379621693 0.18921105225761836
355 4 0.3762320281965347 0.4330308687747051 0.02023001647315914
356 4 0.2559492611241019 0.14311667291077923 0.8955316941063045
357 4 0.515204137503741 0.8795921984028693 0.5271043531719544
358 4 0.9511780373873212 0.9509168663095732 0.4351099921575188
359 4 0.5627171364254286 0.6559850687872816 0.829155549713359
360 4 0.6296747323074099 0.16597882475461234 0.6858190147274306
361 4 0.6484401969206572 0.8886091282364166 0.9523575617439948
362 4 0.9246033465335549 0.4763175800813435 0.6408503424525016
363 4 0.5238588619849239 0.11620352996940897 0.5322005541032987
364 4 0.6424836753252153 0.09077484861595753 0.2844168593391718
365 4 0.8007899761140123 0.8396904866890917 0.7080772941401346
366 4 0.853226530197921 0.752216485608042 0.47359574546323024
367 4 0.33232978429002213 0.14266443792859795 0.27173792764687066
368 4 0.5145735229128275 0.5818676742881176 0.38226418882041713
369 4 0.33084324259264775 0.10742651672052439 0.5827057236480934
370 4 0.46978304970523654 0.8734836910051377 0.8207967402488908
371 4 0.4497933481290163 0.8326008282476893 0.04069242942997697
372 4 0.28821198409455495 0.1469723768876 0.2228736278125263
373 4 0.5316763181747823 0.3471162485352203 0.9001944394551933
374 4 0.412792304174588 0.38328462627761095 0.8057066691540211
375 4 0.4549030591145323 0.5549615085224497 0.7269735785441152
376 4 0.5194552237808492 0.6552905217820832 0.7592496370285747
377 4 0.6082692507397315 0.9821758736703822 0.23057982799161458
378 4 0.20933734975781704 0.7199357599202021 0.41890647640572476
379 4 0.6036594465040962 0.43266028667415524 0.7223738168087485
380 4 0.9904714037254356 0.24735156059197927 0.2775636886943491
381 4 0.2298302331435208 0.42947007060606557 0.3738445782475148
382 4 0.8962216735614051 0.09185995171830585 0.29447908924316724
383 4 0.31713694147513893 0.2563654314726481 0.25798180307132135
384 4 0.637584679911281 0.311353275635859 0.19043560501302326
385 4 0.5721795408258024 0.03276041488472525 0.8388389755861707
386 4 0.14235258234202863 0.4851709365304806 0.9067858054022103
387 4 0.5951797689870366 0.2502360272501515 0.3197250252995487
388 4 0.95963081476468 0.5852450726937996 0.5174070775243197
389 4 0.3486752390714779 0.32504602296132423 0.790341292969851
390 4 0.42297231214999553 0.46919043226724366 0.2600030749907416
391 4 0.37244052641951964 0.29519693259754365 0.8732276723141134
392 4 0.4510048237247529 0.08441625849081125 0.03292054381092491
393 4 0.12471305514395703 0.4135474354419717 0.03165458972062207
394 4 0.2285973369357499 0.4600686940536226 0.10006683151850548
395 4 0.5120278236659063 0.7139341243789806 0.6958104961356576
396 4 0.6762123079978247 0.5982742558017417 0.48899201915138446
397 4 0.008883608194333315 0.11894049256567074 0.6237115868514336
398 4 0.8946209123579589 0.33534028957096707 0.9672670194496052
399 4 0.09997735321484791 0.3085433635209309 0.47285310248763246
400 4 0.8993785973753301 0.46179436011877917 0.5791777897045891
401 4 0.860760217616899 0.14298825422909966 0.8312588812376016
402 4 0.3860154832592305 0.6581280162752546 0.38146322851471126
403 4 0.8208659443561793 0.80330457743409 0.8525967729928767
404 4 0.29306922976778216 0.4108487046220072 0.5660118461307794
405 4 0.9176867597681692 0.8034776543592937 0.905634268054912
406 4 0.45445462632033495 0.3772710444365789 0.6247605907052262
407 4 0.8900609819198838 0.9643047783939475 0.6128084537771062
408 4 0.22638854073846737 0.8677380275945884 0.8500489045827176
409 4 0.5987405351917827 0.9305891421099952 0.06346996626514312
410 4 0.9037761164750376 0.8561337883040038 0.5803433548566165
411 4 0.39297021640090124 0.5763739015956594 0.18484426821033473
412 4 0.8995130714835033 0.8493606241982237 0.8703969481699043
413 4 0.9178643743775374 0.4594275753471013 0.8195485305826986
414 4 0.48382543306462455 0.777905001364889 0.49160468933867485
415 4 0.7369743158329092 0.36867810548597435 0.3215763015051598
416 4 0.7960220286022271 0.8982556879498369 0.5069592683244155
417 4 0.973290812371061 0.4309833719228001 0.11551789012803493
418 4 0.7434366644042054 0.4468325089183286 0.5724461534848981
419 4 0.7148876419041444 0.2781782284680311 0.2934463780605049
420 4 0.3317806174516871 0.21658349405143829 0.6940488508170789
421 4 0.920247232895657 0.9808911374905868 0.4920328571651107
422 4 0.7519988860524236 0.9124988287799157 0.4075549639289898
423 4 0.8174747512763721 0.9779217729847502 0.985088566343394
424 4 0.3401610307584396 0.5566742479396145 0.3123590606467397
425 4 0.036181226989809856 0.41926611035408845 0.39165664016995194
426 4 0.9960221285925142 0.04831900882632456 0.8718340719963867
427 4 0.4813615669400546 0.15430746512625793 0.26511683928079677
428 4 0.8849240797046487 0.810419467100142 0.2787122632146414
429 4 0.10198307858882372 0.34826543587850023 0.8771242024858632
430 4 0.3533095880242223 0.498285669425677 0.5569086244887044
431 4 0.8558803184681901 0.094109297972514 0.8774934852716483
432 4 0.5834995064279372 0.6800071918415055 0.7318189130362173
433 4 0.9526228419549329 0.1911148918429404 0.8359288904429841
434 4 0.24531330031016596 0.217888631942736 0.5352906539869228
435 4 0.9023899635063874 0.3942140807047856 0.954271127430599
436 4 0.5648428755288575 0.7762549810609038 0.2893477481774839
437 4 0.029723725764270847 0.1335426066296037 0.18917713460118146
438 4 0.880768424517693 0.3809820955635721 0.986393418457842
439 4 0.20220457962683702 0.9236001709199518 0.6487874796923299
440 4 0.4570982707523247 0.6635837740585802 0.07557159164991767
441 4 0.4111725595099437 0.04671387362272539 0.8277374869351158
442 4 0.00641996854959237 0.28530513590825635 0.909227754864226
443 4 0.9012647600421719 0.3807245648091492 0.4327460805128178
444 4 0.34735794594341673 0.31642149946893317 0.4508662790253912
445 4 0.49949271556143937 0.6184065452881998 0.03906667575604461
446 4 0.4432587328304938 0.36258046925041787 0.5983546978965294
447 4 0.49073655262418014 0.2063004833791201 0.41878902954415564
448 4 0.23728665846936603 0.371135396760377 0.7934573405531288
449 4 0.8098452933595711 0.14256024240357534 0.21740098845036893
450 4 0.713404147362196 0.09481291143832893 0.6953714400407162
451 4 0.8464502603021831 0.8679932025113998 0.8079354220719899
452 4 0.5240557025169434 0.041270343469181237 0.5432356764223868
453 4 0.4376624165507512 0.8198500661100696 0.1917020965106031
454 4 0.3818994743121187 0.7157546857174316 0.23886433293434461
455 4 0.22335564664221386 0.8209712459324036 0.3877262615441257
456 4 0.639943258629831 0.9212951134341154 0.8444975612944557
457 4 0.980807520390763 0.5255134821468351 0.36218040149083597
458 4 0.8169879260097678 0.8104045604178358 0.9292515924698771
459 4 0.8551152918525183 0.8144196005670338 0.019865361608596754
460 4 0.8714972760602538 0.10969332028515921 0.1643265919780722
461 4 0.6562254941712387 0.3755625706118034 0.6128779870478358
462 4 0.4298681256249419 0.9970315319408037 0.37091178333448227
463 4 0.6694469995826103 0.8319592349553596 0.5775668237493531
464 4 0.3238005075778039 0.20839253723132634 0.4139149227945905
465 4 0.391788706923069 0.1569236861197012 0.3196642944790866
466 4 0.7421608038815006 0.5996485071328419 0.019900664280008695
467 4 0.13907225096693765 0.3808584377021208 0.28843450687843086
468 4 0.11591389279633091 0.992528601749198 0.013845820648720197
469 4 0.9583618746481625 0.43576073651215474 0.9141031786086726