# LAMMPS data file
1000 atoms
5 atom types
0.0 1.0 xlo xhi
0.0 1.0 ylo yhi
0.0 1.0 zlo zhi

Atoms  # atomic: id tyoe x y z

1 5 0.3498037694209283 0.4627306007131258 0.1457586961657401
2 5 0.9212457780582248 0.6981834430241398 0.3203230458481703
3 5 0.43943290823920045 0.49187393065467155 0.8295408697170616
4 5 0.0877317963983042 0.2571795467481781 0.09626695215096959
5 5 0.7368021781417254 0.46961025213275553 0.1090654986955788
6 5 0.9669786624487648 0.5157877627363587 0.024045549688076484
7 5 5.584557353777164e-06 0.4616798968772914 0.31672285686328805
8 5 0.5652622594463835 0.7008745583752581 0.35260225254209354
9 5 0.5736851864579008 0.9006234878674313 0.022007776622826825
10 5 0.6833867728930624 0.3815727563760176 0.49990459998702175
11 5 0.4169871342926189 0.15171637839152963 0.7529176699750181
12 5 0.6294231845829975 0.536810756490276 0.70514355101252
13 5 0.07551885524058477 0.10368560949965333 0.12591853247948082
14 5 0.10910080803842748 0.7943764738896886 0.651570135577438
15 5 0.07400279376275276 0.12514300127208333 0.6738417651551091
16 5 0.4772045621440584 0.5402075525470044 0.43684020802514556
17 5 0.0894394945720206 0.38828317362380826 0.9791358103542033
18 5 0.8371598583305703 0.3441260852937581 0.1305160268083443
19 5 0.897302213416402 0.4507580645884486 0.7010418489710402
20 5 0.637107559812377 0.45220957757671776 0.10841988737727992
21 5 0.8267687915829897 0.651023679135482 0.44257072078594717
22 5 0.5495170831311194 0.9334887625649556 0.4037978165671203
23 5 0.1003344363512122 0.4017110910665437 0.42606857344696647
24 5 0.6893818791635021 0.006517067903114682 0.4576624597034952
25 5 0.06363175802922783 0.2429060245264888 0.8727605681706355
26 5 0.8891342010468634 0.6808284563183903 0.3378083857923426
27 5 0.9432994389742955 0.3747535941902195 0.9877083019869207
28 5 0.7542422918820364 0.7589460247576558 0.23162642108765386
29 5 0.40014557835084363 0.9489102623660092 0.4714285682665218
30 5 0.40249364844403346 0.37747595870785633 0.5731638042226088
31 5 0.25181813335520986 0.3742137949395259 0.3051697005327192
32 5 0.6092079212740956 0.6822603277023433 0.056182975003177926
33 5 0.3603081299932517 0.8774840724740607 0.249041256500671
34 5 0.0639084333195934 0.6012563882682181 0.20332049091420412
35 5 0.8846942104349524 0.9745261736944649 0.9416329365226453
36 5 0.6670998724727012 0.9971493436417409 0.09066105334380059
37 5 0.4387101681295087 0.5052109080343303 0.38307151623515456
38 5 0.1714239171152543 0.061690643566340575 0.3715629277883121
39 5 0.059490637569636684 0.7821666207459652 0.7474309440430559
40 5 0.11256252094023267 0.3682963087318607 0.5364642486359271
41 5 0.2556569219027318 0.6221468897889744 0.3459878213577333
42 5 0.3450840978840102 0.6554440957246019 0.6907613974405419
43 5 0.8415252669013802 0.31950933516613067 0.2531629078962482
44 5 0.9055547766258925 0.904898080771151 0.20227165745033693
45 5 0.3714781442447611 0.532871865647243 0.14037219603550632
46 5 0.04576095761588539 0.09256401565862016 0.15626773116089354
47 5 0.6105621509896246 0.3791495208468857 0.43740398992200213
48 5 0.6050416655138985 0.002828390090456656 0.8846506828758017
49 5 0.7825842567044794 0.700233558612495 0.8788691134428737
50 5 0.9801815796196628 0.02819664014057055 0.1765722561005285
51 5 0.9214722878132081 0.15508132485084547 0.13156430176115153
52 5 0.16129503729999595 0.7272856370928489 0.35464825394069655
53 5 0.23950958400552447 0.8216232409351059 0.9982808696021737
54 5 0.778831263404797 0.20083199433052168 0.6822936590321494
55 5 0.10179162922598328 0.27970991296736725 0.36493436246048183
56 5 0.3298825841265699 0.31008217151281836 0.47026593952096485
57 5 0.12426053569235318 0.6052556290736593 0.20238317945365303
58 5 0.8182296308040788 0.438583337019517 0.7436009312259975
59 5 0.07578031572007071 0.5489338856012869 0.8496561379084884
60 5 0.4778464275312141 0.09489739213458781 0.1530717100032295
61 5 0.6823401700791385 0.2445886795668717 0.4220859809355977
62 5 0.4494952770478733 0.5467616874748594 0.9977994322299332
63 5 0.7643925545598067 0.09149845085231145 0.29957774693465555
64 5 0.38600705107282995 0.08624059469289369 0.8100163880409982
65 5 0.9423872128381721 0.06361912385268165 0.9437906836765674
66 5 0.7680414168198729 0.2775379662170302 0.960243524110172
67 5 0.22632275288480064 0.5016203603087824 0.44142972109852663
68 5 0.6203689966568741 0.17564355758538341 0.6479343926774346
69 5 0.19387975715173522 0.8926629543724827 0.6327505813863025
70 5 0.35231652922710677 0.8903165850652262 0.41037308809790607
71 5 0.32622378400775487 0.15502128708294916 0.6954599013662471
72 5 0.9238050334185957 0.7430224896709264 0.9183482935363223
73 5 0.08478872999256959 0.6899607913272452 0.38744353224023853
74 5 0.18175553545861212 0.2630536708724811 0.19206149877512957
75 5 0.8657867930330071 0.45834822630517247 0.6088124616286416
76 5 0.5241600820551516 0.7309026925002258 0.4001230491860751
77 5 0.07676027180579925 0.2305585028912679 0.29513798433970717
78 5 0.9665619167839268 0.9987794131662541 0.3806199179539632
79 5 0.14687978083910536 0.42209784693707886 0.9177151313084649
80 5 0.16465265739638724 0.48008654946979945 0.2963012240750714
81 5 0.7133485188214449 0.9739720318976902 0.7130893298481705
82 5 0.15185510779914968 0.853546977314776 0.09230557397568806
83 5 0.36907026573083856 0.21509787207323927 0.6597621552721333
84 5 0.951487148416256 0.34525395696415284 0.898536040352053
85 5 0.2830226809785287 0.16042906029447934 0.22542552742073008
86 5 0.6125256671408853 0.00871501406160613 0.9174354460844479
87 5 0.8303308892109765 0.5661652173055621 0.9904176993672902
88 5 0.6365549544409088 0.05409176409415639 0.18370749145175802
89 5 0.8298639892407988 0.8053305645981711 0.09038806318335124
90 5 0.5685330492671591 0.28706766146008245 0.09647501200690067
91 5 0.18260082734184213 0.6626265874548898 0.3539360144584056
92 5 0.9598514377934758 0.7362068465468515 0.6632471611430253
93 5 0.483074400918552 0.08872260741757387 0.44629798670649423
94 5 0.8468788398092202 0.6168499245608915 0.3490248925391043
95 5 0.6005043095217659 0.5465211152804856 0.8530289746335376
96 5 0.12333223079845534 0.11911457508134782 0.4612978246537027
97 5 0.7874771897608502 0.10765592995054962 0.6103736957232188
98 5 0.7106379164876473 0.5768561813545624 0.8678317272652055
99 5 0.9236130138418385 0.5247920738003505 0.694686239936477
100 5 0.18252045526467153 0.6977362348088936 0.32117483380960254
101 5 0.560395802500328 0.5362706686490752 0.27971829972547635
102 5 0.11436525655970153 0.9323246448895154 0.6445311436722598
103 5 0.7052878926761723 0.5434486807525918 0.4520099217703718
104 5 0.3980435575929754 0.5075478698525117 0.9770861232468236
105 5 0.4023636261439344 0.34599392576551535 0.7439000917991501
106 5 0.3104271876600262 0.8268109425399205 0.3026610645627643
107 5 0.36401024542090876 0.776059587111847 0.7358202048947663
108 5 0.7966020145568907 0.3949520992150517 0.989044217039581
109 5 0.4873108628268412 0.2989636803007385 0.8168090747941874
110 5 0.08846158940703097 0.6852256963175272 0.5091890471554762
111 5 0.5395293169907531 0.37875590057175146 0.7240583930210662
112 5 0.4592854108197588 0.30510015346171204 0.03134449691190899
113 5 0.1847227126445813 0.5546299869978157 0.2467434727835074
114 5 0.9831002671932217 0.7451580581490302 0.6884648733095086
115 5 0.5306747974457162 0.060546844326902716 0.08444041525016599
116 5 0.14540690341073126 0.0008803349565730256 0.9930662488995309
117 5 0.9653046652904652 0.0684137083928461 0.7814667274303773
118 5 0.24781898225164978 0.5743705910994596 0.3066793806084367
119 5 0.37518925702320627 0.5202589801196075 0.5131451453837561
120 5 0.5120421458821413 0.8828468790871348 0.44571083030158964
121 5 0.050857045913519694 0.8797681247457702 0.5205943228049156
122 5 0.6496766821551792 0.40688820385896296 0.5048525669050324
123 5 0.6136478546384422 0.48462509310807445 0.9881140805445701
124 5 0.20284169141276454 0.19584247139491529 0.720644706956922
125 5 0.8067012818630565 0.7354064390477661 0.4460848559622864
126 5 0.8961137849390697 0.3473457209054256 0.05106942914173418
127 5 0.9747166907460851 0.7199166859431242 0.8380913255757413
128 5 0.2759550049143804 0.9997669801107257 0.04344960269264031
129 5 0.0817216496115849 0.6146887170946551 0.7810788011028975
130 5 0.7327120571801746 0.07005227976963146 0.44045410229046644
131 5 0.05030360799621203 0.09729549027821127 0.7170055172879937
132 5 0.7429839581744275 0.17784349300896496 0.515630724293966
133 5 0.18929640299952144 0.8230532778174852 0.9462025489252915
134 5 0.8425727509538874 0.1528616404737293 0.6997575195837491
135 5 0.29710217050087295 0.16694870192415112 0.10547465758484675
136 5 0.4173334807371867 0.9661327432624959 0.056255223167759216
137 5 0.693189558961206 0.1523485475532742 0.40935944886305575
138 5 0.5597032588268542 0.07676772956393707 0.25716208945468677
139 5 0.31946765348443107 0.7923914979293744 0.5358667459940154
140 5 0.48727522768939746 0.8784290751409101 0.7382790419259663
141 5 0.7474755864286057 0.009070427965503836 0.44322920136267574
142 5 0.9866177860535605 0.17155800432319757 0.08747418524639905
143 5 0.36115990572581413 0.4107011873224319 0.41310882283383765
144 5 0.7356102580360908 0.264467526091843 0.40219763300375744
145 5 0.004866745632029046 0.2531671759318256 0.6393890074503701
146 5 0.012696253332461716 0.6249469102744439 0.49108808593163633
147 5 0.5152093093927063 0.7454896612689722 0.6213888292758316
148 5 0.7926671330121892 0.12178717922066573 0.6442049124664331
149 5 0.8809706131314777 0.4115088948794283 0.887790785078292
150 5 0.7141168258807801 0.01871749008657486 0.0686140930438538
151 5 0.2886868268489613 0.8235250354367334 0.8949025081387167
152 5 0.02607495912522695 0.13064593899190757 0.491727277767229
153 5 0.6577881435357519 0.7594105273363929 0.8898419841625753
154 5 0.16331636732393218 0.02551962781373951 0.13745072520013346
155 5 0.17410415221221853 0.9143597778421398 0.5662620276300623
156 5 0.8851773855263303 0.9790969183743152 0.9849181138209016
157 5 0.9065692989873395 0.39236220789043597 0.42422061344009776
158 5 0.45363596490812763 0.4626650899113829 0.3632586753705562
159 5 0.7783819757888488 0.5466876372120149 0.7698078890866376
160 5 0.8143844610010637 0.7433157962167307 0.4447864273859289
161 5 0.021421642647791006 0.3281635849033717 0.5812387204429791
162 5 0.5943307137975247 0.5648623903417093 0.3784278776286204
163 5 0.18666843867372906 0.3952341635847335 0.9876028077278085
164 5 0.6719667131946108 0.6954072213877752 0.37071728929158
165 5 0.8776418148253127 0.7232750755504437 0.18858829487081208
166 5 0.8228397490586092 0.9378354246672154 0.08441998782463545
167 5 0.9709352940337783 0.5655292077940194 0.4792239709995836
168 5 0.28102886781332204 0.7476218154664461 0.941253556204727
169 5 0.369374248458896 0.07127747605491697 0.10789089989206402
170 5 0.0346351149889913 0.9941148285586413 0.6941944448665377
171 5 0.10862887359156725 0.16691865946619477 0.5175756356223821
172 5 0.9598431576260354 0.0074292383801435324 0.4420827848289455
173 5 0.16034754044310828 0.6884420728911073 0.5197514753179036
174 5 0.4914519051745596 0.8459705504816639 0.7501686402867371
175 5 0.9351801228336994 0.631608268316172 0.30960858029222504
176 5 0.2244075007429479 0.049113465652717014 0.977666801869829
177 5 0.18776050259648802 0.924582345342811 0.8493779180439696
178 5 0.14439646241148707 0.8999150591560254 0.4676531755982096
179 5 0.06807567772917245 0.8784840736898112 0.48446043433150376
180 5 0.7665503152022755 0.9770440402287678 0.910509984739948
181 5 0.09442813364309077 0.8238301514024913 0.1989068772729684
182 5 0.11826358896246614 0.6398686185613758 0.36673490986651125
183 5 0.1492061630564674 0.08538760537391266 0.5754249976400633
184 5 0.980439245256362 0.2426627296844881 0.7884415175100922
185 5 0.27377500739136607 0.23532122348888562 0.5133932710137032
186 5 0.4515224353120132 0.9999734325661771 0.9610119517884881
187 5 0.7557945741646213 0.39194905852950124 0.2959900070743082
188 5 0.02253258223333865 0.5391177226842373 0.8876870003646798
189 5 0.7852453641497412 0.7837747053635928 0.5158500054842788
190 5 0.9165645710575944 0.6233697035594786 0.5054364483998129
191 5 0.9235935609615024 0.5945884030208624 0.32809314423276614
192 5 0.3500767164814652 0.8662869434641877 0.14141451539183536
193 5 0.9789602262618444 0.6426098352084151 0.8911560099916076
194 5 0.1163000097750102 0.3937692302737279 0.5893633283556674
195 5 0.9797006828829861 0.49999743850374345 0.7488092604825594
196 5 0.04402369830845254 0.6152148619458792 0.07740627236480147
197 5 0.6467197389837868 0.9485177617639029 0.3311001734498872
198 5 0.5689751183775242 0.07832866320706333 0.9122884520747543
199 5 0.7844469856143044 0.3174847559596752 0.9375190830450467
200 5 0.4795456897839686 0.8284239019750127 0.5029846175301155
201 5 0.16675725598763003 0.7909225039183201 0.5589221163571562
202 5 0.492008783904029 0.6885123182738893 0.6446123891782779
203 5 0.9481796866720106 0.991082072108 0.15316346402592995
204 5 0.8887624884512317 0.08476303439730282 0.7345790252544329
205 5 0.1160147180943305 0.6384833765547252 0.44920973935081465
206 5 0.011095947472027579 0.6089346204584382 0.7878631331962349
207 5 0.31672867856490716 0.02436876971079116 0.4902012861013516
208 5 0.33550642322153434 0.22921699767656156 0.9524609085701404
209 5 0.013799193294462886 0.05891754047837827 0.9778284985113312
210 5 0.543519372878374 0.08910874348775522 0.2759221238536521
211 5 0.5722620556839146 0.7532607875163361 0.15482325948154763
212 5 0.4820430153271359 0.7247040525771404 0.8002905215309821
213 5 0.9456363039357762 0.6323027186904657 0.7830790356602702
214 5 0.6076668587665168 0.34541986634490385 0.6605234337314683
215 5 0.8256163451278515 0.964201341875423 0.9969236464673291
216 5 0.7428633948609675 0.30508727820351167 0.16287947883144394
217 5 0.1457468960601993 0.6030328549074265 0.050526948729937016
218 5 0.3781325224560008 0.6803884732910054 0.6351317214673091
219 5 0.5359250973065758 0.4171789115963839 0.7876067411443803
220 5 0.9078539692736584 0.16390870695784954 0.7217296659767096
221 5 0.2362872520913315 0.6777484121644023 0.908984101428614
222 5 0.20188393566848672 0.599152170915808 0.5488237883419719
223 5 0.512480346567261 0.05278031709528519 0.9020523607200457
224 5 0.6943059981050882 0.8964611759158595 0.7124702408366785
225 5 0.67841976169351 0.14920052583465626 0.5338518000361685
226 5 0.6514035817882713 0.9075862109968126 0.3213133472209758
227 5 0.9601431733833201 0.9010279147168953 0.6921407000647053
228 5 0.19255976166518018 0.21417805517957966 0.8383191442801022
229 5 0.43179357377158456 0.49676155102670594 0.8836619425759645
230 5 0.6603791272659412 0.7644173835835097 0.2788118343760638
231 5 0.3630209523932659 0.662870892179453 0.44798388496511043
232 5 0.6882682565559437 0.2976904057399117 0.38879843643095324
233 5 0.8799811722818601 0.22111084007879878 0.6016823683376618
234 5 0.38596439681467054 0.1687223405806093 0.03968797864246032
235 5 0.333667674494188 0.285416297724124 0.26842337134530303
236 5 0.3776938950027956 0.06903818349566371 0.9334597280963558
237 5 0.5519608971424741 0.7620084514955383 0.8794386064130373
238 5 0.8946968820285965 0.012441346389928443 0.37267100367172146
239 5 0.4315958895485519 0.9040103937346434 0.435641202015279
240 5 0.5475014263547849 0.18363984075979478 0.45483122619126604
241 5 0.7346635140672979 0.6623182346092022 0.22735624555925693
242 5 0.7528199227448947 0.5026779355131943 0.5058882522875073
243 5 0.5692283274677379 0.9758855871059292 0.29637174171486846
244 5 0.8239664431511378 0.7325411689754726 0.8577914348837415
245 5 0.6187283542917442 0.7734290453523399 0.4665849034931727
246 5 0.46971188758516424 0.6139541361178692 0.9008229583972586
247 5 0.6304485660906294 0.21801114418690626 0.1865253191714097
248 5 0.995497729858252 0.7575533474039772 0.700123131604936
249 5 0.28929244745819593 0.0782965968210535 0.5076281928712297
250 5 0.01948039619761832 0.21432186768033246 0.35561374115899735
251 5 0.2802191986370125 0.8081654687314254 0.1355830223595358
252 5 0.8161898109155762 0.09298525306700967 0.0386212711094851
253 5 0.8853790881465756 0.8387351549175847 0.9052268780546839
254 5 0.17854258337588846 0.20069997917216587 0.5589251132031126
255 5 0.7359271800023014 0.24600493462036643 0.7471075553786719
256 5 0.3689382823097861 0.9346602080258526 0.06213685740834907
257 5 0.44564503793544263 0.46725055454165 0.9187117897816722
258 5 0.40598209247554207 0.2773881872544025 0.003621579382166784
259 5 0.9931614941741457 0.4727433245620202 0.5615721456106447
260 5 0.3453168387676422 0.5398075775155667 0.26129910928017086
261 5 0.7164086257827432 0.9633707766814247 0.5877043373947032
262 5 0.12968139949913127 0.7547844515772605 0.8167963660744806
263 5 0.9845156262056267 0.03567526046068226 0.7441225374939956
264 5 0.7529016021954152 0.4970678206555207 0.009656821434775864
265 5 0.02587275210005968 0.3905383984377716 0.9936597042736298
266 5 0.4378608255480281 0.23591647306608854 0.5011019631872704
267 5 0.20417630658750352 0.7767912627611525 0.9495249296078425
268 5 0.9293545682828187 0.6906083740532438 0.03386118895714019
269 5 0.5412118607139771 0.031053474222673794 0.9837107606628792
270 5 0.8433089755641298 0.2689562120571797 0.8753849102386574
271 4 0.6204133432220905 0.6539062609568743 0.11562630592036172
272 4 0.027926612246443328 0.3177638615231799 0.4491206486832602
273 4 0.636139851597728 0.26994991096692533 0.94213571762526
274 4 0.08851843365046141 0.12483107835629148 0.9840940315635834
275 4 0.21407302304970466 0.2315636857812814 0.7393349321779157
276 4 0.13773883889731764 0.04702987871034314 0.7557551536402598
277 4 0.8003405848464059 0.723152091330199 0.03885384639629452
278 4 0.7059694910941724 0.2581172402196851 0.0751229294799417
279 4 0.22666820912284813 0.12102199503047428 0.4161774141238028
280 4 0.3896661179613806 0.4812050589910438 0.22162354824268704
281 4 0.5788382109524354 0.7328392023085172 0.34133272306455664
282 4 0.5773954345534609 0.7684098543297139 0.10076360512932492
283 4 0.4143109406597606 0.5495898461835206 0.891190359224779
284 4 0.006541799042099727 0.20025696445324936 0.9649128796861138
285 4 0.3673706438200026 0.9077031929638939 0.8127086037275554
286 4 0.6473905149218993 0.2621125751939837 0.0550396811442434
287 4 0.41352018008334956 0.25227992313669945 0.26437769509442255
288 4 0.0005330364562384782 0.2089990585542758 0.33120493880584945
289 4 0.3564184817587811 0.6681327999376632 0.9733191393865999
290 4 0.9651456686998077 0.7866100254945276 0.9388436462426353
291 4 0.8951235803230863 0.6977333313311669 0.2385380815481294
292 4 0.353939230473441 0.6497538938501869 0.20963241481731199
293 4 0.29383905808459165 0.49001445977370717 0.3744093192242335
294 4 0.9909658348170872 0.46899517087287 0.23953490228964336
295 4 0.07891691915405219 0.955117008670196 0.44005485341404227
296 4 0.982688226681317 0.7914127112949901 0.4071536329504212
297 4 0.19275706442069096 0.5225109727268893 0.9931193959965908
298 4 0.006290194527664106 0.04922784039488126 0.05902009787553264
299 4 0.2850793704985062 0.6994485479017734 0.2986235878601964
300 4 0.35387140608573164 0.095710226941913 0.235163668476155
301 4 0.008066542969958346 0.009518596348059294 0.8602249561780547
302 4 0.9463995295393237 0.602895114937247 0.26233539103513936
303 4 0.4489031664268267 0.963184042635462 0.8456429781459965
304 4 0.3300286991181577 0.7951773763961993 0.274242823200498
305 4 0.9653278158517113 0.8363822186620269 0.8117685470924758
306 4 0.9026821599716036 0.9076861963303291 0.5990709988578324
307 4 0.5345243129465889 0.019972033504136344 0.29142382978592396
308 4 0.5479766329045833 0.6870012945338633 0.7534626140965361
309 4 0.7495084307367962 0.1911707138690515 0.1939524604573789
310 4 0.04416312364479702 0.4023937691327404 0.718944114418167
311 4 0.264843480347575 0.8370702416655872 0.8627007732537558
312 4 0.9862899301054613 0.6946927227738111 0.6489680783316294
313 4 0.1936046854237039 0.8067393401322511 0.3989827413916497
314 4 0.6553501665636878 0.3207559000798581 0.5423785755941711
315 4 0.6185306733487413 0.9900433527964804 0.8299348786557039
316 4 0.6534854426437481 0.2762964012615866 0.9087250269893224
317 4 0.540104253573829 0.3213276731191307 0.5276838372077722
318 4 0.8264690848285925 0.32817095220999737 0.8295486365748547
319 4 0.09740232466480858 0.5188604830493113 0.29349838503797543
320 4 0.096422841752828 0.03791811794557565 0.8489580056061162
321 4 0.7358542991420424 0.6160485822316846 0.7261312616761333
322 4 0.5006057177408327 0.5802466917614831 0.23232963792684536
323 4 0.22497785094812905 0.05284384444982726 0.5610524921392834
324 4 0.8150555131632342 0.08112019804439397 0.728496120273302
325 4 0.966441304526142 0.16136628308174028 0.5414733904979431
326 4 0.13162915578793144 0.31880035242078075 0.42081446936624556
327 4 0.25582348265447763 0.20115737676112921 0.13803408411096052
328 4 0.4162199352076883 0.6999203172921238 0.11365783464610324
329 4 0.06593896804368593 0.8555467382985303 0.298492223603978
330 4 0.6970609777407393 0.2337192406361981 0.9972795019980103
331 4 0.3198187675450671 0.37009604500309334 0.4578013711614075
332 4 0.5700532198190902 0.1760587653479604 0.9996161081442451
333 4 0.35975440683949633 0.9580009690308707 0.1483471598246009
334 4 0.5307880088331692 0.21537215894893202 0.31865169599571297
335 4 0.23971167431256168 0.7198627002822598 0.8605031732761905
336 4 0.03956736185797738 0.3335464233135286 0.8253002555223741
337 4 0.8672328119553532 0.33641531560544313 0.4395300014064124
338 4 0.41163275820786227 0.7376776818654504 0.4018096033917602
339 4 0.10943020110748192 0.18321318651791196 0.4391265100272993
340 4 0.5959189974357447 0.17839871164178311 0.4035627578012959
341 4 0.9191831356106701 0.8922447420271999 0.9575149570415393
342 4 0.6850139845302528 0.6701156938598013 0.964583607631885
343 4 0.21455223292874215 0.20018272388160208 0.009026274316780492
344 4 0.6546878950005364 0.04264577892032262 0.31227291800011514
345 4 0.9237747110714593 0.314306813250817 0.9575719162598254
346 4 0.05478791775061165 0.28671017164322665 0.2559454628954275
347 4 0.5704760124860965 0.30854487763537086 0.8639607713978492
348 4 0.019188772232287987 0.292831096455903 0.24984503459375695
349 4 0.4382429150120738 0.514455035123521 0.27765277585589165
350 4 0.886070789998207 0.43933562623155686 0.2869351900672896
351 4 0.27500747696285044 0.4049741631339856 0.5247170972214926
352 4 0.07837497891129996 0.07142794171309963 0.9995563358561514
353 4 0.520931729908893 0.2763463266187457 0.033731382214809424
354 4 0.010194539138629888 0.1621091351051861 0.6542763967932959
355 4 0.4746103888760719 0.7457262180168881 0.7612693389057131
356 4 0.739539035684534 0.1447964263492667 0.023827090787137517
357 4 0.48497110333235227 0.5715365879763951 0.6528692958335499
358 4 0.8415661397086179 0.6870306595333553 0.43946139319939803
359 4 0.04480595377587082 0.8658345190655381 0.15650209361294898
360 4 0.25379702345522626 0.02673753865359796 0.6924415391270644
361 4 0.42672571792526404 0.26495722008002576 0.6682723034149929
362 4 0.5429822865822609 0.07170816343807107 0.15893147127840412
363 4 0.2564106040040811 0.09184139785835277 0.5730725913943393
364 4 0.9456723879516798 0.46811889935871775 0.5051452707795443
365 4 0.3908516421056878 0.8660894801392501 0.42220137091679266
366 4 0.4704389510128958 0.9476072888061536 0.5909016552822062
367 4 0.26935489962367265 0.30690461582410855 0.31500132785943846
368 4 0.9439339104082285 0.744155814784768 0.4857099130932685
369 4 0.2778879492383395 0.567577223749659 0.677377972139821
370 4 0.37490691100690965 0.8373099578744156 0.11716145703093483
371 4 0.05523537436022807 0.4121912357783043 0.467217583312601
372 4 0.7496584783084365 0.2313406777549586 0.7604972255305957
373 4 0.6288934774839668 0.9462146667861513 0.9057074924452297
374 4 0.8367374939492843 0.654948600113939 0.034826861344882665
375 4 0.8656869983526305 0.6837539194339312 0.486647049123754
376 4 0.17022144392613003 0.08544707037594712 0.8746458836391221
377 4 0.33313840048667887 0.011309113886149968 0.17903014866362876
378 4 0.030040207651259365 0.7872724355542118 0.8553834696880263
379 4 0.7638281535027583 0.44600842032514165 0.4668057902802758
380 4 0.49990380785456745 0.24787199214447853 0.11568426857343883
381 4 0.850450058782616 0.5315799015651111 0.6974220919867341
382 4 0.05662199323841277 0.845519272675373 0.12524955949020178
383 4 0.10720744670705407 0.6004839641290248 0.8017436762081712
384 4 0.3130812430412747 0.06726923932255002 0.8609593272793485
385 4 0.31906685688271863 0.9149097987362035 0.1417138949255139
386 4 0.06822486038592934 0.16641418812800346 0.7070485593434848
387 4 0.8884650224976418 0.34010973580020776 0.8145641125881554
388 4 0.9901179640193791 0.03521711917128756 0.4006500471265001
389 4 0.267879083278341 0.7026240951032147 0.9862123032271
390 4 0.043942211764106176 0.013251067165571562 0.9234964464174779
391 4 0.8990073717394647 0.10745492827640446 0.720711801049867
392 4 0.09614313176578393 0.7258070424227544 0.731655511846542
393 4 0.23441414074949762 0.18323322162901667 0.41938742587141475
394 4 0.17597216022748086 0.708105256497284 0.5056466463856002
395 4 0.7158723808063935 0.9530193107250988 0.5311077077725403
396 4 0.5884906271077187 0.3649354422311921 0.8111965741656438
397 4 0.5260630180551875 0.3319392447679771 0.7945906275998638
398 4 0.7751434514649382 0.08651589021854866 0.5022158203302448
399 4 0.13557230229239037 0.24909429720230603 0.8214951804779381
400 4 0.9386148234827445 0.1622533882602687 0.7636356494842528
401 4 0.268241896197002 0.8706461341631898 0.8969289041539298
402 4 0.544198741127707 0.4040307087964723 0.8848635457125393
403 4 0.8125120422150814 0.7282811724291508 0.5242059896938128
404 4 0.9094256309705236 0.1106453810961564 0.045084208997675956
405 4 0.12995809629068156 0.6931858964074803 0.8639429461538306
406 4 0.5269646542630898 0.8971334961915997 0.252278292686852
407 4 0.3044491611947828 0.7140808664179754 0.21819003642407742
408 4 0.051156610247688805 0.5857151765729645 0.5673185112941672
409 4 0.7162306825163149 0.14979800417509237 0.4555056226358377
410 4 0.6816498396889872 0.4039409470006998 0.12829974834391877
411 4 0.08746174621904923 0.03514060144334019 0.8744360594443129
412 4 0.9542451640434124 0.2556726743614083 0.36087597838459595
413 4 0.5447966449743533 0.5775441605210784 0.7079155390114578
414 4 0.6953760844473068 0.7456377358439048 0.2723929704000254
415 4 0.5436926167575705 0.7122929414490713 0.08818786756526009
416 4 0.4813496868906173 0.7833977999116775 0.8410811378035321
417 4 0.986204932953668 0.1465557183105901 0.36609476711452715
418 4 0.5721021695718999 0.5549677989325714 0.8591676217192056
419 4 0.271778643332689 0.7171003151372036 0.3552720909943673
420 4 0.5788219416590267 0.453695607788251 0.0896202117182443
421 4 0.35984468985936835 0.6343545624753442 0.44915018775709914
422 4 0.32860952593530024 0.45194506435539183 0.3429599150809307
423 4 0.7304813814802079 0.5488249070469594 0.8106268175280718
424 4 0.7153671918209289 0.2360617451588516 0.11764272346231253
425 4 0.8908738803736149 0.19409669965628018 0.09103359506177322
426 4 0.4655110009935287 0.079896937949676 0.07041397987079856
427 4 0.493335401665133 0.5634567243078589 0.23623982270245658
428 4 0.9206141869686212 0.8223220309205501 0.9144526076107204
429 4 0.3942681113634715 0.6610975777045246 0.48568154885819814
430 4 0.09346624233864731 0.8787546281639185 0.7862183467624592
431 4 0.9160334329799286 0.7719106205243513 0.2528165883790876
432 4 0.5631757403038193 0.3325848566094911 0.2956836408834327
433 4 0.16919719635342578 0.4222131901933882 0.5880048039598598
434 4 0.8044679030475744 0.7435997525358955 0.5223179334153895
435 4 0.5036580775917312 0.6390099044478035 0.616638605425628
436 4 0.7618015531496812 0.2502079952082862 0.3783710065131046
437 4 0.5875116938402347 0.8468379374961372 0.7494820935662749
438 4 0.040147715271259043 0.1588807542553784 0.46949403151224967
439 4 0.5043627378657799 0.07765593279779981 0.9105466429285667
440 4 0.21266100311974512 0.6810070910078306 0.6672238178439601
441 4 0.05764801968410571 0.5085182004947386 0.23083176737258826
442 4 0.5975747286514217 0.06752503408090216 0.7291537713021429
443 4 0.6727775812531959 0.9177592564712982 0.8191380221192388
444 4 0.7373722729675392 0.7936419512629276 0.9242874866423204
445 4 0.7434696169402398 0.5443048293431617 0.31864995650402483
446 4 0.7961026144695865 0.5117528574830045 0.2170397765730243
447 4 0.3843200184423492 0.42651763395642006 0.5445722454268367
448 4 0.7812018104264851 0.4431248523851117 0.19992733724868528
449 4 0.09607858192070662 0.9359428641241604 0.8958719237526421
450 4 0.8635871417985677 0.08972233942157382 0.5743154996080343
451 4 0.4395466448028089 0.17163421739187135 0.47354748117805945
452 4 0.7405091828884798 0.2985822101703446 0.40106468279588436
453 4 0.25890260627024775 0.000247357793021985 0.23628112195830753
454 4 0.21075919737960025 0.14010006857106627 0.13018600900676913
455 4 0.20341080936469746 0.9971960233093677 0.326122809900925
456 4 0.5315116961171371 0.6851513966657279 0.744523735005485
457 4 0.5797164992843332 0.8790091261163683 0.7367722896736044
458 4 0.013118077836544173 0.0271066920065135 0.7539638806058121
459 4 0.4280936808203204 0.4506317478382962 0.3460674405201142
460 4 0.012977458888192905 0.928223819517772 0.6652444601476151
461 4 0.11218227739597131 0.43283074416048106 0.11169543316572217
462 4 0.7960889192187142 0.15867578012167682 0.2033330158815061
463 4 0.6333366857743739 0.405596069473631 0.09755402970753646
464 4 0.5752706208722809 0.7087588690558041 0.44532021101226216
465 4 0.12955443848017012 0.22087299835016472 0.026726879142030202
466 4 0.025440848156511153 0.0697546583400096 0.8788026423190856
467 4 0.3869220382363513 0.6798717090192858 0.6004685328187178
468 4 0.7572802975538185 0.11099589079078964 0.813550562567895
469 4 0.3751605471295222 0.7454740704950992 0.12287370453187163