# LAMMPS data file
1000 atoms
5 atom types
0.0 1.0 xlo xhi
0.0 1.0 ylo yhi
0.0 1.0 zlo zhi

Atoms  # atomic: id tyoe x y z

1 5 0.5972676657536209 0.5797864094112245 0.29355909430850446
2 5 0.49539837855026625 0.031670829405006096 0.9860777255052166
3 5 0.7202439071828869 0.8832700507611725 0.43531644668613756
4 5 0.36469203673354755 0.5166901888818812 0.472714842155353
5 5 0.0765668801529723 0.2602918193715047 0.6439677185003589
6 5 0.0337479911675127 0.11968001290693364 0.2704319039477413
7 5 0.8404799272437044 0.2798002688252448 0.1179139751810151
8 5 0.9317697345650637 0.3779395475584575 0.328922120005933
9 5 0.619989074856405 0.851413929859854 0.40648352839250923
10 5 0.012519990268306525 0.5568345574341275 0.9187671973921547
11 5 0.05726129099158206 0.6902962634647959 0.23946668063386256
12 5 0.14021478598417947 0.010976507668080449 0.6662224980345051
13 5 0.1715162231299655 0.4072994408561932 0.5723405592168734
14 5 0.6429776068012796 0.6300838751195236 0.3367110368771917
15 5 0.11724934076423066 0.23995760493684581 0.9926657726612031
16 5 0.3750819203318586 0.4207813250530459 0.5936010937580585
17 5 0.905464984222106 0.1731802699649878 0.2652533178873898
18 5 0.6774190452434897 0.33479639672809236 0.509192280066835
19 5 0.07544320884314215 0.00875006270044465 0.3125389518323872
20 5 0.3358902045768142 0.3663707373037308 0.2323109406305206
21 5 0.7955181401556833 0.9715203503347161 0.5769587867611566
22 5 0.08487066449082326 0.18713179576221117 0.8728064867775347
23 5 0.14583166103861234 0.5950694005855384 0.7002048219578728
24 5 0.7906684156352692 0.06564550223893384 0.9553302330923958
25 5 0.07129925976737195 0.12528281434908917 0.7053717035899219
26 5 0.03585301276808084 0.8668649764964572 0.9380399563114591
27 5 0.534397590543022 0.8504053408706544 0.2250426835915612
28 5 0.8247700460710323 0.5453953044816917 0.9296343140418154
29 5 0.08745319082949354 0.5533333506179291 0.47273661124622945
30 5 0.7401840696449996 0.8775142720533647 0.25938414478626015
31 5 0.9676403572959975 0.06999074459964583 0.007126707177413039
32 5 0.6700799727167449 0.8658016173641627 0.490682753374001
33 5 0.883877627650694 0.12219073389741564 0.42960745457317295
34 5 0.4176330755403783 0.2679743319820189 0.4536367581611751
35 5 0.7184514656897928 0.8919914257586689 0.27658288164560285
36 5 0.22423492493935648 0.5683981804022954 0.06591011206024511
37 5 0.013108312087496188 0.6355284363131345 0.834696567244315
38 5 0.4283074739587506 0.9731031537026447 0.7530045667358422
39 5 0.20233089671288862 0.700579384330835 0.5505052038052035
40 5 0.6672487526538334 0.05342334894999834 0.7908737192989308
41 5 0.41406815634456384 0.5363005264859033 0.15577890909609704
42 5 0.44036523774550385 0.5765170490035505 0.8085407050599901
43 5 0.7967448889793368 0.22294386258850307 0.4046495939899929
44 5 0.8559650545377511 0.5692853957305295 0.40197169781752706
45 5 0.7993219687297102 0.32500557708506495 0.8213360544270013
46 5 0.1907888864915579 0.26114438756485514 0.3534236247468564
47 5 0.6332562693040773 0.647406749059646 0.6805497086179454
48 5 0.6985507878913025 0.7838438626405355 0.8734630253961163
49 5 0.3301559247388206 0.5793130988415548 0.24721147499350482
50 5 0.26494871722272406 0.8492750654994583 0.9679381518288913
51 5 0.2826275471406482 0.6542956759622799 0.7440837271163713
52 5 0.7142866706900391 0.011741848078717698 0.9388441765704455
53 5 0.9727991479671323 0.6764882321982484 0.06901011500815513
54 5 0.6789232674195498 0.3904061790984409 0.5022021700925563
55 5 0.0211066416779484 0.2492198073748736 0.25583967474569613
56 5 0.6040012940342093 0.4097073589288541 0.29383727479962185
57 5 0.6749148112584036 0.31325706314965474 0.13695737218434567
58 5 0.24836149991911238 0.802418545409135 0.201799668851526
59 5 0.6277875758259424 0.49695621156060354 0.03701701509088262
60 5 0.17500308428712474 0.8740382664740414 0.2947365940565194
61 5 0.6387266804375834 0.5362728835196126 0.4306881423740915
62 5 0.19200474248091848 0.4537317146095834 0.6636619060212529
63 5 0.28644809997601905 0.6563190960548961 0.4473662726170321
64 5 0.3441801208501233 0.4571586728219642 0.9579193075340843
65 5 0.877803038606547 0.4811039530904079 0.9156573425911159
66 5 0.7207133644432886 0.44282090850445854 0.07062935592547637
67 5 0.36502178603715885 0.3412308576326516 0.8846329129443811
68 5 0.6098606296506066 0.7188899949402155 0.8339345532725766
69 5 0.5709681130817743 0.99928401053776 0.1315236112774405
70 5 0.8246538828017449 0.35836150474788053 0.23112027536421154
71 5 0.6953581849317501 0.037859978628125845 0.282363164897693
72 5 0.23324102505045474 0.6163197397635324 0.49039642623995583
73 5 0.9320481861717819 0.6197258618094117 0.28013354192726625
74 5 0.8236219832157832 0.013485648682067808 0.0534847439340026
75 5 0.8656077080099566 0.6580876358782558 0.7806573261239835
76 5 0.7061923146018315 0.39723085472154995 0.27731654226713454
77 5 0.4288092698051926 0.22009511953710048 0.08487525918499605
78 5 0.5964783856356115 0.1744415847299895 0.5254037305649022
79 5 0.5050262033061838 0.11438668594866552 0.0021921867611157664
80 5 0.19720886582056407 0.1855390860081313 0.11590806299912726
81 5 0.040817313588260906 0.521939542659002 0.846736814735175
82 5 0.7970194085362262 0.1677411457490794 0.009861885996541475
83 5 0.3074597541380022 0.09517217391658228 0.30901230097668475
84 5 0.04704872532404425 0.24328755934866786 0.6810987348707195
85 5 0.9208118241577027 0.589261983739301 0.6513212708098696
86 5 0.1726671659018303 0.4344198813988426 0.8523771069582186
87 5 0.854900789214175 0.8039663285555998 0.3468860892079446
88 5 0.22385105852323584 0.42689280344228797 0.6708014665525034
89 5 0.7991091419133115 0.41624086515085035 0.9612213223960739
90 5 0.10206452578741287 0.9853963462069735 0.0013756226355167156
91 5 0.866318652161749 0.8382183909682915 0.23972008864814198
92 5 0.7149176593790323 0.7136841778353799 0.5013915804585957
93 5 0.6653229297043977 0.053435166672219925 0.6767032929963985
94 5 0.7244582637801971 0.8761354724115036 0.3893511184448277
95 5 0.4279786834651985 0.6353896652922515 0.7460202684213392
96 5 0.7793819977672976 0.16866148172812967 0.3532415566404691
97 5 0.09138741166751096 0.13227266782987068 0.5542730516503271
98 5 0.364684098050605 0.30930622565603194 0.16155587737812216
99 5 0.9371900616102015 0.7112237104890913 0.5442989181341349
100 5 0.9487759822603985 0.14179169228534982 0.2743299246859694
101 5 0.6023594281888413 0.014450916687545279 0.9095910320104021
102 5 0.4011184585483145 0.9579043701274669 0.09279461841757275
103 5 0.16467726181152442 0.025026243651676383 0.5607439757721456
104 5 0.7114443471936711 0.359140623848369 0.0838484194977438
105 5 0.19937562935620234 0.6420601766408078 0.525346392116707
106 5 0.512113241177412 0.4496649128067023 0.9570654982240244
107 5 0.7258937041125423 0.7074730907482273 0.617573711838266
108 5 0.37970098538926145 0.6103081571127581 0.5862448729854679
109 5 0.20710822864317358 0.5524706443909144 0.29790387415583364
110 5 0.46686969623844277 0.5238901524447187 0.28381913087747646
111 5 0.3137537488023351 0.5417850854132021 0.009742179994139843
112 5 0.859545515885751 0.5667251785183416 0.8153742029226979
113 5 0.18881381431288724 0.9042725646627228 0.6676786339300651
114 5 0.42946788958472915 0.5278025044436422 0.3963585139654352
115 5 0.9096685354209004 0.8357691000336227 0.7465227598836608
116 5 0.9228013202720085 0.8749202149453884 0.36367208949939545
117 5 0.5997088588625317 0.5936896433706078 0.14651501760729635
118 5 0.9773818426634202 0.09282867088978952 0.07050303735477292
119 5 0.771159027664195 0.9773828923342227 0.6201401715184415
120 5 0.893959036382232 0.505680161593051 0.5683455025106451
121 5 0.2358948467421692 0.3792090037951167 0.7768984415105367
122 5 0.4543885299606859 0.6176989905768069 0.6238341237690274
123 5 0.6591285871280737 0.015662731680221254 0.23076405719052573
124 5 0.619091101127167 0.8900264713662533 0.5968569155678309
125 5 0.601082715060974 0.9342478084540322 0.5929117783554756
126 5 0.46029108526471874 0.7051972761696346 0.024225642938383585
127 5 0.42952050369814176 0.10014922074512322 0.49360452678553257
128 5 0.6327483881644935 0.23131829610842247 0.371701018735637
129 5 0.5823186460424674 0.35355779406667287 0.5731997340124746
130 5 0.027002227662502487 0.13489040149369813 0.23697683315072193
131 5 0.2796356293523673 0.7583786833511352 0.2440021685252186
132 5 0.33128965771286134 0.4055216864683463 0.6121341136173056
133 5 0.2695899236175139 0.28227910470634343 0.9706707494223588
134 5 0.8596553369605848 0.8596257669244285 0.9993355896906841
135 5 0.18651739929129574 0.6741496391566332 0.7235099339212507
136 5 0.062134836895612056 0.1390563115704122 0.8165554628698112
137 5 0.5397132078202669 0.5647673584491415 0.8887565301249839
138 5 0.31759210814873606 0.20223572403206613 0.9173102727838545
139 5 0.45123219984924146 0.6305458541066352 0.5136340371793424
140 5 0.8382021773725352 0.7375413316022922 0.9337687289765909
141 5 0.8683145672844946 0.7933057054773464 0.19650625024463897
142 5 0.37645066499777957 0.19985387485685013 0.6464842400948974
143 5 0.054817084023989104 0.7041588279415028 0.14506919663567086
144 5 0.14199459888990285 0.0688433650187612 0.9526653445369937
145 5 0.3986418060349134 0.7253350606709458 0.1965572546878569
146 5 0.46842382926522963 0.5712436073939906 0.282953922964886
147 5 0.5508360833002176 0.04471939835765648 0.5419048883407374
148 5 0.30767579382198285 0.6795579110639469 0.38506081961575533
149 5 0.836344185453477 0.8829827134230709 0.7908260312200462
150 5 0.7459681790319638 0.24285039001146524 0.9382800207285708
151 5 0.016296169481635148 0.116416650362268 0.8649640708869234
152 5 0.1726289004233873 0.6233109707284812 0.1611462474827995
153 5 0.11203966422924916 0.2511391224699363 0.2507825658671057
154 5 0.765592628895476 0.2880179138072806 0.6065262114328736
155 5 0.5010316167575823 0.8684772369743952 0.5684816737434855
156 5 0.23694848102352306 0.19182460755953068 0.8138375690670676
157 5 0.12012763513202163 0.8074195135802172 0.2723234581677596
158 5 0.5382160427021222 0.7335983514751488 0.4451827604418145
159 5 0.9028095635315132 0.27681172355892003 0.7612140919595834
160 5 0.5849774117414132 0.07845027877731048 0.7002533244722144
161 5 0.5291834789871054 0.503063371937044 0.5060820498510795
162 5 0.9008823126260632 0.8124073518791661 0.46400544379715514
163 5 0.6209589643479486 0.3931683087240464 0.5354002697440887
164 5 0.16462851515441068 0.6057507437418725 0.7130782361533031
165 5 0.356443725491686 0.23128144684858887 0.7484681000255607
166 5 0.4053805922272604 0.693487349625738 0.2588291676655411
167 5 0.6253591261467035 0.9587337715090086 0.9413679178590578
168 5 0.047808690796522724 0.6373660474678786 0.4279400198047909
169 5 0.734062331037449 0.26819776298371967 0.25875297971658984
170 5 0.2748808454586227 0.31806649948099885 0.7911278753140132
171 5 0.09107597496201025 0.7043057791790975 0.8134492997421195
172 5 0.14619918227138373 0.26600786180808766 0.28663391395746884
173 5 0.1373349912087538 0.46538074770908455 0.0744629798394314
174 5 0.35898258982386133 0.6811362003252964 0.9372270527661803
175 5 0.9273324500689605 0.5558939498634499 0.5392331798894712
176 5 0.2556565781475102 0.727298562329706 0.3009048084493676
177 5 0.3685575822307877 0.7537944181117933 0.7466113162759477
178 5 0.5896116762756048 0.38387319017215127 0.1277929798121501
179 5 0.14461625861143668 0.587402793146681 0.8569442379409878
180 5 0.04739695192064386 0.6186392967240232 0.4503322566050344
181 5 0.3628673916225148 0.0020614419570536002 0.02054255379364922
182 5 0.004812031448407805 0.9923044955144584 0.9518408022431035
183 5 0.3959093479076172 0.031724194764543356 0.9865901951567382
184 5 0.999674516647551 0.1196639273800777 0.5839309140258319
185 5 0.4253599479064599 0.14783476093550885 0.6742542869234128
186 5 0.10880371873414874 0.9075489976053759 0.3946104022598952
187 5 0.6812018915794248 0.2413640521071665 0.6605832367136972
188 5 0.5859972612968934 0.802578028228085 0.5361760178113705
189 5 0.22763996089981942 0.4072022410626668 0.13302123133634958
190 5 0.6042400513539679 0.7329335762711638 0.06840018895405209
191 5 0.4738720785579047 0.10061333057871036 0.0005223182143252458
192 5 0.6948268279908681 0.5085420140171634 0.8506941889028103
193 5 0.8616442919875319 0.06646361487644059 0.37202237599730814
194 5 0.5257927644144902 0.8736230325935422 0.03670537557432407
195 5 0.6856157398032731 0.36741120568307084 0.5972185921025175
196 5 0.47408838874981585 0.9160393848550122 0.20444721045489544
197 5 0.2411029219781543 0.461144840521434 0.20658504231130992
198 5 0.7022117479861268 0.13670634401648663 0.21326600398048623
199 5 0.7974091350611128 0.28321098645493903 0.07471775664866531
200 5 0.6542651738212325 0.8504155215115689 0.6891413123929435
201 5 0.8299480171403368 0.6520654857798865 0.9326718926191736
202 5 0.9075452547122043 0.007936226545302905 0.3059961087872717
203 5 0.3304776571555873 0.2631437059745583 0.031167099422187317
204 5 0.8181292493562264 0.4894818590247475 0.25106571787848075
205 5 0.08070774812401871 0.7942557979297712 0.8747824736772419
206 5 0.5895058950142517 0.005156535844682786 0.5966308724711289
207 5 0.5445965699418784 0.03851857184380558 0.8809025959118587
208 5 0.16867819033791698 0.6424770589853962 0.6150790286151601
209 5 0.5953092234396735 0.6604205740965543 0.09632020201112679
210 5 0.8218096160776386 0.9995852022045296 0.1042206264124631
211 5 0.058686266177939705 0.10228976058346029 0.34174513970785914
212 5 0.3483063058492626 0.9347683504204907 0.3298942777518068
213 5 0.2751758815507491 0.6522349433104975 0.8498947631633151
214 5 0.9528094087482628 0.32036424890802373 0.23174839940429037
215 5 0.5466316877654848 0.2994241823215351 0.11861216450164502
216 5 0.02561329023048864 0.7615086116678013 0.5681183902253693
217 5 0.5482416067165161 0.5697368349427653 0.7177141106890486
218 5 0.9301619643177453 0.9247387934160006 0.4966867381783272
219 5 0.033857450484110485 0.23801790808653167 0.14507318892287757
220 5 0.06532177355845892 0.262007289997531 0.9196287446174664
221 5 0.4488721598183836 0.921627840137189 0.4021958177593584
222 5 0.2643692152894127 0.2900481373203876 0.18137200374203666
223 5 0.3517621842880766 0.0595954750025226 0.6761732508120484
224 5 0.11341704630994598 0.650732100691108 0.6495178313214812
225 5 0.7035906370407096 0.37664042847654866 0.9597292998203977
226 5 0.8473093067338189 0.27270790597674543 0.7996643260277119
227 5 0.434787493583792 0.8697567600244199 0.9197104867002718
228 5 0.3016049551470009 0.2755128132061938 0.6893472276848134
229 5 0.9579695344011311 0.18460690017217607 0.05828632147423485
230 5 0.22708479114496505 0.8230951708971386 0.975145141825637
231 5 0.7942131026359392 0.58089718170898 0.34619815942326737
232 5 0.47960655365003335 0.261285852850185 0.27047372715944173
233 5 0.36328254158736284 0.7705321184029527 0.5242913392184334
234 5 0.9904203839077089 0.6030238437117295 0.9829763044435722
235 5 0.6547130724357151 0.7598986490945189 0.9010292679067627
236 5 0.3792041592246722 0.4160546025506454 0.09886869689370847
237 5 0.2987198767017085 0.10407100473896036 0.8471813154672915
238 5 0.8426979733118288 0.08552526556681062 0.5948170653949919
239 5 0.931459491271173 0.8271055247238956 0.22115713875811782
240 5 0.6270434727217729 0.719467167703017 0.7102803018798178
241 5 0.11619481793961728 0.5820075826846238 0.19869378583533415
242 5 0.5956285273420436 0.34643293533128117 0.7773979169331277
243 5 0.5854249192584999 0.44820068798672164 0.8275148439691263
244 5 0.09035761024556666 0.40735543288592 0.8163761144931635
245 5 0.23063584868205078 0.9181437060164506 0.7760980721592688
246 5 0.29108214074278593 0.4122892855609567 0.937504312482199
247 5 0.025159334935656252 0.7223711604734884 0.05138606122609235
248 5 0.03143853546723574 0.351256044328337 0.8512352358235826
249 5 0.33353184606589237 0.36805114144809015 0.8408900198463525
250 5 0.7938733125763628 0.039578001609423374 0.7796195123728408
251 5 0.11464395350790335 0.5075448546117386 0.5257408379129064
252 5 0.2609398008773175 0.8825311763221828 0.599963707571227
253 5 0.35067342704021764 0.5586995160687405 0.542436675827676
254 5 0.24210915623578466 0.6080256528658393 0.8215353229949129
255 5 0.7955562653915219 0.190665202996121 0.4905644913551631
256 5 0.8095410399606972 0.6574939843473898 0.46981717939335665
257 5 0.48190955378908196 0.24575437604567363 0.43177287436073786
258 5 0.6836505816204244 0.05626760129202191 0.9666588914052706
259 5 0.7712634248043824 0.5633424924997014 0.9654642960708616
260 5 0.3762355696081999 0.7494849211015802 0.8879357786544768
261 5 0.9364629584541987 0.3137013714051421 0.4637632419892579
262 5 0.39097189899376705 0.2816462345199493 0.7699875706534637
263 5 0.06235759946804764 0.42670771957056286 0.14276783403629523
264 5 0.4228838371867246 0.5824082723143652 0.2667926755398806
265 5 0.2677384722423952 0.23544441787012604 0.27996324506986847
266 5 0.4840150426184674 0.715812844269562 0.9445720038643888
267 5 0.20765673010055963 0.22496857447315244 0.7523518242121985
268 5 0.8418409847167609 0.6212301010588382 0.03136417239429712
269 5 0.23373145537104412 0.9698229464271327 0.5059394901732255
270 5 0.06358020107801432 0.24341086451394212 0.9938961855045402
271 4 0.8310732951560429 0.8766550804767005 0.6566527226817696
272 4 0.6319175436536538 0.4591122604105712 0.08672863283325971
273 4 0.4689198972710026 0.3295499268376568 0.3933816798059977
274 4 0.5171612445854995 0.3093128347065214 0.6871460291606024
275 4 0.09978856249989632 0.0953130283334197 0.22859521210941114
276 4 0.7490242663385975 0.18238541733692404 0.34543169582799316
277 4 0.09879940517835406 0.21966629679691074 0.7385871904561111
278 4 0.25495891462488374 0.18271837348568176 0.1305025347932688
279 4 0.9045429165490438 0.1689981935790389 0.1033172152698244
280 4 0.2752604636867172 0.7781038010353717 0.8044404073635688
281 4 0.1625516878424662 0.6494538899083807 0.4059489543666851
282 4 0.5853378738954881 0.6755643881444606 0.563944624815845
283 4 0.5475454870156077 0.2715600129283914 0.34938664167441646
284 4 0.838597928169706 0.6983768870713347 0.049737832757280276
285 4 0.4030875595047282 0.5533194561398902 0.992548723540832
286 4 0.9430331920675095 0.6269405133314893 0.8787834747553052
287 4 0.7693305841345055 0.7512262395586569 0.060352665963727015
288 4 0.5975903640046524 0.8698402921363536 0.9160656123805752
289 4 0.9322699531237028 0.3636533254985821 0.6387536269649213
290 4 0.12120309318284561 0.1801195594816246 0.18161119154776773
291 4 0.14190337832591615 0.1609461192134254 0.15014322645851386
292 4 0.6215728876214909 0.522155756464185 0.7330941145397888
293 4 0.7541728682830482 0.3504987288601119 0.6551882514654771
294 4 0.2841880080358957 0.5552205583479347 0.031414292273366784
295 4 0.9688524003606457 0.21649388052946839 0.828620956579133
296 4 0.6514157030531162 0.35572462684930506 0.04581839395704579
297 4 0.06001794737072419 0.7135164891258025 0.18858410480875498
298 4 0.9295595456086696 0.7935196405460274 0.7048564190454567
299 4 0.6086315482490429 0.12325825640505972 0.23285716773078025
300 4 0.7768767703296096 0.7312408238886436 0.6023473266973333
301 4 0.6514292399454983 0.26040231142323755 0.5846614669651694
302 4 0.042251484707503395 0.3777047309392807 0.4984165958841149
303 4 0.7421015436123133 0.15746456662797137 0.8823377410764277
304 4 0.7326533203296176 0.624099819766608 0.6198039455643668
305 4 0.13829509431805254 0.635135877101877 0.2673581018155541
306 4 0.36101271352739994 0.20755782154516544 0.10840735663941092
307 4 0.058909025622351896 0.33095795322608723 0.003644781733090574
308 4 0.5441716083263575 0.0588311432590336 0.04011631556368378
309 4 0.7720695600937844 0.7768721563046566 0.20277637514077718
310 4 0.3667019157453091 0.045012160044737404 0.8829274513698994
311 4 0.25217235781458214 0.5554488125365661 0.9842939590251432
312 4 0.6521575038220634 0.5716635506277171 0.789647582314046
313 4 0.17654761634266347 0.4461078982030585 0.08735403383836049
314 4 0.5494729614725744 0.00930585859855304 0.919959771517102
315 4 0.5693829597505919 0.5309697203388053 0.07856041271377034
316 4 0.9333054513565132 0.9893410181196732 0.9563261448489856
317 4 0.1893030204841457 0.37676719577761086 0.26904102988790246
318 4 0.4462584527368999 0.570526429100396 0.5852920724105788
319 4 0.005803976916767928 0.8478372275665106 0.2416913292399665
320 4 0.17729737594848305 0.0963779864782427 0.5239766895906715
321 4 0.5044552464762864 0.00041347653712153765 0.284953403207581
322 4 0.7523479995571071 0.3659530845358754 0.47354547103878286
323 4 0.35228131087340875 0.2499116321846231 0.9929587053110631
324 4 0.0881967928098285 0.2656215894316438 0.5264712072074863
325 4 0.4665119775941252 0.39694836695421154 0.31059324924443654
326 4 0.15830520501350753 0.773761313897187 0.13579105892238053
327 4 0.4001906755989729 0.42928267598701764 0.46575897793682786
328 4 0.3587707786126192 0.36271019936201254 0.1780942665257942
329 4 0.1830808317772279 0.7214982012442924 0.4746235726964475
330 4 0.7658948209584652 0.923051314518083 0.4355164478310378
331 4 0.8326654939544078 0.8510837215486745 0.3907591704540563
332 4 0.7817566589993732 0.6389648143202817 0.7788618729588483
333 4 0.6354072061619479 0.9733709108202299 0.8931315742483112
334 4 0.26485815962672343 0.44084006457154545 0.9304546811428538
335 4 0.44570302555220753 0.8212101435350709 0.8991503724052097
336 4 0.8740625213553463 0.27943872166645456 0.7038213436953044
337 4 0.49755514636476617 0.7897733674213409 0.6667400503901018
338 4 0.5732005702542212 0.27509141803319526 0.7473998086935587
339 4 0.6339660692919289 0.1340523689884946 0.18034787706504785
340 4 0.5960953905687906 0.5825666516157184 0.688515569695126
341 4 0.12690399101267757 0.5612177587040463 0.9559787072296041
342 4 0.4697405562814829 0.847181399562657 0.8220584864168764
343 4 0.7034721101049263 0.7240192038766343 0.907050094726034
344 4 0.8165613793068821 0.7384591691743148 0.6886832713385062
345 4 0.471844240219509 0.7920823448002811 0.46295445295848636
346 4 0.5322948288647618 0.9358866346154413 0.24728671511786227
347 4 0.34767656779126244 0.6650174654782567 0.7996879332107442
348 4 0.8904522251232331 0.3213355792295892 0.25620431236318875
349 4 0.9858932837404554 0.708603574535579 0.07710744628244837
350 4 0.5142512175643451 0.9187989130356973 0.3459051797013445
351 4 0.20575882490000752 0.6722916546169693 0.007812800094346484
352 4 0.3380233756404496 0.22933279343411395 0.8732992683893716
353 4 0.9791081767948253 0.01890678355052222 0.16478085285285238
354 4 0.7084625443300706 0.6456623025461423 0.24143026499395004
355 4 0.04402981621835256 0.5361264894355307 0.456837163149892
356 4 0.8154323376901177 0.11358116737117574 0.2259795123348004
357 4 0.17064496491400194 0.17510899645314337 0.48514430918592366
358 4 0.5798659115933705 0.22255105996302604 0.05191743840130225
359 4 0.7731020747370302 0.6548807628586368 0.04206743981972838
360 4 0.07288566614556491 0.7911999860410355 0.3241705548065188
361 4 0.9210276721443886 0.6126920941043702 0.8104575413618583
362 4 0.7650354043992321 0.6598039649953155 0.3763240742025985
363 4 0.935656959384014 0.7220220000125829 0.630331011635501
364 4 0.027353454571846902 0.5484424292444553 0.07662953662679461
365 4 0.9749035493014616 0.9409973903556024 0.13420889131045155
366 4 0.5892333102612787 0.9747693653336387 0.6535345198064505
367 4 0.49791338571824917 0.6442202773232931 0.7971718131791997
368 4 0.22098266776944542 0.7003849609865453 0.39828417314875153
369 4 0.8844499734603329 0.6196829828953845 0.8218457346687242
370 4 0.5537618258952891 0.8026948823064453 0.0601443179601191
371 4 0.5129608224165361 0.5054047209468844 0.24716952463047714
372 4 0.023439294868759286 0.422017405615825 0.1969565903674747
373 4 0.10704277655969652 0.035738844183605845 0.3235622062552709
374 4 0.38935295981275897 0.6531071540799717 0.16844700919225997
375 4 0.9138695091501402 0.5677831510491279 0.8574132835453155
376 4 0.8832910582071122 0.3673105329369787 0.4293605155861393
377 4 0.7336447960473922 0.9655639092052264 0.9658997566913251
378 4 0.19724981315411716 0.37718948740769465 0.4389693690319363
379 4 0.9867628205626544 0.9788436490130158 0.7710868326887539
380 4 0.9677589340798606 0.854576860782377 0.2078822115042973
381 4 0.3025459851827812 0.4766022783397603 0.11976687099292438
382 4 0.9475407919673243 0.09183169081397469 0.567217936827996
383 4 0.7956201521613138 0.5865056218871161 0.21994084007764636
384 4 0.48169420769901283 0.751810218732263 0.9380056784014191
385 4 0.9939218976146861 0.021825347706748932 0.19471379870831573
386 4 0.3385392416233791 0.09875803437092434 0.21427459700262108
387 4 0.9696716554529708 0.04573775564611893 0.029693281844370478
388 4 0.7122894371471744 0.37006935623214554 0.8146509801939654
389 4 0.8417141705375586 0.22576164663173037 0.3157305069008274
390 4 0.5267690155617569 0.7889178662612217 0.726670537882985
391 4 0.8820220172570082 0.8532815023964204 0.05692394086927899
392 4 0.6897658227199344 0.2427819160164073 0.02258203013438953
393 4 0.8765851623070413 0.9997719308631471 0.8623691844396503
394 4 0.494649889225923 0.6039152328601656 0.5821443783233079
395 4 0.07189504543369363 0.360574042003979 0.7151684581957716
396 4 0.5483723021137344 0.4353871180715454 0.5882339560819093
397 4 0.9793498791500204 0.10498215305545289 0.13905078227374457
398 4 0.15758720743367882 0.1916503035260635 0.36411556727005545
399 4 0.03607292873935275 0.9562160769176026 0.9998198055230896
400 4 0.3152875094554436 0.6765410022304785 0.33989930478290087
401 4 0.93225368367629 0.04115161184438443 0.9365290824878759
402 4 0.44963289772745174 0.9866674271232575 0.25011860002835906
403 4 0.11151166532051537 0.5273259876996107 0.9394295110630058
404 4 0.6129953143207888 0.2729446425503116 0.4142618374241479
405 4 0.6231954404870415 0.5644835645415952 0.6151576706585075
406 4 0.5626686322274916 0.2717731113878513 0.8446857101284078
407 4 0.17538930111911988 0.0030654796726170552 0.1330550560130953
408 4 0.5165913462674178 0.8579376374545165 0.5995721083286443
409 4 0.6515001608686668 0.3436700720901399 0.7941691688377137
410 4 0.48198644323274953 0.4134425652364081 0.9442706553156299
411 4 0.0921616845672446 0.3577408267902791 0.870787528297245
412 4 0.26262199130045205 0.4775154932798551 0.19007162940424938
413 4 0.5440349532274656 0.5981804719682103 0.25140389352401427
414 4 0.778475644354993 0.19213181240061983 0.813987668983957
415 4 0.8802667127602457 0.8671850932207169 0.3585488687104874
416 4 0.028265137430360743 0.4803251147919104 0.477700439325474
417 4 0.20969836259078956 0.459868850682543 0.6355210793356456
418 4 0.37558573094845915 0.9195399596477114 0.5691780109093407
419 4 0.8025308241270425 0.8562598874004487 0.21339289623794688
420 4 0.30756214244625724 0.03661069802846062 0.3536399547207809
421 4 0.5950548551572722 0.6126209100216524 0.9217136317846097
422 4 0.8219693485831185 0.8054412215451733 0.810115226528906
423 4 0.9891906620160287 0.5030765310618458 0.7189260970432927
424 4 0.4359482589075162 0.7581403710781021 0.07659561531677128
425 4 0.28552066415602406 0.9057878415984093 0.7350829046642228
426 4 0.26215234847253754 0.27687130577987995 0.687668404446696
427 4 0.9914432787953107 0.16567180315583907 0.9080847599934568
428 4 0.8857923423311572 0.4432642542059949 0.758824233803256
429 4 0.8302587452236637 0.7905187916516765 0.09771097832014541
430 4 0.9044750796523557 0.8414634047112767 0.18086709990191974
431 4 0.3179949378982234 0.18298674449462216 0.4232095228000273
432 4 0.289195590951111 0.13909878889777283 0.5225201019452459
433 4 0.2926065425230292 0.4180538775808431 0.56493179181298
434 4 0.34342710276848276 0.011651938778365678 0.08866081255493674
435 4 0.41012159585070795 0.7421390877978284 0.2868844757107488
436 4 0.1652023172165834 0.5024744885772753 0.24203298632011183
437 4 0.5234252689406262 0.8995483173465437 0.8234063491543574
438 4 0.5528252198143108 0.09891550941263139 0.8860970103157205
439 4 0.5021069901893231 0.42297192350380375 0.5217529699387491
440 4 0.8250396329777371 0.6326444341263673 0.7764439686501835
441 4 0.6854595333904532 0.6005974849019311 0.8803744494125076
442 4 0.02631697717313708 0.8850796246833519 0.9312049954781886
443 4 0.9779265736939337 0.2503997515608002 0.7872508505722039
444 4 0.15467032225322175 0.5002913796825073 0.014771324044243195
445 4 0.7222153590088511 0.9536366881161958 0.1798469456074514
446 4 0.66112257249015 0.3300419578393695 0.5196871080928449
447 4 0.042748798562158075 0.13583271394747376 0.3415828120377655
448 4 0.024469245147445973 0.5018025148678792 0.303367698586528
449 4 0.2078840063777413 0.44203276185434337 0.05512931080791217
450 4 0.08134087223434439 0.8675768943603763 0.4024114616471086
451 4 0.4429897807361234 0.04912257742525594 0.8589511240981165
452 4 0.16007323695236375 0.9746351197776014 0.15019866608447885
453 4 0.9351188180762269 0.7362204766441998 0.5072109640117088
454 4 0.72727823089747 0.424007955108488 0.13539719728148636
455 4 0.01784320495595315 0.3268378502420093 0.6186875184701152
456 4 0.42484081249375416 0.6040193418413536 0.1121007515794672
457 4 0.19950745956970894 0.49828547393371203 0.8168192716970616
458 4 0.48283274404112375 0.3856021006521486 0.4494803876037996
459 4 0.7140692517279897 0.143542231757249 0.6179287833958109
460 4 0.9343885157053784 0.6576411465472131 0.01419740171007422
461 4 0.4559804772963538 0.8332769526941576 0.6016124139087538
462 4 0.9578356319974839 0.3623917423674836 0.9090313403281085
463 4 0.7920352532048841 0.1920556447205195 0.5538303311600429
464 4 0.8871857496647639 0.32313420734831655 0.655411555061861
465 4 0.7798926908769794 0.9794642271299138 0.4380501885994842
466 4 0.30122098640449646 0.9179685803203549 0.8154314178206045
467 4 0.16988177926260584 0.6691721491824348 0.9729591983318105
468 4 0.4086901491381564 0.42838347087679307 0.6420209476679136
469 4 0.4434672403201956 0.08207789292930223 0.971441927419743