# LAMMPS data file
10000 atoms
5 atom types
0.0 46.4158883361 xlo xhi
0.0 46.4158883361 ylo yhi
0.0 46.4158883361 zlo zhi

Masses

1 1.0
2 1.0
3 1.0
4 1.0
5 1.0

Atoms  # atomic: id tyoe x y z

1 5 33.63527461786524 28.380633398101526 15.868030515659205
2 5 34.47666816448541 26.288457043291043 14.00144323421031
3 5 38.797968169672274 29.715136961406607 44.023798059793805
4 5 9.86081626914106 1.4296259728302037 36.15808791866031
5 5 3.893226987296974 44.86958875596832 19.346973032307993
6 5 24.211133022425432 33.04332191816533 10.00653539934559
7 5 18.895657281111863 43.320740688656 30.934049894294688
8 5 6.839539996677397 18.08798509604842 38.63265807566895
9 5 9.018777469015452 20.59995261608252 6.372478898021866
10 5 2.138701238209089 22.15144755769692 15.110904440830168
11 5 10.102801946780653 10.470806399265623 39.284530813394014
12 5 3.233530366573676 32.723246385677335 23.835326564252902
13 5 24.818951779016526 36.08654783347372 9.689368982404583
14 5 36.33470921161095 26.441459114156004 24.22517362242318
15 5 19.84108312719541 8.934588853827652 3.0584058830823975
16 5 42.79061658477583 18.422376700778837 21.001068916391823
17 5 34.97378900216536 10.765767987616984 38.58737190279479
18 5 42.43818375553984 28.27217977059589 17.974337827286476
19 5 32.44468518081467 11.695316043123384 38.12399178125798
20 5 23.746379635616467 4.504591130369045 38.99972834316341
21 5 38.597963856678874 25.84844566959134 5.597078392146262
22 5 29.551192888627213 14.347231800228379 30.81931046978297
23 5 1.744096068144774 9.895858186881101 31.713063840575828
24 5 10.259872380726483 23.868382827682318 24.596861754563598
25 5 30.1945335972836 15.449413744727556 19.06662024832499
26 5 5.123235420096415 23.18067746259 45.933130385657684
27 5 36.686071588549574 11.346803979894682 34.7162486381071
28 5 18.697728282875786 8.744812779226535 11.656975487570863
29 5 4.002083353103971 3.7732148590159853 14.480521422506856
30 5 2.618970641396694 17.56808732134813 26.80950287651356
31 5 9.866697931083918 36.66933021852619 19.308132133001877
32 5 15.128726464038396 34.98645196210498 32.636249819041446
33 5 6.2896356750403974 24.785736568997734 29.34740444855719
34 5 33.03583977963929 34.54581878209649 19.800821776560667
35 5 19.47038205394537 11.717221510997975 11.515560308740316
36 5 46.101638378606665 30.545263527264037 11.157748936451803
37 5 15.438261719938367 9.676760886445706 9.71292816988662
38 5 25.048017780339507 22.1198621039777 8.999459418564427
39 5 1.5558843836773852 38.88789324108071 24.344930382444616
40 5 42.47182597999885 36.49079881410082 23.76195417181309
41 5 4.50413419582423 36.58732230163516 32.68669781374789
42 5 20.66248114973423 18.506937367755317 42.97171049857261
43 5 10.168603392196252 12.588332185581631 13.272889006766034
44 5 16.542239838439663 30.227391443214536 11.015142000326932
45 5 31.65790052051758 33.98121663995033 2.221149203633785
46 5 24.81750880327433 22.650359435917675 45.198346932349104
47 5 14.590953385174965 28.331413242633577 26.524530648484063
48 5 37.50292537585244 3.336966987289329 41.32153327922224
49 5 11.725564528491681 14.45803732671349 2.0668427664533797
50 5 9.170458882060903 35.36884658666388 11.68518355272121
51 5 42.63521975851024 40.22327049240044 21.956253089844584
52 5 30.13000306927521 20.943941812226182 43.279229350210436
53 5 15.27340975680001 5.974565954789156 45.19625596631577
54 5 29.789341667555444 12.908952422147296 36.513057341559225
55 5 6.402374388060199 22.770726298792635 33.61113463832563
56 5 6.419765254055923 37.14455321276713 37.14482055440274
57 5 19.70385826163057 43.47202977442864 41.34085047285917
58 5 18.656667399249365 20.332342754827973 8.668814859742877
59 5 18.084695643429594 11.325545161166897 25.632263197275044
60 5 8.463838355659586 14.29546250431387 21.13338854622739
61 5 34.67413200570407 21.94318679959198 19.98508490887986
62 5 18.589034053596023 36.10313858853657 43.144569198831576
63 5 22.269536101044718 40.41276203589264 18.675142282519552
64 5 29.46762683661859 15.191803404917396 0.6100214931131044
65 5 5.119006061917652 45.7329326691018 34.23245766379898
66 5 30.729993855095444 39.238858463244874 18.312814222079584
67 5 34.49818388393851 33.938359267389465 12.780579666498806
68 5 37.21706797583953 14.941512326472258 20.231602042717768
69 5 15.989110060301323 0.18506229616767883 34.643195501239205
70 5 2.2217501497156595 13.645283047606629 34.39235889576695
71 5 24.136880962751082 21.603974123038665 28.6660526889621
72 5 7.295976290859377 33.78176986628913 19.58739179550939
73 5 17.65212836529949 40.91291318379232 32.46079720042001
74 5 45.07387055695848 18.154847924119423 45.82314899524409
75 5 3.6527455729704 32.68894020313598 44.01562616254666
76 5 16.205146621678814 35.46306681105223 38.761068398594624
77 5 44.98197187431044 29.800699429391123 30.834610587493433
78 5 45.0737444699366 32.61856552050893 17.754230289797675
79 5 0.19165798153086136 28.545310792499304 26.876275201180317
80 5 27.955958843806393 17.863342075296213 45.180313713299626
81 5 33.247779939378525 26.36136052955995 25.700338063338386
82 5 9.736975877790872 11.847678649776253 21.96191754571202
83 5 17.016644957528158 35.28064567919364 16.453862729645923
84 5 33.86341674127908 29.87529907492933 30.631363188449704
85 5 5.940761034222121 2.424175851176176 36.09862840192552
86 5 42.235999177854374 13.286071423402417 20.777851049097173
87 5 39.95189553901624 45.502817059019286 1.0459381265078362
88 5 13.442275263795906 10.650953021089215 23.127939044577587
89 5 39.34996471441704 35.797603094962675 25.388189776083586
90 5 1.1276554489157344 44.64680111145703 19.868674233402594
91 5 27.94378499654619 44.070776937058426 42.67586211381195
92 5 32.544673414616966 45.669401652675774 34.27345321452427
93 5 25.36092044381127 14.902714452571054 3.313889615879248
94 5 43.632441213961215 10.54789234456871 42.42927032958601
95 5 4.088117519695581 13.684735774515966 39.79437953624822
96 5 5.494770992317379 18.800459223260695 24.338676268114455
97 5 3.1735874951224994 19.189317666310014 19.08166514692373
98 5 27.29631011152424 1.8491302606001698 25.098811140864314
99 5 13.356163852834246 34.579032562656295 37.30645446923364
100 5 14.176667907804088 22.88098637092353 29.7826028517649
101 5 13.237878436107604 30.56698679378742 4.50929612970229
102 5 37.77038802182779 16.701470727275037 27.938298837469702
103 5 7.9274969012722 44.907794335822175 23.48245417552752
104 5 17.07904519079844 11.76774545371345 35.56871849578848
105 5 35.41764364313831 22.429374973801654 30.680824396434307
106 5 18.262795377156152 34.68090469608341 6.160956656887262
107 5 31.925162542338544 46.30052539350925 26.66498747348559
108 5 6.213342293384904 4.016965309391581 6.637143309124483
109 5 10.338686965573588 45.3039823911913 20.8981668269444
110 5 45.139499151006596 22.616801593805338 18.248541185246175
111 5 46.06327798694697 42.54831284009952 13.327953860258365
112 5 9.128734098111883 18.234779015478743 41.3484023995451
113 5 17.34307580130839 19.716534815737692 14.560668597913157
114 5 44.140043531118216 14.304963740230482 2.448955577387569
115 5 11.81704052923476 3.4803506039530983 24.38663778299787
116 5 8.571145859562533 30.26248338768182 23.685029643605276
117 5 7.454046280317197 44.54767890672192 17.360063255972328
118 5 33.86250715393697 9.442289715928233 2.6313425803015473
119 5 44.27866327065049 15.852937876562242 33.5880480746583
120 5 30.1344432330386 23.364892164626603 16.937273414365432
121 5 33.58839558301782 21.830663642386224 22.295140834481106
122 5 9.1871743227567 12.762402034077326 4.722919941722259
123 5 24.4540244962668 36.27238941239593 13.492565084554025
124 5 22.565664842547914 44.25153809384267 7.346997930380199
125 5 11.348508852266818 13.318316953125043 26.445764361409523
126 5 39.608481881433505 15.62024579811067 26.065560072484086
127 5 41.553993450288395 23.324801343877404 26.33133480959469
128 5 43.12804688662441 4.6944390914656715 22.69049014320277
129 5 12.747427346926829 13.089719856015858 1.6843294465590373
130 5 30.70035370729231 0.1721001253682469 10.817850598534493
131 5 22.226629242195862 42.946707033312734 16.15153771498182
132 5 31.17043904072064 39.90636218907659 9.555398845417361
133 5 0.346474792029844 13.349727540064498 30.448223640425958
134 5 1.6683385654142324 3.7627704524152756 16.022579201044294
135 5 17.106130834289893 44.819275347158516 37.945565287741935
136 5 12.674716089453286 42.620846712772966 5.23208210953175
137 5 39.174477275718594 20.82452524500259 41.9139992110716
138 5 28.068974212613327 24.07486298066689 12.429540527628197
139 5 0.07697410562625759 2.5582428427765334 0.6639723479165828
140 5 5.950846521869784 7.5488798595104365 37.056649404317724
141 5 29.797784222029232 10.057934547242214 7.248175536064805
142 5 29.88716062702399 22.57222202344917 27.49370318792557
143 5 24.41571202586327 7.055953349595696 44.39698205409126
144 5 21.907087556155467 0.4842213651758371 33.89758025210116
145 5 9.991931411304549 36.82785773701374 44.67745943831381
146 5 42.46942635189269 20.112874757515538 24.753796493512784
147 5 23.853594652523867 35.02114743392634 38.01662266662221
148 5 38.95237591110499 5.361996663808443 16.459880315492768
149 5 31.150433630540114 28.401408218062812 44.75931082925827
150 5 46.3947906685706 25.872691888312993 31.954967248827387
151 5 5.125228768208611 28.91327332388066 29.36434844097855
152 5 36.50637638500481 13.889836029608519 9.692513486480467
153 5 1.6628927314756141 27.714945429765034 42.66071731257055
154 5 14.334993482983162 39.76358932845823 16.76913166434363
155 5 21.56378188394276 13.414471029910969 3.4479686101961855
156 5 15.000075797903698 12.86158957570228 12.683620245658352
157 5 23.294610041176554 40.537982941442564 23.75864050376394
158 5 30.773491647599744 42.97777321179883 16.575633859353896
159 5 43.247584488337495 35.10865815623643 29.929673786399388
160 5 9.858671097186297 34.055985038948776 41.285350324770214
161 5 13.079519400754048 40.703381908578436 1.568998933962358
162 5 25.75388969847832 40.72336996761317 27.201307434457412
163 5 22.471662350791252 11.80236194871166 16.45752247345352
164 5 43.26971072079946 7.325158730335042 27.345988229282103
165 5 19.571001880464884 1.802851325454728 25.946538045392302
166 5 34.95707279062035 27.853978203847635 45.642718441020904
167 5 44.79035677324848 34.251790687634745 19.276779239068244
168 5 17.106436707810154 9.552125286490856 44.1727722687502
169 5 2.101004511362085 3.9502005256505828 8.39068718475099
170 5 34.7388341018785 27.62895801678655 24.493480086438645
171 5 14.317238028871506 9.34717588752477 5.430114463241699
172 5 6.310264154455292 37.12315539829866 7.467715754264548
173 5 8.850778539592953 18.741291673635693 2.832046935985402
174 5 0.16940720599432205 30.68025940580586 13.72025399196707
175 5 29.28975300479619 32.98826066507118 41.666981522045134
176 5 0.5557990401876965 5.821964243947194 11.83880321499645
177 5 17.151179934461467 31.62417712637385 36.37866785825154
178 5 20.868994135069364 33.135607962845945 20.52569960659074
179 5 15.478050284097023 40.84858062423034 43.10658347727301
180 5 18.176314204884097 43.66031010912444 18.267907822333353
181 5 39.63272399619631 35.53614704093164 43.62779569941112
182 5 13.913607927990764 44.28984927890612 23.85107307152477
183 5 28.48626492532063 25.68175317658389 27.973864658267672
184 5 2.6616822598658705 27.814631040550164 27.076613502485444
185 5 5.157180503013796 2.8862652926398855 39.758253957020784
186 5 7.486517327390818 45.175925322452926 44.07003807817058
187 5 1.4590474051756952 35.52948437825791 10.143125066269606
188 5 15.534314798675979 9.6108596157024 37.49503028326446
189 5 32.41859730269008 7.724648812000074 18.236883326811284
190 5 33.33810452699395 2.7671331435209527 34.355119113567184
191 5 8.785463015145076 33.52436384207378 42.703140857937754
192 5 39.67089437189704 7.279460079783946 5.2713940659059935
193 5 24.792855884526933 30.465523654418284 45.826344299238265
194 5 0.9226121606416643 32.480577602086115 1.5668845257475164
195 5 38.70498913962741 6.246554393033621 4.9149329201604885
196 5 35.95274546336483 1.2117216365308756 13.26690198785914
197 5 42.65037101863792 43.834886421094666 17.573952697561822
198 5 37.0755040717091 8.873827676770725 39.02739514541025
199 5 11.352541955322627 12.151322951755336 11.346548251738957
200 5 30.15166885125922 38.37227786215057 13.361088788639378
201 5 35.48316488881099 13.854567658503637 5.30772200282842
202 5 37.23749424880192 14.927389958449853 32.15682622349205
203 5 13.74965348537397 10.58744735117511 27.0232072513522
204 5 4.684884745592521 12.604129844480836 25.567230522240337
205 5 30.093697069344053 36.367018227951185 25.998069095007
206 5 43.99165568568424 42.99456306788664 32.32378170662542
207 5 19.202563806350003 1.8588879542492989 46.25595120768945
208 5 14.774561337509443 37.814180365416775 37.05863857213631
209 5 8.8293301550205 42.39437642936147 24.062821257779646
210 5 13.434989148821108 5.6569753089182955 32.12330242913671
211 5 23.63966910095683 24.6314025031908 18.627502559909374
212 5 22.86173274597759 18.639189820534273 41.30998662883891
213 5 15.254970638415822 42.50371110688152 26.51220986626226
214 5 16.714074740161116 17.324510045721826 17.29493924673881
215 5 22.28827464491956 33.14728700573863 17.416466210615603
216 5 28.049005874761125 43.868557577769465 16.26421244111303
217 5 17.678270980134535 2.2371510941416437 12.298943990066078
218 5 21.92452412556425 29.743504652859556 39.889195543214306
219 5 45.80443699837174 16.939044423797856 0.4592140618013465
220 5 18.76142991647797 38.76676366946698 14.883897831071998
221 5 29.99079910627129 39.4904887953104 26.74591893439619
222 5 29.928435140650613 9.085474756200965 34.875385730120925
223 5 34.041789627067516 2.5296051233565557 46.00563465916828
224 5 32.12762911088306 32.304551000747175 20.478822882739944
225 5 29.32878791162521 6.357967445002563 24.54980100463412
226 5 15.688510720051598 34.574849422682355 27.405690277361817
227 5 18.84501793410525 34.595143948263726 5.339174712366456
228 5 29.286350016149875 8.74467257183246 44.757819673950316
229 5 9.429108873230078 32.791294118772754 15.787485019590013
230 5 34.11747043948992 45.04350969011304 0.7719192656154811
231 5 23.478945017144877 0.1325919807442374 15.82061094646483
232 5 11.572903060885977 4.281138709748646 1.6690182093151364
233 5 3.749829173073671 23.608782441101777 9.77836767671465
234 5 24.251176812386674 15.233915392087411 25.300002640694064
235 5 38.953455608774966 40.585917770917405 4.553285656328987
236 5 27.56242304788462 14.617298414317204 40.817577517583224
237 5 36.256004666485246 19.358264296955753 2.2771522691496306
238 5 3.025510057467281 12.563249288474841 36.47298018093374
239 5 36.4287058905874 34.820142591369454 24.42095530554136
240 5 32.949138919211734 8.889802497745933 4.897948214785701
241 5 8.960739451172048 44.03220959979046 8.48684076154165
242 5 39.89938065057605 24.580945939789057 31.64581339482619
243 5 37.906295415565666 6.927341818686256 29.868953124229318
244 5 2.4307243378554713 41.47443249978419 29.722768784699685
245 5 36.14902349152188 13.72367992654823 42.60674362321005
246 5 33.25686111422457 31.961873132811416 4.431598855674964
247 5 43.99179203420963 4.1976107041616855 13.972309464323432
248 5 45.07660700831731 31.05418188543944 28.534692170869214
249 5 11.582271229905782 8.274130632161686 9.779729238285979
250 5 6.978322141420877 40.986067743412676 13.056867710015483
251 5 40.14420761589202 28.302120509305176 36.72298764844759
252 5 30.593524539369824 29.167232218203456 32.309030200124695
253 5 33.96519429587728 8.969308362802803 28.789359001781687
254 5 16.982870101412235 17.28182887995085 24.42561813294231
255 5 0.7507547795872678 34.857819323546764 22.32924564750148
256 5 13.954909138498325 33.354688823865814 38.43965253020336
257 5 21.027475773558503 40.59138990330887 30.779951107455016
258 5 17.792688179921864 13.075768554800728 1.2398142521218734
259 5 40.12646731271211 22.019589215075197 42.28176086880014
260 5 25.835638402655913 41.961365315376916 25.64529447018036
261 5 32.64232879374082 32.79502071886517 35.87713864489134
262 5 31.12116816952152 31.698799297595606 10.967393007906743
263 5 13.254191346612595 27.988217464345233 31.760881628390273
264 5 7.379743975978207 17.423199334679627 2.942425048444799
265 5 14.526388245916854 18.921423478855548 0.3254724602258851
266 5 6.832868310275058 15.932520106834344 41.46282247630233
267 5 22.317203806949895 16.123376777075002 29.10065567242779
268 5 45.76423538967475 40.25648644874441 36.98982306415321
269 5 15.620823451623806 19.582944891016805 43.081333840356045
270 5 29.874175790385845 10.982563364021436 1.433570923272799
271 5 5.560290328755893 18.88599992589481 32.33217076593608
272 5 0.34385397342227025 11.206759959478887 43.218074672888974
273 5 40.5915272338966 1.6582609425669386 39.188503149292096
274 5 3.5335422161303236 32.5767926322849 16.598714674650374
275 5 30.000615872395798 5.941694730670721 10.301224021877394
276 5 17.08570141338256 45.56259629199967 34.497399660917466
277 5 21.140504278985382 30.526243013886518 26.12930403814568
278 5 34.68534861742985 29.780725733900773 27.42947937107469
279 5 11.63381251630967 37.20642250915853 39.3006516794917
280 5 20.752657738922093 41.84263675773017 26.54139095422399
281 5 27.556927204145023 8.89103873636872 5.600558169990864
282 5 43.727595280883335 31.378288165795595 10.452453916487523
283 5 34.818868840235176 33.10365706760032 39.48563211310022
284 5 37.45402103498525 25.344990406235684 11.793907276998365
285 5 45.7444806893749 16.56199117535357 22.372193342268478
286 5 0.5178192635095052 17.050062885059447 2.6241028119137146
287 5 30.180472328819572 30.506016961990753 36.081575366459305
288 5 22.03597038512158 41.23545092174715 12.484568731070917
289 5 42.8191160204722 26.696033402230448 45.95820032517211
290 5 8.167453012670867 44.270056465202416 42.971392137154375
291 5 26.649568107868397 1.8070301077570339 45.28667059517642
292 5 37.74455449414407 14.168172247512024 13.198627401233292
293 5 11.28338017135742 42.270020065350636 28.25444234553145
294 5 33.40307363127357 40.201110449207434 39.30886765226733
295 5 24.83679394600509 43.03610910345501 27.50880062892599
296 5 19.221634584259917 33.72130048309827 41.3494050904313
297 5 38.115543101089365 36.30496919453825 45.9706416403099
298 5 43.23755629067454 44.36045257114912 31.533649143776127
299 5 2.297627020532801 39.30755915534688 8.29125176939272
300 5 7.505806239756953 12.357785362194873 34.90899401119064
301 5 19.040003976877866 28.371918918679395 28.08908460139451
302 5 42.642260839746555 28.656857312659298 23.09221047063016
303 5 33.358637566526575 22.793369880728168 1.9402183923625174
304 5 20.929475449011065 0.812993234471757 3.1159814109586343
305 5 36.50720698961585 8.399627098230935 12.024746757256674
306 5 7.042028983239576 25.382728181173224 41.203060827606436
307 5 27.1338241976296 30.125054163916715 31.09379632480816
308 5 43.445330351500516 2.1135332370632374 18.96151029915123
309 5 13.818928241215039 11.26074062237584 0.4359477256791863
310 5 15.555949617702307 15.746044342710727 43.749174612394334
311 5 36.81150060120366 15.439886611756092 4.350808255772173
312 5 31.00824165896737 40.70395497622372 35.939626889031715
313 5 38.87178412300565 22.793376830816772 20.158852980433775
314 5 3.7739054183944845 22.955670350885317 36.78217883843391
315 5 25.02233122906054 35.55235027354987 7.4263317264306
316 5 25.809239148666798 11.534630338433397 23.07858103760048
317 5 34.06323869663648 38.30996432884083 26.30093646300526
318 5 1.8549047201635476 44.8179340300599 21.06543961916196
319 5 38.305543059635475 6.993297533370369 38.64669981403259
320 5 15.077517659412688 7.891705696837051 2.5904708643125116
321 5 21.21064101890794 24.3651982509661 6.947275642635841
322 5 4.799796352176379 0.2823309642060451 37.189801995896445
323 5 9.294651129193388 41.2242778726222 19.588789950642735
324 5 5.899222908267961 41.079755134965794 33.69169856817513
325 5 43.60652330721736 22.560295558454342 24.695553424233076
326 5 0.1963341862915274 4.945643425319448 12.724522306430892
327 5 0.6606192656382139 26.337503620247 15.81942882614696
328 5 25.52175819177458 45.60002141755645 30.60612437088307
329 5 18.06735924417753 6.262465529982625 27.75890397752861
330 5 29.82843514903005 6.316450754333704 2.755295617785753
331 5 9.883262596541618 17.369253507439666 11.161695357869265
332 5 14.459118139796187 10.320063149004511 31.592884005071493
333 5 11.109253413098342 17.76534763756784 5.595599809437275
334 5 1.363839066971247 16.645240334686818 8.201281202079738
335 5 37.78950561370822 28.64387429883846 19.45553382350138
336 5 19.48017693050246 5.078091584670251 1.3453735383691006
337 5 4.242072715449926 37.34038047757895 9.860763104713149
338 5 34.90948654849706 46.264330683867314 25.846359802351696
339 5 41.72411262849045 35.48727514740019 29.868919122866313
340 5 19.832956516693887 28.483634092087836 40.50668958629942
341 5 19.62513312967665 44.85030768436865 13.9053999891677
342 5 24.019804087127216 3.652126158319414 8.65441506141579
343 5 27.4238189660378 10.379383129698558 12.32477798162163
344 5 6.715846919318602 22.052202855536805 44.67136340602246
345 5 5.111726102129642 4.124749433138227 26.04077744677844
346 5 29.96848661766349 25.427779183814444 32.695453332496825
347 5 27.329511242371538 27.419778648869237 15.045519992686778
348 5 45.72928466435911 28.09234101587261 40.038190133964875
349 5 9.248887639628487 3.9994849671305395 43.08328080736593
350 5 32.0206854270803 45.26522924053745 0.06282753079547795
351 5 4.786864663051261 24.956388790187493 1.3963459770498323
352 5 26.02029832521366 4.312955792003913 29.625332729255376
353 5 44.31750167282079 5.756226646359243 42.35560773323214
354 5 21.300510796908913 10.438413709077734 10.506392187523224
355 5 36.5722462003331 43.12995813418895 27.93070564850624
356 5 14.892831854858601 20.093225272235184 14.804033131242994
357 5 32.54748177478459 38.040819542132965 43.70779832715709
358 5 28.063690403766845 38.75619922236227 32.07213731809573
359 5 40.79432345668449 37.07454788681218 8.536906878843418
360 5 25.798209249998784 12.023608283852548 39.731728807657205
361 5 25.65350339527229 14.877010799907023 35.14213357047271
362 5 0.22541157949095803 7.5244379917832465 18.743613075910798
363 5 5.674797338190606 4.4625786229526225 21.168061134393696
364 5 38.26564618794426 14.817201037594188 11.803859104376862
365 5 7.388769124357864 20.00773327923747 12.156946380142577
366 5 18.711046596101493 15.680499780053319 17.149646839503117
367 5 38.062065471814336 27.595129498132682 16.21323025882367
368 5 40.87092148090364 32.37392276530856 0.3511999677013631
369 5 13.23398241511256 27.712598366140185 29.012395220397106
370 5 41.42564078387519 28.443654313641268 17.924911571257272
371 5 38.21661761616839 5.326270333114769 16.193734233448655
372 5 11.27020541689512 40.98308017205407 8.775724715131203
373 5 16.563576836945998 44.51171967157981 35.97561669727298
374 5 21.14857300259547 34.58439299349046 3.1068730839766387
375 5 10.8778020818617 13.669871661963688 33.99938754209089
376 5 44.119270508158166 25.77898648853953 35.30134675236343
377 5 26.35889953793645 37.31973992612663 29.21929705565906
378 5 38.32210228227109 29.17669109562617 35.278627242925765
379 5 17.57937774202391 21.86316341403246 43.2285068428306
380 5 17.50971407252414 22.074900491170965 10.27025500496296
381 5 12.818719094792744 7.647981647212606 14.886033305738609
382 5 25.520296283539714 11.559519710062983 6.34378668991397
383 5 17.69831487215944 30.69514922673759 25.622308369766902
384 5 27.049032762615198 44.60498038888044 28.170059138179926
385 5 5.8912216466410365 25.669209196318164 11.729585693735158
386 5 1.9490083999129246 39.50666234799911 31.35008030784261
387 5 25.91483956852743 9.140368390620658 38.490247918348906
388 5 31.514456073260252 18.501828676007342 33.94129054566872
389 5 37.479515437693244 0.05342962110031905 43.33575319760755
390 5 23.095363084632982 2.60434090181157 41.605058888625855
391 5 28.11317978807361 38.8287846825827 28.21017771527
392 5 32.03468196449955 9.196288817546591 13.139104285443995
393 5 39.34015603076305 13.32342831850667 18.150605183594593
394 5 7.488076638808344 28.385561392532203 23.69282746826462
395 5 34.41420477172112 20.68126535868552 15.581489658277203
396 5 33.34218857884263 7.844820846803432 25.87643270383717
397 5 11.153278444662387 2.283805858809986 45.10991549273542
398 5 29.89841740962949 7.9597325748774095 38.49553420847784
399 5 41.303953605461246 39.99708356979596 20.538657697555326
400 5 23.82308202501159 33.12251515245532 45.11813023589349
401 5 15.826289962446483 19.025674383647967 41.12986009408942
402 5 45.707662694989736 28.4351898448043 4.218578430671804
403 5 5.911003232107143 1.4437699034248783 39.06290056341698
404 5 35.899352673987735 36.25326726157334 13.357965256185674
405 5 36.26345686160766 23.901128063881554 5.251025371226708
406 5 38.37017668144658 30.88014275384883 6.660799379994123
407 5 44.733210139928076 39.90036521725354 2.3647022677424823
408 5 17.00333370018433 8.936095090972858 23.21989698787352
409 5 31.732403917848558 22.161238359458327 4.219282309996744
410 5 24.541621054355385 24.488500038841014 13.63782775274385
411 5 25.32388509336379 28.535230142230372 9.20673578807713
412 5 33.410173063926706 26.709445016795605 25.18677225994376
413 5 16.244867970300774 12.652286335537031 43.16237449659543
414 5 15.867919736787053 22.799886067852878 29.470986318182398
415 5 22.530935553456896 5.066960955675003 25.296434281705825
416 5 22.862443757914278 28.926888000179584 9.288006578538068
417 5 39.76428928368954 0.5063462452377036 20.457372796742302
418 5 10.423712306566948 1.2387395216479307 44.49875599409819
419 5 35.3126192128658 35.67733722403564 16.62374615417603
420 5 13.389233168536324 16.35015403866415 17.680760939021408
421 5 39.40506687561512 24.96764711232604 34.56187952358532
422 5 10.064002797688829 9.737239101506148 23.09349902667258
423 5 5.686909779907658 0.982190536784576 6.483299236951125
424 5 44.54782680177718 34.26427297552398 26.670137609035773
425 5 27.571760630647024 43.39999189191169 27.876203617720357
426 5 30.77359659424577 38.526121208612786 14.644901349531683
427 5 27.37353322244127 20.93523550344649 6.958596418133498
428 5 5.610334754423734 43.86613804980069 22.348945961146644
429 5 41.99653526845872 30.773222296623402 21.20075879114783
430 5 14.978101946830755 4.545828966962493 42.55010234170714
431 5 13.601173746122452 44.95337806183567 1.3058869712408223
432 5 0.7630058132959147 34.82874942390927 10.48152460000065
433 5 14.281407459869756 20.894170845646453 3.372047572868628
434 5 34.56473975511399 14.494072296556672 38.19473800754128
435 5 24.203929772636634 31.677927377340183 23.78323923633151
436 5 34.403916788486654 7.900292154008482 40.01130344854634
437 5 39.161398852281124 17.738240231739034 33.51381617488819
438 5 11.717079482978559 30.077561807939915 22.39666506038183
439 5 21.71660372667245 39.30760327403818 10.338557361163055
440 5 35.74008435123556 8.122995810945936 45.247890778884056
441 5 27.712833540396414 23.074446308932064 44.079528927256966
442 5 15.68193329812507 11.650871811360505 24.169089459277
443 5 39.677361728631155 39.16251998014376 37.92448602344792
444 5 3.9093234529304475 5.959183312580012 19.17216400023268
445 5 9.2464491528349 6.892015779657369 37.352018351605835
446 5 24.468020735493013 37.44749319154393 4.524408907908416
447 5 1.700854354045155 4.937114532960241 3.632693755836877
448 5 11.827998864606739 44.83241584036053 23.720757144116508
449 5 14.179731457793814 17.62327829134734 18.545390465191044
450 5 32.81779124542992 37.78086924781921 26.678620346923005
451 5 29.740945205879303 9.591185463562505 0.4217568750974574
452 5 36.714413517553524 5.824946580628207 26.323048039166785
453 5 10.780154516886133 20.525510243155274 7.103931576573113
454 5 13.675579470434862 33.083929512799074 18.426724883092042
455 5 33.23219584447845 25.50169675248045 4.613486959848483
456 5 5.323350871623232 12.050727998920154 13.121901801409592
457 5 44.01460794843994 26.611722224553226 24.23478544902762
458 5 23.85093393879323 23.40577409009916 31.528528030292264
459 5 41.78878163161062 7.853452550545908 15.58635759463804
460 5 14.396034132857112 14.014172713203001 6.828000964775878
461 5 32.5203405683322 2.0453516656050588 6.329956729708999
462 5 5.0419743757494295 4.189695364249423 25.97572717997596
463 5 22.768771767803827 2.6360662266601 9.838898836910378
464 5 12.301495519421175 17.643814054459806 38.15625082477447
465 5 40.79706557513747 13.927834469393972 17.685973571312793
466 5 27.45326357680127 1.7717966590143774 9.237894219338882
467 5 10.298803482348815 36.35571255001285 43.729413411991324
468 5 20.375087484560545 31.024608843618523 3.4194909899121524
469 5 12.618363823398736 33.08063213006442 13.117223852337972
470 5 0.4173692715964784 26.40233012292986 9.015443713948049
471 5 14.766898593201173 31.59435696811895 2.984098708584578
472 5 4.012320007992372 43.32575697654123 4.768115520827729
473 5 4.565306258685491 28.858815135903892 44.48700838846746
474 5 36.83192235648557 28.231863833622832 21.00243842344825
475 5 14.387147977432193 39.468379437536655 4.929123011954422
476 5 2.8252749033808064 32.85001464115663 33.07653322869617
477 5 35.638973498851286 35.1582544365855 9.236440976211208
478 5 37.84071568045971 7.498977608229089 5.823467710793851
479 5 28.389035079051396 30.90307324416835 21.63440093823017
480 5 29.133429119505312 4.685893850606119 28.263709760692826
481 5 26.986047100310593 2.399600896974908 36.54703006009709
482 5 36.64831395658962 25.136636306381554 28.124087815168508
483 5 15.88706622492954 1.4681732538549432 30.16386705365828
484 5 31.167792849960254 27.914165861862333 36.91266213376145
485 5 36.56044325720838 0.4569308703222092 5.74861904058254
486 5 21.93390428352671 35.631844065384044 27.790904292609177
487 5 37.31443640189655 15.914882319484438 32.00834372854616
488 5 3.762145502803435 35.010773525485575 35.01846635739566