# LAMMPS data file
50688 atoms
5 atom types
0.0 79.732439473 xlo xhi
0.0 79.732439473 ylo yhi
0.0 79.732439473 zlo zhi

Atoms  # atomic: id tyoe x y z

1 5 60.585602300108036 63.167649402125846 11.116647507418904
2 5 25.13222558558546 37.50744900414308 21.640393433854733
3 5 15.185099997896552 63.39924873468169 55.05831560850626
4 5 43.75710761682276 16.889866377661264 40.59410159327931
5 5 45.929717023648614 53.908615351259755 78.89456013690861
6 5 24.81639248531435 41.87752670895757 6.33972370647052
7 5 72.8985013738238 0.3988527618547741 31.61567061517431
8 5 12.560631171292693 78.2872601825116 73.93232428047516
9 5 25.388208831472355 74.4681418173812 48.47933293704766
10 5 21.869816203127417 78.49489849940191 75.00377618994919
11 5 48.13576096797293 22.454805531678563 62.44262716169396
12 5 33.93042605004668 59.73659080723404 38.714872998759276
13 5 65.4299178384929 75.1674570120771 1.6513051887564842
14 5 12.076970188694444 8.168058455698734 33.79570795998556
15 5 3.619734141118835 50.59107101255021 63.41661820181336
16 5 16.11343518410226 27.768897935154264 61.16042406712132
17 5 13.742024511858233 10.664095573353213 29.10176559313502
18 5 13.844615061768282 6.084158686235665 60.34410787066912
19 5 74.25736424634277 7.6483144374621945 45.01201974295603
20 5 17.87878002952132 53.37659684621227 45.54252869784362
21 5 8.674988058112964 44.844088662878626 29.907117239210464
22 5 45.63039162466248 64.40236939307775 38.21410312905108
23 5 69.75643162623399 3.1021081496984215 1.1058803865984137
24 5 9.180635963416341 60.92685418856816 41.93613079413286
25 5 1.8429769613722207 15.744107056210911 30.829889067851802
26 5 35.49967291536953 1.4961169970344022 76.68698047710454
27 5 19.886035458877497 27.183075414279294 51.69038409981046
28 5 26.316224918965762 42.64507702021605 60.89243064652268
29 5 68.01969106037083 13.179220948415788 16.60128607616827
30 5 28.897448274686244 19.60169195468776 63.40879543885478
31 5 58.90918449934357 31.47316197535572 4.877804672141594
32 5 35.70292534804392 11.239984902184172 62.93766716024791
33 5 49.70637254841011 49.07081769697814 69.54308742247633
34 5 19.999481564155737 62.410625259556355 59.88481154964869
35 5 37.889948435046826 63.19493400456085 21.62748967250033
36 5 1.1193479170105816 10.921889331135047 49.18711138758172
37 5 33.06695041521057 3.1666481865276395 33.59330753739482
38 5 20.85667549094439 67.9880080809455 20.187505778823287
39 5 34.66603382635976 51.9940190361496 14.71521133389502
40 5 57.392830758296036 32.298096972320224 6.0058685719964595
41 5 14.09789898930466 22.35969221726981 76.59075636945553
42 5 33.997721751672785 4.06867881099218 61.808334852512424
43 5 45.51155123571005 78.49630171351933 5.154471278417946
44 5 5.434449129943379 72.10980731682145 76.61024868806638
45 5 18.15758718889052 39.92198294015686 34.82456461790616
46 5 43.91794810369323 7.745417065978411 19.181444241080346
47 5 33.53871503139217 60.677120747595104 53.13661429390763
48 5 7.703994485032644 11.739436705509217 66.31997793212128
49 5 66.55633484683293 34.472455690614225 31.03488874521973
50 5 69.15498944279166 0.6545320423502189 51.910463587211254
51 5 72.7590992957767 25.758046063164947 18.701707151397823
52 5 42.57480479012106 59.77607393807577 78.8317566739998
53 5 47.048817122045286 32.7316495879622 43.89579501786412
54 5 64.10657198515888 5.605906657802157 6.151000383780701
55 5 19.218769053828808 70.60078877767037 54.47013018404341
56 5 8.773393440481566 24.1806853165419 26.51826982608035
57 5 21.28358472404738 41.772710436019544 44.77925401998565
58 5 78.76444791877414 52.23634030427272 39.36869253033167
59 5 17.916096995755787 23.09858029231301 58.15103894252299
60 5 30.29564420689047 50.17816820157612 68.1903978519843
61 5 49.45689173129399 65.69243191133211 9.08346258170877
62 5 13.563000017792204 9.629088950229631 4.378274200144962
63 5 35.08584411280657 50.57183552080002 64.73028213541451
64 5 14.333656507408017 58.42774503320057 14.141026850147583
65 5 17.53738370478399 35.07546983103394 43.24518921886
66 5 66.52134487038333 65.94928274470116 17.571253648316922
67 5 74.09455491544487 36.372161494571635 56.131182962204235
68 5 18.449206912136624 74.3136560897716 10.574651503330736
69 5 63.22414751178151 47.98250660868145 69.34078672104998
70 5 73.98992396430835 35.60866473235375 9.850243775393073
71 5 59.714359562585244 37.846016200755805 2.2245638126033698
72 5 29.99186927975872 29.217221343466598 26.50199365446535
73 5 67.01835445176914 73.73067788730727 52.38065383458292
74 5 38.93376191720626 14.80542771166811 37.39038286489757
75 5 13.34921341585873 6.578549812208772 3.0519764757370167
76 5 39.69467482448607 50.4132931706379 46.25554016684388
77 5 32.239295556840716 78.89022037039433 6.80787989662847
78 5 51.35840197513832 29.393843738645252 51.6481301510398
79 5 6.803831558306105 60.63428824940676 16.767108192800315
80 5 39.189776955663504 49.317985830681835 40.47578890742198
81 5 27.618193442691375 77.4867065886176 14.24089821562275
82 5 15.4417456048104 74.58028228408045 61.74614862365679
83 5 45.350511962952254 49.62320141092221 77.99682906776032
84 5 17.262351720870555 19.9796184903307 77.80842528298973
85 5 68.0868403279778 48.443862287728564 45.83453169250624
86 5 3.500087819339597 55.422951654307994 36.52100559382218
87 5 35.24743286928445 25.75591201957275 59.975487284934815
88 5 49.22224304036154 57.583192589474415 70.51146343857782
89 5 16.653318352955463 36.15313109179474 67.0339630271542
90 5 2.7936338977085864 66.21642227798947 0.5890568383393059
91 5 52.466838511246316 0.7506342030649408 38.187001491000146
92 5 31.265934577823217 22.53064472576716 14.696916455835659
93 5 50.54347192121846 7.176695857665173 20.597319167002986
94 5 10.328207925137214 43.59494817356468 33.36852270415387
95 5 70.13848635241457 14.250878943234296 0.6852736265726106
96 5 10.243226509985387 12.345938676772908 60.003252426137045
97 5 72.99614937821495 36.24548073494358 34.73336683681411
98 5 68.2832352781315 56.85161174795739 18.92448575484131
99 5 3.8647732055633655 69.08183661093605 77.58465687609436
100 5 25.683776263217215 42.70473747637985 45.980004562955024
101 5 7.224111781703911 55.69807168540843 61.328242885525626
102 5 42.95218275999538 27.13002060574658 66.56743191362986
103 5 47.51956787221107 37.4334179024049 26.07071943840022
104 5 33.33486368895576 35.51620162902674 22.013474255663898
105 5 68.16996633322765 34.39017696102387 32.156703413607936
106 5 13.039727885094962 54.68439353495534 68.57762921295006
107 5 43.4548741551762 51.78213004124443 29.895565374739927
108 5 74.12982101716995 39.63437599517332 12.26566286627342
109 5 37.0757080391954 32.657765003188146 39.38359384441382
110 5 30.60762719434246 9.571700879682853 49.412639223704666
111 5 45.67467188628703 69.7031540765534 70.27825942445772
112 5 33.52946892383838 6.254194394874604 67.09724246669919
113 5 63.4440602914324 41.11127006003126 57.01381862364734
114 5 45.18740351144295 78.78488895743132 66.27381293684054
115 5 0.5884443663324426 24.328945196702243 15.860999780890115
116 5 38.71825257378229 36.26684955513902 59.92743203036799
117 5 51.92777872653295 33.38268000420799 21.099864447535133
118 5 58.169363949224746 3.2239705423532032 51.28670095532094
119 5 56.612829169817815 15.890592990218856 0.6636529109792076
120 5 75.91600026633726 15.054186589786797 38.847765167109
121 5 7.3047516927072875 15.775012519137881 35.44262169294318
122 5 46.90441535124505 28.12618902167031 20.596366804113433
123 5 38.15430676999647 77.87590881352533 65.69322392601727
124 5 72.6405745073016 42.35449199899844 71.88852315635911
125 5 51.572846815934675 36.866373433368835 66.5234628020748
126 5 22.76653412476155 34.76295034048657 21.26314807479528
127 5 72.64459301044371 36.393879994816906 5.128431469614092
128 5 40.924797379397134 6.217878297273914 40.014471096863524
129 5 59.66567313109506 60.28630492866602 11.169315034278306
130 5 9.788076828561497 10.134606158565923 63.23857391156987
131 5 59.28305237673529 57.76431901529782 54.74304835596466
132 5 2.0138407969017202 11.623093969749183 13.715345661541065
133 5 68.43715316779222 68.25613180361366 26.881584442277457
134 5 25.642124740774275 8.721992050661418 78.2483431337714
135 5 41.29825151747768 9.579781712425785 74.00383325853682
136 5 16.493760295691377 51.06992172086712 17.77226914901405
137 5 33.91254590957626 13.74244764278352 22.856364893421556
138 5 32.40764393674654 23.50486988963165 24.252464086156042
139 5 1.5656798095825366 46.61211511368508 52.613078846843656
140 5 27.088195612852378 78.35003278558285 77.4130475628341
141 5 76.0241036941197 56.84892426253727 74.9831380962409
142 5 18.79636323272907 77.44593361641387 16.367746528032335
143 5 53.578428578193495 23.614481243952145 75.34966441362167
144 5 19.447614117719418 61.682787435199735 39.58143010707821
145 5 56.8508157045531 22.032292670138432 5.132457809150767
146 5 66.11920663482037 67.13591070880283 9.740406096720662
147 5 52.43523159245922 52.29264773603637 75.28366978349217
148 5 20.300418966894767 14.705499661320749 12.423232768394506
149 5 72.4716742960506 25.985964116075397 65.94847571043552
150 5 38.941268302252375 21.95472706227948 75.1197454624372
151 5 78.94330964321685 37.56657761324285 15.409971266674173
152 5 60.9178954203488 79.69577305887694 12.839403595713991
153 5 63.38488483002457 18.41207643179693 12.908528918803013
154 5 4.978407576527453 59.60772340472222 42.83859782876702
155 5 42.42443004310985 36.84385236124435 47.213997807578956
156 5 43.47690811164352 53.75556446693456 11.972426959155477
157 5 13.455525328040295 39.48319985661952 42.763112134671225
158 5 49.132569296237065 40.47181670671289 1.034533642504773
159 5 47.35233568659276 22.49531442639984 4.6952911861452264
160 5 5.332005542261584 59.965727848855806 31.100580005795752
161 5 9.265854621239091 1.0535497755610228 37.538138469586194
162 5 24.917677977557386 73.47800843056969 1.396778770194624
163 5 68.00243635086666 19.75462923249195 41.93697979436769
164 5 20.097136977120716 29.260500302660528 32.493837424754275
165 5 56.71829495431764 24.505010358070493 70.45157073704598
166 5 44.216593702561426 0.5936677076189614 36.026085453936304
167 5 48.88395576679611 75.69381610982641 22.936455196342447
168 5 21.172154038250316 12.327602308119344 51.1968608486926
169 5 39.53699225249855 72.62751926044248 72.89130358490235
170 5 16.245591620682596 39.417956734037105 1.008403699271467
171 5 44.83157176318973 10.89999811010343 0.5384478767669044
172 5 74.14933973146006 74.55010480491076 62.83799041091428
173 5 47.084053474076924 10.113430564457282 30.82467728676389
174 5 2.4786906993528275 47.70975377787125 76.65052454697883
175 5 19.594274010137003 49.45623575272058 6.283215101198652
176 5 51.54233078319078 32.07463107305215 29.758910131241514
177 5 71.9243603595549 49.367415246771195 33.73103280060821
178 5 64.31543263309858 33.46044961215416 65.08157260217847
179 5 9.95003368519088 67.05539395658501 5.841633046276879
180 5 57.42500932434516 41.63244057755861 65.38383444971369
181 5 66.00979555637656 15.178973737032107 73.26650482172595
182 5 55.75249824978558 26.012769738762984 47.44159726087673
183 5 17.910795884787294 47.47572259137817 52.63013906884691
184 5 64.53074566478413 16.989754542983146 69.74815602642018
185 5 66.83056522859594 36.33188555635232 78.37684372433486
186 5 21.158307350027524 73.7272306967958 6.8926148281204815
187 5 55.34455629130671 70.85388744777978 66.47630694798086
188 5 38.909903390863235 74.6790401278559 47.392976998821155
189 5 46.844100980998945 11.552956838147793 8.361858149605887
190 5 73.16018588167037 32.432300037129124 68.56879462573202
191 5 15.140975197683659 78.71437380501717 26.915339102120512
192 5 50.89860610005527 16.57036739186174 55.69836236490504
193 5 64.68896387467628 47.144892952993764 41.91977609926165
194 5 16.81455030614331 66.71306736257155 13.27038583548229
195 5 30.93043962218568 15.092557258370997 77.91536496069823
196 5 53.56738955674069 18.214539816214934 72.92783158651879
197 5 43.54240750921684 26.176042871799957 31.602358743977785
198 5 16.44358018712942 11.830640965262722 55.07009491220932
199 5 72.51294351212142 62.59556399508078 2.8206186333162604
200 5 47.19998949057683 3.7334063895276635 13.82251071535918
201 5 40.37593683831791 67.88624527683405 65.57935240907454
202 5 60.57264949706923 31.951599239189267 74.74500379983833
203 5 24.666615807983085 53.076217487800236 38.78765528924935
204 5 19.786477842368782 55.29130261018156 23.30794629954231
205 5 75.05041222448072 21.888449867161736 75.41718439355188
206 5 24.52286001074876 47.19026635262387 61.598474630249065
207 5 34.60976950496801 20.442640298924545 68.1041027556936
208 5 63.36767052348327 6.891818794220243 18.282948086005902
209 5 16.459715319252624 62.99352539801346 6.799431333402581
210 5 46.7686872136454 32.081492262203945 32.00742794838548
211 5 35.2278458010063 65.3193905101532 21.474946447880342
212 5 58.658921876794494 48.39722146847817 13.723288407942059
213 5 34.269205855772505 63.13162332956429 12.664139292682846
214 5 13.803248904455058 70.24651962606752 71.22977534986771
215 5 7.130702297640759 25.39023933974374 59.87808063581611
216 5 23.534693543767396 42.46028374328437 69.18385492694235
217 5 66.95385625857223 59.70589328672091 61.21504293293985
218 5 31.586610747105187 64.44995511699591 23.987283750399733
219 5 18.724423004732355 8.13629108544945 59.13793383748924
220 5 68.44687998057603 10.350744631271468 15.971799760683787
221 5 15.496202472099137 5.013456545896444 37.66002791663961
222 5 3.3046882306552625 4.514714083135381 9.223765268053658
223 5 72.73310386636223 11.981235770127753 23.99163490371257
224 5 46.77199475148205 28.924092800615714 46.39196843580934
225 5 33.96638792958584 46.87158775384848 5.966420589014509
226 5 74.96387698948978 78.33594799058434 61.03793613915253
227 5 31.193530355723855 35.99780519046661 69.3685507781977
228 5 73.41260182678238 59.83917653654662 17.609477527957576
229 5 32.683574537863166 46.54579978835714 24.48240783308113
230 5 71.35025957368858 68.62434549028028 53.17807349771843
231 5 30.2946390229086 21.28566113662684 24.36178770053917
232 5 1.7303982187530107 18.033264178674944 61.90232567339264
233 5 68.30857512257978 0.5627940066610126 52.47410302396826
234 5 73.54981155743054 5.843087173550025 61.01795760594655
235 5 22.914866166640667 68.91669227258176 63.282462465211985
236 5 39.46431428042041 38.365037501218325 30.71074250947903
237 5 31.989969284653313 57.68092662144245 77.43056375225302
238 5 30.11246403034919 49.178949165627806 62.498798798024794
239 5 33.54017613180363 39.305575977927155 35.844570340047454
240 5 26.230160123096184 47.45316949607723 54.161586305247006
241 5 49.80370407047871 0.3321532344596888 22.575692947974165
242 5 59.32910612294595 10.4898495040643 77.15015661692135
243 5 72.36810964850771 66.63218237541642 69.11234180014992
244 5 1.2585519361089608 33.39291131537213 70.25595471373639
245 5 8.209508674932728 43.66908912107489 16.55668986429364
246 5 47.218404353909385 4.4498482761331255 74.60161775884713
247 5 79.36360538051217 30.189030742897856 7.377888921668447
248 5 69.57669402448936 14.767091226298387 11.36045694879907
249 5 53.84578623775442 28.723130024255536 78.42844015165112
250 5 67.70721545106923 1.8932454453717995 79.54788749280293
251 5 75.07210129885732 54.22225500410567 25.032218440436516
252 5 59.55320438940127 58.31761746494979 40.865386662680315
253 5 33.96306989456012 34.482638900826274 1.165800133052333
254 5 59.6538318248376 65.76743023877425 24.272367689388183
255 5 35.55474822609374 26.0002576399976 36.128463647546084
256 5 3.7470346326116903 38.33105469367032 16.916715546878198
257 5 73.18076474017207 58.63327306930347 2.7948285317833492
258 5 5.464172145169345 77.67745510663482 49.358569643554205
259 5 64.20409049560625 21.35786115927632 51.74408122467565
260 5 49.37255132664656 42.48690085638919 17.395313452099106
261 5 53.82292679595862 59.770252786329294 66.07463943895831
262 5 35.3291679950634 26.87617020938841 58.66065232375666
263 5 59.756782628461245 19.50076079375393 53.11039457799225
264 5 18.935359342259986 37.047645636848195 36.09697461163839
265 5 10.928447709034444 69.556785648171 58.853702900641295
266 5 60.4699511828043 79.53121225812461 46.33740766224411
267 5 50.191494586324296 22.02787729792016 74.93992972499191
268 5 58.00138267667485 16.5400541383898 32.097684679501576
269 5 40.8700420895389 29.17830958880478 18.05796013419175
270 5 22.477061563510308 28.80531453735717 50.086698169104146
271 5 18.36381851565374 17.95060744001665 49.38236212922126
272 5 73.89652679317612 21.73835342219912 19.922674006578415
273 5 75.32512521338745 31.331741653033134 52.85778032286164
274 5 45.64782994253531 14.39182534986326 72.89606565495706
275 5 69.79242763118548 78.75809368662843 68.05925290994209
276 5 66.20547057315675 29.951439943614012 27.06353965115436
277 5 39.80828982716176 65.45948607523145 64.95604158018362
278 5 46.62035213571835 52.26332015364212 40.83356262605309
279 5 55.795706657983786 9.737460022128129 8.954074408843653
280 5 30.77265342385904 15.318436836176593 76.34503569658574
281 5 35.65583655156644 32.23118271643013 61.06982553847156
282 5 72.13950139563201 71.3200073538494 30.9357698556558
283 5 64.1930194999461 76.64736986560435 36.24299982454385
284 5 57.97899073180205 46.30385019910468 55.68487707030311
285 5 35.94283677792743 1.8942535641475546 44.74160848231327
286 5 0.8328134613045299 34.740543414297036 44.66104991017107
287 5 52.37942730767237 51.78486013874364 41.17869414648947
288 5 65.59029257774976 40.32759045602931 12.460255127662075
289 5 20.748389519083098 73.81417167251307 3.3099278099210787
290 5 10.497793727291272 61.73698381276223 69.0854966633602
291 5 47.24287082788342 17.20309609480902 19.678710363106177
292 5 48.895251979886346 9.10949571962839 38.094797287364116
293 5 63.65052662237301 50.18471105072503 34.83383963032358
294 5 22.319327403585213 16.513881498810225 74.05911426045361
295 5 12.91935070949323 67.28662725137917 55.85298933463932
296 5 69.96921802619268 2.435899844371732 20.34686453792877
297 5 47.76542714622986 74.4473730857317 26.28917692897819
298 5 72.99037642248851 56.88096828849767 41.240021098081385
299 5 65.00035325289963 14.852527089385056 48.60141790189228
300 5 2.7500754544755233 27.434755481239428 1.4897321556400143
301 5 56.87760258197506 8.20723709183197 43.16495493501595
302 5 25.262084018442962 59.484617294225366 11.639392178370814
303 5 52.03179012644347 22.00936486134392 35.95914518547348
304 5 68.41877553333514 70.92272095520087 51.77821171451041
305 5 9.44230722955695 9.243706128347851 45.10662294364804
306 5 12.402564443577571 78.68707501114535 55.715912148878566
307 5 29.679602107573512 10.033869719535673 34.168741524826935
308 5 59.54090898186918 69.70754532439545 14.280667972519522
309 5 52.34342199529684 69.92237750082217 66.67421550291706
310 5 2.1107647169125476 67.3006262290439 61.9941845598549
311 5 29.35004727625612 51.418335497124595 13.627672176690401
312 5 68.8906434646737 13.13191387286465 73.94119321453553
313 5 23.093410691880354 72.2063216176851 68.96124543236549
314 5 20.48679768514623 0.8846536940487891 65.96618162398488
315 5 74.09252118582978 31.098466577277968 13.116021584913723
316 5 23.294511728624514 12.087228324184744 46.65528662019356
317 5 43.75573774631982 0.5819164678614385 38.207152677265626
318 5 19.263511429182515 76.56055033896446 33.63626168154553
319 5 37.852360166220535 8.172240166669576 53.42530976356807
320 5 49.08460621479301 1.6591974903686026 60.63255036797905
321 5 8.715544616408849 20.62155730827606 27.88925210827244
322 5 5.269187679393668 10.426009434462802 13.65665090360848
323 5 17.855746963870722 17.143774675147892 52.17799580870301
324 5 47.637384811977114 36.0504945397737 13.964368190412102
325 5 79.38439055524849 67.9262732941506 1.9643020433399865
326 5 14.140815514880396 33.31519226573007 17.498649751894625
327 5 23.910633446093126 35.720202188221386 63.474930681430685
328 5 46.09219708226496 14.320959251617678 68.38147962871207
329 5 18.7437636481571 26.835809349924652 73.9482305138369
330 5 76.35570664351287 24.18661178493314 44.59236405360079
331 5 13.99806011952724 47.77119421621224 55.06249445046988
332 5 8.312556364398452 56.9685273059716 20.399583971740967
333 5 18.87183382301509 39.96045822965146 34.324718144077124
334 5 60.43468636364504 37.43787509047275 31.535559846685974
335 5 61.21499004613035 41.826082760212884 52.756865682099665
336 5 8.350414614713745 1.5921256404276933 67.13005222032945
337 5 26.533764348046724 22.21293773567499 53.17225744457212
338 5 50.170645962801125 17.29580138780565 61.96306315296015
339 5 24.295169506150355 77.77600888231842 25.060115792563934
340 5 31.190800455861567 20.071521422097263 71.93135948463394
341 5 54.824830437363914 63.41478694332833 56.7739118075146
342 5 7.098320757214803 10.004078019103526 53.217495972127935
343 5 22.065359542684217 61.35667260507858 18.615830729732227
344 5 36.71511824443835 68.92263537207204 53.36346872747445
345 5 69.84722908918697 12.959463974965649 13.99717591686619
346 5 61.520189902261876 68.49410914176823 33.75076208995914
347 5 67.07102123302893 49.82257113803231 27.686402030261217
348 5 11.008515997257316 70.49208986558362 77.17544198334906
349 5 58.577985153110696 7.94821982215398 30.497231430731837
350 5 65.94642708006067 79.5183311233999 1.0150698886192628
351 5 62.6718120873248 39.91285962134685 40.700179662422585
352 5 32.27945756742708 24.764282702583873 32.51904516786486
353 5 43.313933648887776 55.28736642770621 4.692882216926209
354 5 1.2096129070618005 56.93999095413912 74.05958634945692
355 5 1.7170335019273055 79.42365782575237 64.33672365246916
356 5 31.96054812619923 70.28472779728747 46.10807435377558
357 5 47.65333873699723 17.884317989474305 43.12920935046677
358 5 30.20709163123593 3.530475397143938 15.137328195563292
359 5 56.84540501342744 15.107033572068035 71.59388546329886
360 5 2.539349227571482 30.932279719454282 54.938453939378846
361 5 46.25589137981386 59.39122435907759 29.03553643786751
362 5 1.2862966192437746 56.555880880554845 11.67823606332654
363 5 75.9064398351326 35.6837525880522 35.26209590516303
364 5 17.623403313140248 35.553080194177184 60.85911570520309
365 5 47.43224136910844 4.4957792420979805 62.879846266848205
366 5 51.995065625857045 45.16343597576699 70.50610442439833
367 5 71.77195639756721 77.64506519850198 39.229171124219036
368 5 38.804059969661296 68.27099984534193 32.73056026566081
369 5 11.06797335048959 67.4446502811848 24.921049022810696
370 5 46.511937545456995 49.96912943785128 0.8637973664258072
371 5 60.749483522761174 4.493486939862845 24.590902126544158
372 5 53.92761335967721 70.00609192474116 28.938773849764303
373 5 41.21910461286042 77.3765058882919 37.51122109436025
374 5 46.877209370971855 50.490763418394074 16.53580197552138
375 5 24.894904618070132 71.66019476195332 53.09284600271493
376 5 38.322634091707705 55.80883564325397 16.557706825518878
377 5 0.9325103755219464 7.520489588957228 5.611823493157705
378 5 66.44228970044826 74.77008022522217 38.91908901989177
379 5 8.025226761906287 76.88295422178706 64.94210540432486
380 5 17.628724285514405 41.60315666858573 79.59905200059781
381 5 68.46535072355347 38.38035952146269 15.204813477016929
382 5 45.02546854506473 12.580944272930605 7.77825028097257
383 5 11.987241263935724 31.312097438724994 58.30349880499798
384 5 53.11060806243325 68.05201557890322 5.29954608870729
385 5 54.148057051259705 34.522813069980245 11.224764178581788
386 5 1.5549973108244448 28.918502575834243 10.839443117689703
387 5 76.52758501781453 34.73535482482558 61.196734798146366
388 5 0.4239641146709068 40.78924944620423 78.34867628360655
389 5 49.6362508450574 0.08189073926928994 76.36491940294964
390 5 17.241616093710547 49.164224530061276 45.28778006438299
391 5 58.45507102170136 29.514563947248472 45.31386550843283
392 5 7.117782074734843 10.642932916553356 31.936611829181206
393 5 19.076572746662652 51.325592748410884 15.396342593566505
394 5 2.8373738981563434 21.33992592656929 54.11269191225241
395 5 18.259545760426796 13.791446641211643 45.93586972065676
396 5 13.14173476399508 4.421302004368798 14.950631453717444
397 5 37.8736219010152 47.65974820058038 50.14249314439674
398 5 74.82967688439176 74.9056995673235 7.827141697152139
399 5 24.022006135566777 63.72806159847997 69.73131916939975
400 5 75.77614622553159 9.514222303816231 38.48246320816144
401 5 13.491693057932688 17.368649085625734 68.77829855169428
402 5 9.363506566605952 34.970624909349645 70.8751319572437
403 5 13.271780556671839 32.73505382138408 78.86237221782189
404 5 30.479173231639805 11.261157814334732 50.67432016830967
405 5 18.917746463642665 16.28557359217929 46.04331031785442
406 5 18.599573038058864 61.78589363388021 43.840518704804154
407 5 42.30153801873531 16.242173369610775 38.658452113962625
408 5 18.945811715812102 55.722492939852074 72.10409447457427
409 5 42.89120702954308 5.847998211319426 23.274790024105208
410 5 67.3250582334515 60.48432670947065 67.1583320643187
411 5 10.037650415073685 44.420013735209366 9.977258633380918
412 5 4.861396591316494 10.513059961737616 26.518194768306056
413 5 43.29601792708807 32.79103457233695 76.84543998592883
414 5 6.554493219501823 63.22669664964008 30.034272694344235
415 5 39.62496518420897 40.675907883980656 72.47400222840332
416 5 40.51782126795742 6.739969372681056 75.08488617042244
417 5 45.55989855585459 19.291428901691447 44.0931028961321
418 5 52.218197649550106 71.86680414137537 40.54648762207988
419 5 16.896621044570665 51.77632562419022 2.125582408258359
420 5 21.20980061653091 11.862453757518157 56.94992635483252
421 5 65.65385770638021 71.07802569294144 33.40865580007114
422 5 11.608484035061734 64.13153994086325 19.751573621977332
423 5 36.72482964769837 28.710328687928705 9.585666911195919
424 5 5.330667398730098 72.90859635219077 78.87561700397687
425 5 47.31149122477697 23.737014708555893 73.57010676313479
426 5 68.03428977583967 46.38605461433493 4.640260416275617
427 5 28.211642557848833 12.364820565817661 46.29311783677004
428 5 71.86873466839 45.00979740342999 15.805622411633328
429 5 18.05278614252343 73.5046633699248 75.11448792375396
430 5 78.99842390676957 60.40597409684768 56.20850260372194
431 5 41.113312509725766 65.18132613539254 50.871790192507675
432 5 64.14256532132387 29.57349722896494 11.807695863272214
433 5 74.82282153191642 8.361386708066586 5.381622202653233
434 5 66.17011288905877 42.8341120759272 58.803308352584516
435 5 27.11681749191139 62.527733722446825 4.227725619536635
436 5 6.452569005311021 23.84415686903541 1.505071397411957
437 5 58.15792086531086 41.39430869784415 60.80176199257197
438 5 68.14216723840194 9.976372192211642 22.758352340069678
439 5 25.643071260041598 20.192844972317705 36.724373551400454
440 5 51.180773823556635 20.886646104683237 75.59738637716485
441 5 34.667233676459254 54.89518629508161 44.850557697881115
442 5 26.49075313287486 15.662644340099206 53.81427109606169
443 5 35.22322105422684 27.709856806342025 2.690995951880081
444 5 19.957114319776643 59.76527919144392 66.83625814546436
445 5 7.534050989239276 74.44868259941327 51.58806258508376
446 5 44.1635902872417 28.490970322613375 35.193572548729705
447 5 57.27036526933957 53.41768695978601 25.964392305274572
448 5 64.37398904230952 8.900478084329198 74.76956663112627
449 5 14.800059883051695 77.82012178997202 8.531230081150866
450 5 16.66634248458431 66.3136238223452 41.27417743764419
451 5 70.14529018789209 68.03699025546214 79.59435252657799
452 5 2.632358166040619 43.07414734206173 67.18743256762954
453 5 70.25885761571868 76.4874008462591 13.995129599599853
454 5 35.99760765791413 47.81720186775598 64.73217099203002
455 5 32.36066932521334 52.294354568329204 56.80869767338939
456 5 36.05422006600281 62.77171158843355 11.629028065707
457 5 59.041895027101134 78.04160299656056 6.8404135301169955
458 5 9.989335917558835 28.58160189375573 72.36163127552099
459 5 62.19667351335667 4.967084903309826 19.138624690764768
460 5 10.727717178393622 41.83202598614924 42.03214357277699
461 5 1.1206570656521335 19.383074623503898 44.89148162665156
462 5 16.245040984805303 4.072179352103588 2.980307285330007
463 5 69.72838769142709 43.24171611870571 26.037822881197375
464 5 52.39800286867474 77.88607533187627 43.95927250398768
465 5 28.18747605927288 51.448486454292336 16.96140384428438
466 5 60.10721570203435 38.294113962286744 1.3552538706925976
467 5 49.37931843300424 69.75538936629884 54.085757063895805
468 5 39.509320858214984 44.361218909952434 6.217039353616875
469 5 72.76918124449533 10.328757379908666 23.02493826895858
470 5 9.56505307969092 6.610985151834487 48.763704939361325
471 5 9.615204220002735 44.79772989189268 48.875716280005754
472 5 38.659356803416976 19.09456063565556 75.2931962195348
473 5 48.12792351070204 73.29214815186428 12.239879751729564
474 5 34.983474862038065 43.7649230836521 58.30509844647938
475 5 66.3944173319924 34.834329829234484 44.424883848086516
476 5 23.809855374955657 1.2915998601199383 63.41220960364205
477 5 34.60877079454028 36.512329606411406 70.36303948694456
478 5 20.32244917812742 59.65365696440846 29.214654606908898
479 5 43.33172282962548 46.18525940111127 22.448552507617
480 5 17.77569138937498 33.35988329961559 31.912522339174583
481 5 54.28539814281579 11.958151868959726 18.166527635335203
482 5 68.09551812365389 19.98901922162169 37.75222783847576
483 5 64.36388045700855 4.27501227979194 66.08608950914267
484 5 71.10987442922601 19.378211512657508 44.53950522773216
485 5 24.589821486271696 47.59985655187376 28.979069660974417
486 5 25.86484481697088 7.0908140882041755 60.5081563234857
487 5 36.91466379898904 48.92582997313631 2.254049488825236
488 5 5.627839902840944 23.63771847976204 75.54544190752101
489 5 61.367763353309556 66.32713371993684 15.335628410030852
490 5 26.750662171134643 34.42979725097448 73.49251472442728
491 5 25.555720256667293 70.76691317407145 66.1913159398664
492 5 48.33426492735748 77.69967169007174 66.68048533980979