# LAMMPS data file
50688 atoms
5 atom types
0.0 79.732439473 xlo xhi
0.0 79.732439473 ylo yhi
0.0 79.732439473 zlo zhi

Atoms  # atomic: id tyoe x y z

1 5 59.87100215550338 38.57275880091553 51.61303679615754
2 5 7.270056612563982 75.81774351513106 25.07151514469269
3 5 38.27534365410719 16.293947392841932 6.499965711530389
4 5 18.937669761118023 33.73576139498385 75.13686799925257
5 5 52.221393077000826 11.155251451062362 6.169092294229211
6 5 28.020852941152334 50.93459029189337 0.771060877184718
7 5 49.90127267747177 72.7780772329422 34.89165647494066
8 5 63.36767024978908 66.94664753346005 44.81901823184394
9 5 48.19309888528881 78.01368721839043 45.452021759327295
10 5 11.601985374015225 32.58178240804116 52.773615338446504
11 5 44.69428055023071 51.86956082013415 25.73198409808895
12 5 52.390421640958664 3.871029335574998 46.17517710435155
13 5 26.633526393709964 39.73050278563763 70.80102635998941
14 5 34.078971986661166 40.99244113309953 15.785124500318947
15 5 31.18477765898229 13.209094465795538 67.70075582294193
16 5 40.10337090225952 0.987712633980124 72.41519065022983
17 5 64.01438059148101 43.94867443013367 44.963859907236014
18 5 70.53682653814055 0.34741613215486145 44.553186223512654
19 5 67.19423552499856 53.79479663342878 41.42680898537905
20 5 26.918549046829497 21.379946417855663 5.664144734636965
21 5 47.73909804278707 52.91169860901783 61.42650980570238
22 5 78.99222936002774 8.103883074488936 40.77805849646042
23 5 16.834035623554783 17.08740968064296 71.26251594771091
24 5 29.501200053958286 54.12704147272127 40.87070874104937
25 5 4.203001859514056 40.576904296016 68.83143479554255
26 5 18.80300913964276 34.890861591538474 29.744345281082456
27 5 16.450252394884817 31.909785255279882 77.86349627724627
28 5 43.098713909059796 30.360328356289724 51.24643796525899
29 5 38.377203596569935 72.78381777925495 61.12978147691452
30 5 58.678448286751 76.92552914499116 55.778595489077524
31 5 9.73068518755448 55.96995241834394 30.024414441356587
32 5 12.35304586986677 46.69707644665902 48.62745602602229
33 5 13.004877755998542 31.37405283738748 18.34673024502641
34 5 17.342817928846436 76.54857129296532 75.13842242054571
35 5 62.448247484324874 75.67020478011051 24.146552736830092
36 5 49.655634037218064 16.286456714408104 17.64683591980853
37 5 64.35605768827851 56.87291629954618 31.712877806596754
38 5 51.30471415283105 1.5652944164271183 74.3483563300708
39 5 78.40891541246427 25.091704092006268 78.60674820443133
40 5 51.210341171184574 12.974956917255216 23.311749151259843
41 5 10.957532346355503 15.226776214628323 57.17272280837031
42 5 22.200881471228467 65.79266943044529 73.70046897358827
43 5 14.17862750773589 10.299737272570724 16.38354364587877
44 5 0.2461642469457619 69.00177006878708 23.50788035070659
45 5 72.60202360295598 50.916573206246504 59.83036703357785
46 5 51.473578737978045 40.546291164419344 65.81113488194829
47 5 36.21812703428157 58.48867002245078 0.3796143778516748
48 5 51.41709031274593 47.34006938080184 44.54483329185655
49 5 27.494189992291304 40.272793449537645 55.257166012844735
50 5 58.907387437478775 2.4145633091843317 63.77512037452552
51 5 75.29183151740189 53.52233244973902 27.490370853878172
52 5 61.653267099038985 25.016664879336986 11.09014678917832
53 5 18.84923542811853 28.179178039425846 22.76079078666651
54 5 72.83810584860596 48.282134869584 34.650854993710404
55 5 50.853953487551756 5.384463347092644 64.93916441567528
56 5 77.46113721256019 4.17972837777394 34.420697164916625
57 5 47.679578664641966 26.264584713979097 61.24219525368952
58 5 79.28953815238647 16.142244849212176 79.4318552274675
59 5 74.00766892838652 3.344468666141676 58.24975995312083
60 5 6.253013262314444 60.30036011614146 15.372285372409474
61 5 19.212178466798946 22.99325421803808 59.77580500993597
62 5 24.534854569392348 22.188648576828427 6.339025675448755
63 5 68.50296941188266 51.982761781832025 47.05786062816268
64 5 49.95792151879506 63.45597884273437 11.748416015828305
65 5 19.423193794295383 51.24340001317847 27.246523198595153
66 5 45.83734248280226 53.037333150480826 32.20219285623461
67 5 65.8126114903618 29.225990987359282 75.2160897048049
68 5 51.18905467198563 65.44112233720568 44.421674847623386
69 5 11.595568694882065 47.514137619574456 74.71718000765773
70 5 9.271575009352441 29.24436270515707 42.1203005371963
71 5 29.478422121506537 20.211901930281254 41.160139379759634
72 5 63.12705064761698 58.37909342156359 50.4744296864287
73 5 66.68443406473244 40.82630343436581 25.755465811645095
74 5 1.2110695860389245 21.50902521899395 34.48862956968402
75 5 55.7425879466366 37.37039110326664 40.98617748167312
76 5 12.176874821607036 44.211031206323376 64.75694982650661
77 5 39.33914200223328 69.08162949092464 11.837150601859026
78 5 22.45880797331918 66.15114135475888 77.27144768114842
79 5 39.98634250431799 33.91316061259938 2.0281296854161486
80 5 4.301520713132918 18.047208624630102 36.08017977552176
81 5 58.46124897778541 62.570344512294234 40.09649668116643
82 5 75.95959067085204 32.203987840608484 22.872510443860854
83 5 37.063358536137684 10.788852184022304 27.574265194724084
84 5 38.19766497926125 36.70823220548368 43.37033726658712
85 5 46.60247650951653 11.99690001584715 41.7371480031654
86 5 30.01183500688782 4.820124425291275 68.42433119278233
87 5 46.543927826195514 59.60274153169564 63.173684113561215
88 5 71.29676156762363 65.98689404766624 69.50485145215889
89 5 48.122906644218304 30.226825421486634 1.3840182252643776
90 5 65.4596470847443 42.554324997499975 19.922548845098113
91 5 72.25577011016327 40.30765567767209 40.700439159613346
92 5 69.56822716661733 44.23014818657527 42.59392348024394
93 5 77.78089613170113 74.11458607772312 75.23728557488445
94 5 44.54937677322133 18.30301149746252 14.128335090652703
95 5 11.228844779503511 34.364831211150324 4.088796159593222
96 5 36.12910152332513 68.1667643030572 73.71714593431935
97 5 33.4638358935055 11.799744602456435 67.71047810511662
98 5 49.581633683031725 55.25848630310978 30.497627164608993
99 5 27.175230946158454 8.299162310341298 45.419133536750934
100 5 2.6949435876392664 37.82611657825823 61.717808113370985
101 5 64.2871976172461 64.25506015190672 13.246779361837447
102 5 53.37983191037933 22.74109857506535 32.598234034514874
103 5 32.22644996029919 27.478474845476224 12.644541927486141
104 5 22.564877497053626 74.50846769616312 21.162015242318226
105 5 67.43681252006127 28.30410191844796 78.70207580369785
106 5 61.758959455065664 36.11689570554112 16.29250836422068
107 5 45.581062850301464 2.0660323719872196 12.672391029342363
108 5 42.649694434737235 46.49379607278997 15.933680801477815
109 5 40.94234940309389 63.97990396860885 27.036675851657176
110 5 46.243448181705254 27.89306098537767 47.33650013006745
111 5 76.3701222137317 61.546964335363235 42.689808463406884
112 5 23.52029791665894 58.56627659785078 8.987660539391845
113 5 35.85261532364245 59.57919376225478 4.015846887649332
114 5 39.98311789120645 5.347618373427135 73.85576279370053
115 5 28.01908660351279 63.428482704604995 1.9481200301628234
116 5 53.49510678840995 5.517140085589778 61.16062279500782
117 5 2.4364227845588746 78.27391962720867 42.73263052821543
118 5 75.31747367280798 36.0157543082319 22.518715751483533
119 5 67.51986007166444 12.969746193599184 0.8135661793843448
120 5 54.87789097801709 37.809731654820844 75.73243112079008
121 5 25.463006204820704 25.437623186639705 1.8733644000475953
122 5 51.958239818739614 60.12728305591141 7.100915328700497
123 5 42.410261413523344 53.33331159474062 28.57925346966977
124 5 40.32084625242726 47.615177825690665 54.882600721044376
125 5 55.525004035957195 23.26418697013563 64.53611356017868
126 5 25.219221861533427 1.466747250579503 77.65571480046735
127 5 10.113634370356335 10.451701487671393 0.0387283812231069
128 5 8.99916136916856 56.229017408297985 63.70859002272121
129 5 16.05655119283507 27.590229112689617 72.10925098576028
130 5 44.31320087594169 24.96068985486107 75.10874873010889
131 5 49.89126251025304 61.573276665713294 41.993327605754956
132 5 45.465712753178316 75.06003378654263 62.53873899895954
133 5 55.10839061362134 38.13957636295491 41.8422814119424
134 5 41.329937870727655 47.41043474856087 31.38014935147329
135 5 77.27398915272754 77.07477632369627 33.7079351616569
136 5 11.347993343443559 65.17699353152948 39.73854803802774
137 5 31.13800339077991 54.70060506227066 69.17311939946549
138 5 39.16057231736596 0.34127622801653235 17.55308395457072
139 5 50.64083114212352 11.316860680822572 47.45383377981075
140 5 65.46893610435848 58.13499891397179 23.80260479086744
141 5 51.202754727215726 44.56905951598161 64.29025220166521
142 5 37.50780973913584 10.507162399836668 49.30776268327707
143 5 5.525559183640605 73.49626713186089 59.149909572049125
144 5 76.92602060659642 21.271176542189338 32.10676087747172
145 5 58.097628660063094 73.80465240220363 6.204033528164402
146 5 49.95597774696699 66.95537522277996 56.14628078831332
147 5 73.27409833256704 9.943488337297918 42.273845050720155
148 5 23.752713880886866 0.5872519596209343 19.536334240490465
149 5 56.946537387973684 45.53030895014151 70.34770585175342
150 5 64.72990030998072 67.53560318224886 15.379974785778435
151 5 79.4531035191012 39.66308482190207 47.75910907351975
152 5 15.644336789671987 65.64095211296306 37.38736790912778
153 5 20.850317571961586 19.015385452998768 78.47224741335884
154 5 37.08903373569119 37.832575232694396 67.67563623806497
155 5 20.90984345319372 5.076358976226201 60.59146997185524
156 5 13.932830425933243 20.643454281458823 19.393688185870516
157 5 9.209079890981538 64.42838120199951 52.06308642996955
158 5 33.83578699454565 40.33438252865909 35.58747585967451
159 5 33.0163248099872 69.3754517049255 66.58471023083075
160 5 58.00682038079449 16.399738495782056 61.76434576734136
161 5 22.91723709720613 63.893510282954715 23.92052466551478
162 5 11.611757411388483 24.899796157969128 77.2622487906471
163 5 46.496865520327184 34.137247211917696 23.244224922700944
164 5 22.337180751334152 26.115854652299646 55.57533513547661
165 5 49.50201814416527 1.5316251921742525 62.25291044790093
166 5 55.11699964041801 12.70423095689813 44.46279519741282
167 5 59.6225807716947 78.89511712260519 74.38082986546793
168 5 29.961485855963996 22.26135647371532 29.794977850235746
169 5 73.73489508392007 47.02128044835979 6.479904231450583
170 5 67.4407516941853 69.05207563261808 41.156211951499785
171 5 35.23141757846726 33.893383664324276 47.429981249724484
172 5 79.6925462956955 70.76855902947848 12.087016042660435
173 5 65.85571705265008 43.73034611145742 31.274242554463388
174 5 22.85953946545618 26.391604464089138 51.2077381764093
175 5 42.61188173006107 31.96361179409973 28.46190129403888
176 5 37.20620886693425 46.13231398231571 13.101688748698317
177 5 18.1053725428823 73.37573243521496 44.73459681672346
178 5 41.35624095677743 50.40831949276442 39.29783273723261
179 5 66.67628951870432 49.510698358997416 40.34528121967607
180 5 34.904613200924274 18.662648499284238 26.957178772882077
181 5 65.66733770986208 49.068400053070455 68.94107532040356
182 5 33.198106736088754 9.47255219572779 30.407363010158722
183 5 56.55387790057555 14.005395996715896 77.68687049057222
184 5 47.89013004204895 57.12770089087898 39.53533526530021
185 5 44.45253412360367 16.73945390798593 15.646228687962058
186 5 0.14747749560366613 44.346201307078516 32.73817382450546
187 5 12.145395126537409 74.92082399393826 9.92172096721524
188 5 76.23365447422371 7.28612606427886 23.696945252598578
189 5 59.68484167632622 10.774514844918741 78.45827365517866
190 5 75.08367268445797 13.172855235052406 32.1833300365363
191 5 79.28248617083587 54.47222997055044 0.7290110402516755
192 5 37.856849315859854 44.24353708125263 24.427032058387223
193 5 64.6878417105661 64.46683362212994 6.128601941785048
194 5 73.73078719217202 9.574340316159075 19.520978246302068
195 5 77.29325355066126 30.41025200442398 44.64721799506466
196 5 79.57679950914235 14.341536279871846 15.539892893533606
197 5 0.26482858569921763 78.9854843508223 17.564931079213565
198 5 63.559234403965384 56.01656595024081 8.9602124538395
199 5 76.4410308821559 62.911099670622626 70.9370163822018
200 5 69.22671460540279 64.3951565868503 25.966112362843802
201 5 72.63739990010916 20.042860280393946 11.36412252619688
202 5 64.06732022837562 33.123226743102386 51.605975834495375
203 5 54.79162743007698 75.54605534079532 24.99614092886327
204 5 61.19205542022669 62.55692915067082 43.889098997135406
205 5 28.51997579982672 47.32184716130398 17.78824432349968
206 5 17.920727180352266 17.650108826653554 14.16312870988083
207 5 45.788963524993186 73.7891217244941 15.804209264357082
208 5 51.26978195919094 12.43914741782765 57.85994119465743
209 5 76.95186462347208 79.44495255255019 9.510139540241463
210 5 58.7267630996127 43.91445249560802 34.50820939461971
211 5 38.420059122228196 16.787268629263128 21.60294166559723
212 5 0.1834281745092693 62.05620730544665 26.210906693075696
213 5 15.319367500581198 0.7100247957099324 41.58706071910256
214 5 22.806969949862914 22.766348141449793 58.891017931664244
215 5 30.13917054141533 47.62455344467738 55.936027420172955
216 5 27.055275050493954 6.988452845069625 27.140971185096777
217 5 33.17980297212673 38.4725718684311 33.16947588386053
218 5 47.83762483619375 17.198581852378812 23.572193929206826
219 5 5.513743540008135 50.47996346375201 64.3538274712051
220 5 67.24355425660377 55.43533862211758 60.80765279499793
221 5 53.3055779342678 56.71018920195217 5.860338590200234
222 5 18.93959329549052 9.706666083634696 17.65881988458258
223 5 74.1231800430388 5.6332494597714415 14.535736799717109
224 5 55.47970056796306 41.21453953603434 50.998913802665214
225 5 34.60922371467619 76.22519764631217 7.0341217987087425
226 5 71.73121269206793 12.079062530869871 60.03556284594281
227 5 37.93628682686701 28.607369909737073 75.21339365678931
228 5 21.76461051090903 16.421495052638168 18.66749739298578
229 5 52.094380525108576 0.09672736507083593 29.074781948727694
230 5 72.99382357098487 73.51606702162421 50.555481903766726
231 5 7.594693477784891 26.470225775957314 39.66794906851739
232 5 20.423085556426937 32.181734688150186 28.52249817487886
233 5 58.342578202440116 45.334773819528095 35.52272764723748
234 5 13.017857742971202 63.05560897957737 31.460227704297044
235 5 59.69053266200063 14.096946234303461 42.38435078694871
236 5 46.74180212059372 78.91829591103892 34.845573410502624
237 5 55.02726732449834 72.99934326335041 13.056694425915007
238 5 67.06717873354597 6.731016901731545 49.59044674193179
239 5 31.17108046055587 25.55139697483261 59.198160083054525
240 5 3.8969255734867976 9.39893372625181 29.525305674647786
241 5 61.11538986296287 9.626289287488383 65.34467296705517
242 5 57.959528911441026 37.52779951294876 23.212616295873406
243 5 48.386931322322695 17.85615419579348 12.864883125827141
244 5 14.081871077284863 1.9102250763681285 76.00569925840188
245 5 64.27525499269359 70.4512226903637 1.8475791045149161
246 5 11.680513388915534 12.939144466204542 63.13240933762053
247 5 4.306149396285733 61.102931587801756 4.6037339288966175
248 5 19.603324406389167 69.89490407060225 39.19592130175375
249 5 66.70420303589466 22.30621714785235 32.271617557284905
250 5 76.17219980866341 3.237546942803386 39.93721208771794
251 5 78.22071942635218 16.289513070986334 46.7780895800409
252 5 34.49652939391645 24.748059832251613 75.38103664601603
253 5 7.224339170918435 10.028390588239011 50.09439587435545
254 5 11.402912689692515 63.59121835904301 57.269178533173026
255 5 3.5958051348394307 28.911023074885918 54.654226990445345
256 5 78.3039282297478 34.64206575725705 64.60230422829201
257 5 59.11035428729933 51.37381323738368 41.68533769430491
258 5 35.76987962624455 17.297257142335244 61.72514719284909
259 5 65.62135837226712 59.905572856466215 76.29557069826855
260 5 46.998731488690396 25.64419523501092 21.207529789903376
261 5 50.99632421734547 31.485133502912593 21.140480860707616
262 5 0.058696381396847803 10.885553974041947 71.22383534067787
263 5 8.08448146954701 1.0281931493474274 3.4063394098485333
264 5 32.16090626854585 35.81517484225273 36.033051152897215
265 5 35.60567346272992 78.1003563490837 10.489616947242462
266 5 24.86343149738456 28.57565285842448 34.482219775946305
267 5 41.46135303675531 3.144535453734922 9.851048725468715
268 5 20.778554927416735 72.51074666299739 48.24825535360267
269 5 32.092420694742856 52.98674744425894 69.77456912715776
270 5 71.45801429365201 36.50498166079782 1.6163581829791736
271 5 45.92088332539424 6.9430507197755675 0.08044144943349896
272 5 32.44296425881854 29.78847556376035 14.936599678689245
273 5 26.543563174723563 62.34269583450989 9.810813919833976
274 5 72.9472677799243 11.998814996516886 24.476475281457017
275 5 43.52112743349512 50.447402699874324 26.13941047986405
276 5 73.04049743222154 41.09679268067066 43.77685372308303
277 5 79.39223334950012 56.07789026991042 20.798131581888583
278 5 64.72893608410908 11.473876295424974 43.616229659437735
279 5 26.220530341313932 1.7253682760302838 43.96974038590497
280 5 10.041388008654502 53.68399739295159 5.4637216426432405
281 5 29.684751844394 40.806698704071984 45.03811047211384
282 5 57.401786006629976 1.0434233119058167 43.49154517206826
283 5 52.22291304307919 50.95492237071893 67.13530099885017
284 5 48.90770955169551 25.02182722779886 50.38296731024224
285 5 53.94049025026078 6.153036971723209 76.52700969807327
286 5 75.64886807611022 19.880420626075708 71.99540652670625
287 5 74.40283595624638 18.199805324174445 13.407649662425701
288 5 66.15814986966933 35.299653243201924 71.53979715236706
289 5 41.78917419590112 21.542493146792246 78.37274739658443
290 5 43.30760604059134 51.94439358519398 47.24897436344742
291 5 14.945518414918261 57.633435926251266 78.47760519795706
292 5 41.82163813770783 60.42384053148452 18.10656167138416
293 5 48.22642313076373 76.54496825604916 7.762285637603135
294 5 44.549675446951234 59.740049562648686 69.8787802364252
295 5 38.1115936673902 71.60904302679573 60.09869714936232
296 5 73.4363608017464 23.245607192328105 24.29795000801367
297 5 25.580047119789004 10.122036859555816 48.215654093855676
298 5 5.707437977706768 45.705751090045716 12.58978265790494
299 5 24.4611713541491 59.18085690453958 4.264491333876637
300 5 79.62532258004178 66.17691296484027 25.799939302844766
301 5 53.40198750777966 62.05897897700959 56.574333578476484
302 5 49.02764689906392 13.172908783194865 36.95943786736982
303 5 54.92484472212567 4.247604438653046 74.44662712351092
304 5 53.93513725010253 4.893971764716215 20.11941328590604
305 5 3.8678666775409267 73.18761856977373 3.113874178768965
306 5 46.69302486540351 25.08880092414801 77.51441654690247
307 5 29.05745147464425 70.09218080926546 32.372387870935796
308 5 46.3332910327458 59.093469041103 27.13647475842088
309 5 15.903626975184247 33.615065947456046 15.708611524286717
310 5 62.10048586874818 53.41768128876861 75.88768587182273
311 5 66.22001443964805 48.556071756630104 54.16568997138711
312 5 6.1296082660047615 50.016760674648296 64.0419550286761
313 5 34.08329126356712 65.92446750304455 44.12890469771307
314 5 23.62746837032536 61.26926548972331 4.184299742597387
315 5 51.170542647713845 23.946360559539496 0.2189674634328463
316 5 6.48677753019822 14.893549108893426 12.631728676294864
317 5 56.55609338389371 51.70941458797271 75.65278453972483
318 5 60.90031095432057 0.5712075901251052 42.306493379492096
319 5 71.36624393334114 53.04107420851812 67.31061974485853
320 5 51.80667279030106 57.79630126356281 40.33000393321602
321 5 2.982711355163519 70.20177512378137 26.48279033751796
322 5 16.839279462731582 6.099950863949562 75.49017407269068
323 5 56.842713803273575 75.21476332663113 9.89224331757721
324 5 24.4748499031956 19.381917405507306 37.86971151177193
325 5 38.85106175452484 47.18377652899459 74.74999528671202
326 5 9.723568223949382 9.703982049107625 78.49060906796817
327 5 74.13608959975578 48.28715762478274 4.387210618999629
328 5 75.1634192187598 41.058525371839714 32.55714044400541
329 5 67.33045325685572 59.03516904832629 54.338184381863734
330 5 24.654378397522223 47.04910362848176 69.79628876893516
331 5 77.23637716670021 50.707222820197956 70.29714743055081
332 5 15.66431325742057 9.640889522149614 35.51186866415442
333 5 77.90480662235814 77.75566595388335 37.09135590672379
334 5 75.23140314959477 43.4186765224667 79.17467750409571
335 5 47.227848156899626 53.77724194318252 13.768900215636886
336 5 3.7684221195367402 16.115201316119233 6.598268327453603
337 5 61.96643366719199 19.788817033136272 59.10494967960941
338 5 72.57443879884445 36.545216665646535 59.30711329685587
339 5 26.557012732346756 53.116084553994604 53.74606883993502
340 5 5.1448297760363175 43.42606749297402 8.979949499093628
341 5 14.517147751452763 51.483572137733205 2.8747471606283037
342 5 53.71956089202445 66.59505755976267 72.4413484472488
343 5 68.07228841522532 25.62913100671761 9.613093909907898
344 5 74.16481139806092 21.574204548520697 9.712501272793853
345 5 6.31836135119597 45.43561960629562 45.803535349159645
346 5 66.64969249682484 1.7174331679659507 8.363250455485883
347 5 3.941141257691397 29.309782264285573 48.48147790695123
348 5 41.96934109872416 8.285767069809225 78.75130726156891
349 5 68.87786260000676 27.02617871636134 26.23386854382558
350 5 38.82711181290863 30.87317345297959 77.16366406539217
351 5 20.843576929398644 66.87873694817554 76.54041626882528
352 5 17.201687933217666 30.800487397086975 36.528302694458944
353 5 40.28536122635238 32.61378481707248 54.84392462068983
354 5 59.64498754737542 76.97896435413755 73.67716763923315
355 5 67.81355635503499 54.8398350635279 46.404966760573856
356 5 42.580377443972786 6.1802646245758215 53.286054410470285
357 5 2.3065013827818484 75.54303651402876 76.99864763558932
358 5 14.025938439035848 29.350180898468302 2.3604673133939134
359 5 58.84774037885539 8.239904574390104 12.116803093625832
360 5 39.40493687065884 40.6832901529574 51.820354106093724
361 5 7.421525597511099 10.448210561676362 38.279719161954624
362 5 37.58530535608318 15.891013871834769 37.287108903060705
363 5 52.284664011296144 14.180784952022472 51.61042275682137
364 5 36.971873790793644 41.427919773870414 54.77408685214129
365 5 59.36391767525613 64.04105538065085 28.843474788531243
366 5 52.10940267961408 21.53614690359977 6.886404134535656
367 5 37.809354936895545 56.61155849653866 32.43793541588398
368 5 67.4347522043421 54.124739629161574 17.512203239682652
369 5 47.41504565423288 40.094162842137905 28.836022457554737
370 5 1.0471714801453265 9.062690554392221 18.176696736988607
371 5 61.2713691801386 75.35953721925522 43.38313919135035
372 5 56.677121491935765 19.10994142126166 28.32991928218042
373 5 6.63865132508134 17.8019815080626 53.39852524006102
374 5 7.2099199191722745 19.16436431819785 12.992484136262489
375 5 43.00977758053437 43.91883503907401 45.32004845259339
376 5 14.17704498284223 1.3115715009588096 18.962576343916016
377 5 18.217619423808586 35.05611966372933 13.828073299373372
378 5 75.01961177856043 76.42559616298497 46.95866634876374
379 5 36.79785358774836 73.81877785072173 43.98132105882702
380 5 58.25622923187397 65.49578830271658 55.864222876305575
381 5 30.22393232099947 16.039321151088327 4.628866735088514
382 5 23.314157216524087 47.3185545010144 39.41559317016268
383 5 74.01573423926672 68.17983595763546 29.748584781725093
384 5 30.613156087655927 49.571956364917455 14.877771176672042
385 5 72.9804091661218 69.56624911325558 42.93190180250317
386 5 30.500526129051053 25.999002171706536 2.4890612599548745
387 5 13.528720252808267 66.25115439183872 67.91624893683242
388 5 51.86311715314731 21.347154131173994 35.49540167581447
389 5 33.39967174580658 52.6424897973046 20.928342335401577
390 5 8.968252181961748 36.208825282416214 78.31031826560816
391 5 25.32124356680605 59.48260161029579 67.67808236693378
392 5 61.346697586687725 32.42528804590416 70.61967593636106
393 5 22.181160877973962 28.661542449458047 73.7268422622801
394 5 78.64808055201416 49.743658432598 26.62749017389841
395 5 16.367750847727038 8.978085349297142 2.035136619321693
396 5 16.480090371355647 23.495067163207555 22.18883893360396
397 5 22.66928478165763 8.616305489013738 17.294842204662626
398 5 8.90151797099383 52.23540143559307 25.014287067503087
399 5 15.471185808051933 40.31831018468859 28.386303622568484
400 5 1.909298583073979 74.75339936230644 47.557078832694344
401 5 73.67573217612195 43.16282513769564 60.33321915451222
402 5 26.497452618602377 1.958715302661865 69.36910246925409
403 5 73.73048528752882 42.322939009104175 70.42792039937515
404 5 68.9800447654322 74.14575243633635 69.66655377685042
405 5 8.598563810275348 52.63910683361121 28.15039748288721
406 5 76.21895206146365 49.458157653539345 12.569216817304817
407 5 15.310345052272714 37.44331683851704 68.07269579852512
408 5 37.30512695540135 74.54744890375285 72.70652258848425
409 5 49.64416707255031 60.46924033231561 0.5612750540585857
410 5 13.382690687445203 58.17882668798012 21.52006460895155
411 5 20.919321613440726 67.84797988237447 14.505895825542046
412 5 29.718919799406784 23.15054328130147 73.16613120927427
413 5 73.7884310335877 36.90971645842044 54.650657449613114
414 5 48.37823180280991 38.88839436784557 29.886971429798425
415 5 51.98081439324899 43.4623908204262 67.71704079217142
416 5 48.34821395009671 42.3561582799996 28.984691221169122
417 5 69.878372754133 34.524395918300264 20.27224433977336
418 5 63.12676069296547 52.48336602738653 2.391065715169429
419 5 7.790453858190049 41.27765724447154 49.83343450137009
420 5 34.217065763542124 65.39615566332056 77.41512235302437
421 5 6.893123066307413 76.44961929467033 22.430326369523918
422 5 76.35318112056598 29.20557592059687 64.58002232331975
423 5 4.739436036086678 58.730720861540284 32.158028262882155
424 5 8.132790315190125 7.707213619026358 35.4309617523272
425 5 63.503084064718124 20.67836224300951 0.2988456950040552
426 5 59.49639416257733 49.11325393007439 64.5428876250426
427 5 74.00316255074117 3.1888511801265502 75.35402721655235
428 5 75.85973907294823 28.368030631661632 71.4791928411777
429 5 3.478225289214324 76.9632367486762 12.92389065387246
430 5 65.4539733003187 29.774549708762013 6.649061354127036
431 5 29.451613206130357 1.173482655183107 42.79117316732387
432 5 43.72519875502973 36.6722081752724 21.90417272774494
433 5 63.50700425319928 30.316346483560544 70.08219105976508
434 5 26.188793281825607 66.91153885515202 53.58748014989722
435 5 29.27428973613588 6.265725525568493 2.4362977227882134
436 5 29.61633531029714 2.0468180252932373 47.19159726303805
437 5 14.273420163391295 13.016319449179326 1.0160647468523483
438 5 56.785441180650714 12.878870397764357 19.079579142793424
439 5 29.048813243936028 72.59657927022509 70.182820013671
440 5 7.200174947635094 60.71224536846024 39.45196235182459
441 5 41.743770337512174 3.394284667362188 63.98178910865831
442 5 41.816386769291725 33.20725384766798 38.49775538307685
443 5 11.317633507545118 2.288618444093173 24.30060354346819
444 5 2.755159419924034 14.539422211091392 34.001554569843826
445 5 19.141217556311148 10.974339446194964 58.24862412080087
446 5 1.411855093388598 64.38634056022092 64.02634014576839
447 5 17.7571515526305 49.08921902582253 19.754002518420144
448 5 30.29127331743177 23.38797426541313 10.926539755209419
449 5 49.108435053629435 20.91954642408967 45.740895487858246
450 5 67.62400140038366 62.55557862146816 36.675166243903156
451 5 16.860261052767793 67.3321234446503 30.178243964103913
452 5 31.7657596365707 26.66940200873329 13.73662075950093
453 5 77.3224775056077 67.21913690001246 20.910676093760394
454 5 70.17796783161084 68.2844742284226 63.323385098261895
455 5 21.25362750822863 0.8706424724034262 36.2862839490157
456 5 67.78182160855836 4.862812722543248 15.61775757263724
457 5 46.35332510680791 56.56402688416827 78.03317295801537
458 5 39.31795423514998 30.59199149496524 75.14054165846593
459 5 53.48818629144867 11.699669878868022 45.93808314932803
460 5 18.696829856383644 38.46410889131534 36.91666909506583
461 5 26.736016192466533 30.042208096196582 17.07227345993253
462 5 34.269745393309535 15.225873757365653 18.76793465362601
463 5 27.6974964315853 9.492939847428392 72.34256785930465
464 5 66.17136233258209 66.36261922850102 4.4064489339397195
465 5 42.28944118422641 10.187379321920211 46.07256733247872
466 5 42.31726068682624 4.798381682267658 56.57984525121922
467 5 10.861996266178851 33.81823758797475 2.926712357278542
468 5 25.86128434229865 64.5998051321038 12.14776510851713
469 5 50.04469225116422 43.198111859838924 76.7619256490366
470 5 24.268386834277987 72.39989827098397 77.01033095737007
471 5 27.38717647858368 29.700073981924255 55.62307003391159
472 5 3.300578950958906 45.489676102502635 45.55337632628316
473 5 75.9224864238321 48.36481688245708 47.75810485993938
474 5 52.494361618206916 23.394749303516047 20.795144204395765
475 5 48.003861040131426 59.49052453897958 20.5340686262395
476 5 7.558703008997768 56.30648580917596 27.743872067625546
477 5 44.47718679290114 13.069434052171957 48.18524638907134
478 5 34.38771629664286 12.316855874222645 37.86966862640382
479 5 72.60477512041707 16.66353795069089 77.64203751482829
480 5 27.86673365779064 66.15712901493414 23.0778351826587
481 5 44.440521489131356 33.33693509742165 0.1683449430550017
482 5 31.281424995678407 36.146759881299396 26.566517736258263
483 5 11.666942491649555 64.46670867055805 43.69583567254233
484 5 21.494129269743215 59.55463055037407 48.19393075498386
485 5 57.13674376903679 33.77833836565154 31.934803569886686
486 5 59.58724360334894 7.867241014588429 12.606214977371508
487 5 37.488292453006814 65.80651160904932 9.417947891010096
488 5 6.578234436228898 67.43508712557234 74.56241247865422
489 5 75.80859774984583 10.131587406338049 45.93062266154358
490 5 53.09679396779159 48.109518454460414 76.6810630383082
491 5 17.40269768921777 9.397401281825445 24.78970260297514
492 5 61.23280673180547 61.64564485063529 73.68116972556653