# LAMMPS data file
50688 atoms
5 atom types
0.0 79.732439473 xlo xhi
0.0 79.732439473 ylo yhi
0.0 79.732439473 zlo zhi

Atoms  # atomic: id tyoe x y z

1 5 27.852292430046838 32.74105343632358 23.616308019922158
2 5 77.59943367024454 5.338301520970215 16.959310538765195
3 5 35.04107126018438 15.881681172626523 18.08792581780097
4 5 0.7942196249734387 22.48284848468938 47.73165602582667
5 5 30.192584269520875 65.87021069931875 58.995093410770856
6 5 64.37090666727458 69.02460592547058 74.24441725459914
7 5 61.476760563918255 76.52214833014851 26.540538473502544
8 5 30.586763149401886 44.69068469990826 3.6743328315415793
9 5 39.30986320575251 62.02764084297413 73.91024006332138
10 5 31.853123886989838 60.2828254768993 56.14493104570009
11 5 72.07453252335819 23.297053003563335 73.00020091922946
12 5 27.849389149694876 48.52899747477687 5.465917933321841
13 5 36.7780774881842 44.034437531095556 71.72446302647204
14 5 41.963324261967216 48.48047697737113 32.43681829856072
15 5 75.34355344227548 28.847794477846765 35.22185249423994
16 5 5.137725972384857 4.681998328756926 73.90443635384841
17 5 74.59757935339425 45.526305676844515 15.97688488269799
18 5 58.94370098831291 61.801176721584255 37.84675065579263
19 5 4.8002857349486145 75.03795164787873 60.285851269948225
20 5 25.621135073285384 63.158596616791094 58.641366844028695
21 5 18.47066139055531 6.559105676839345 23.41875228436955
22 5 26.466093837623674 28.74434178266388 47.06674875886396
23 5 7.97175230965505 13.938912453153677 44.84366292192615
24 5 14.326317117173284 19.181914011016165 57.71106457991853
25 5 42.91554604819186 65.18148102934742 15.962798963440228
26 5 62.51150528267317 48.13196405914326 22.53191416053631
27 5 62.26815730814612 72.48782283292012 25.770090287006113
28 5 38.76693838543553 23.036345580249595 60.13018128057002
29 5 67.6235117025277 61.42559334262032 22.433677282739122
30 5 52.295993460309454 56.755437634081225 54.67085177825891
31 5 25.172358521729816 11.994117445452334 79.16723070929231
32 5 57.994599576703536 47.26946812266733 75.9277574737468
33 5 25.58629588569949 27.9342523991908 45.83282683542028
34 5 5.736939254666149 43.99710052774039 0.22968021052311482
35 5 1.0509540902333467 5.538156074555691 40.93904818839246
36 5 3.387298483733955 9.441003740513697 72.69878588735692
37 5 21.53215615454071 73.29900473889042 76.15851944423
38 5 78.07222649511368 53.79858212648376 68.78365171884495
39 5 21.820560273903336 14.110242602063495 15.999764996744304
40 5 18.926664071145723 78.6955535994372 41.84819216820149
41 5 58.59674883968617 5.240695341921925 40.54476877469928
42 5 78.80297641858539 72.54206249032815 75.66706592148456
43 5 10.595454690917578 39.59375042177759 76.18766246039542
44 5 44.369548765132805 28.96446737942409 24.06775238796896
45 5 19.597421622826072 50.025198413524386 76.39812048155575
46 5 72.7651750628525 26.866371202691546 57.97127171944408
47 5 50.1555419391947 54.18572413145309 77.75030404312956
48 5 40.135591944572 18.865660625497213 23.80653587247335
49 5 21.412569999132476 6.985421402663786 64.83083639390784
50 5 34.834379948510595 13.466622869083027 16.799268323270823
51 5 65.57843574958694 30.19175198756249 27.93982873005337
52 5 36.75211956203229 40.56544761068303 70.98386151265622
53 5 64.77124369133684 28.934471104490296 5.9184509929725735
54 5 10.435136678656242 76.91058599976826 32.6084774558667
55 5 51.201154698406896 39.72534349156712 41.06493597582132
56 5 73.096014705371 68.59425142468353 14.36536656804193
57 5 28.373887180550366 10.640798535258721 40.319969921003576
58 5 39.98834214051784 52.69356386357924 23.823157462316388
59 5 59.62373056498909 22.41318028490012 23.029614672401877
60 5 5.893035827454351 11.35259140115977 18.696599571531042
61 5 55.35598349081288 62.86376441340451 76.92540556459564
62 5 1.7323536251911753 75.28574932925248 77.5903940104143
63 5 13.96377959618117 46.199849615795806 74.51038271027625
64 5 14.058083642340918 1.0840888408386642 39.97135146040595
65 5 7.278493076599008 38.54674996614361 5.002231411541808
66 5 37.46213684097753 75.19467655805364 34.6696064201625
67 5 43.00110453503465 73.90615204206074 45.78337013913594
68 5 20.49151457306244 33.13775244994192 34.58680062484346
69 5 29.800954435862746 2.3364994976262516 20.95381855893394
70 5 39.24659332185885 73.86138424983939 32.64304404252358
71 5 31.329183686335092 30.884005936848567 13.358899457158131
72 5 39.072802775503256 8.151819031289236 71.53875150754408
73 5 47.348603343522925 22.604452815934096 35.565029801116616
74 5 24.19080434564211 47.17036133291076 60.97694518690292
75 5 73.70005284979754 35.18796496468887 14.329354588737873
76 5 51.49937423953506 79.69826598004607 23.3674175311153
77 5 54.474172781366676 42.76968924517753 22.754264537310963
78 5 57.20008622883708 53.72599953435679 52.302502191772824
79 5 42.44297690335118 11.600090430216156 78.90351015243478
80 5 67.82863187809141 18.32513139064102 9.80137613633588
81 5 50.16980321781947 33.03154310278481 58.37035606999805
82 5 75.29126686599223 19.529579158208172 33.8380949037841
83 5 18.07838938916085 25.834532584021346 20.12892004490902
84 5 70.33268632279976 58.406580716309804 56.52871590741342
85 5 29.030104476766223 22.501614575295257 58.52095848641745
86 5 37.46343125191879 40.15011177434515 38.27486139079353
87 5 19.98556123463656 5.270652187148806 16.540184441021808
88 5 6.498567344203736 5.632340292019095 37.29756616940162
89 5 59.48271143212713 68.82977675453064 48.80176382941001
90 5 16.583495360975828 37.606679001764256 15.653550857148975
91 5 31.337382744930892 27.059516853064032 14.05131941209966
92 5 2.1410477535161614 52.72729813326338 35.79615564320077
93 5 6.883796815955016 7.94001608513975 33.11421022804481
94 5 38.570455860511224 72.88039154330443 37.647447078209225
95 5 31.220118797488222 16.311761950694514 14.402606065155977
96 5 17.051322442679833 34.166340520716645 61.88475263360626
97 5 37.41568951532487 68.6742640788095 3.49464083517521
98 5 21.605416161027808 48.70203166116075 12.391323285819254
99 5 26.897051032538833 10.943823725558932 57.045199680031054
100 5 69.4499992552069 66.80364717742249 38.151264826599196
101 5 32.839367812716176 44.68675736111703 0.32242465658969155
102 5 27.734892998822943 2.0574742542648106 14.49482160863547
103 5 73.94360657213205 66.11173168695339 27.774328990505996
104 5 42.02999897231534 45.22443647517347 31.235107333082915
105 5 78.7644916268361 10.00740259067514 72.5289032643753
106 5 21.179428529447517 63.32255002695556 12.820187219946723
107 5 42.5000944521583 65.24646853985429 26.373189578858042
108 5 36.11180546010432 9.262042834187833 19.23695874718755
109 5 45.28846349943175 66.7259440964105 68.33475217014569
110 5 11.273517630944859 76.42404922749495 44.108156638981846
111 5 60.20011693758647 52.0667322893097 7.963432145114821
112 5 18.925557607651697 4.482884776177108 28.74586711439539
113 5 34.883057065155704 43.51085314691953 50.07542504260759
114 5 78.1773263318487 23.91748806396887 18.225647087541418
115 5 6.471152119195286 30.21197106130387 55.34918107626259
116 5 13.601514747922389 58.965642487380784 2.5665844559412156
117 5 45.55422332689923 38.58683174412474 33.41008135211742
118 5 0.4964159804232224 43.91046307801532 53.47789596205196
119 5 51.11828950512769 65.62891502497007 49.48979368173379
120 5 13.873437513808815 31.906916948020875 43.87933198997097
121 5 41.426933672451725 26.056416388124298 65.85429840803363
122 5 52.43775988644082 65.14805593521214 27.04981342508212
123 5 16.0676460367966 45.172689885815416 64.66694759773318
124 5 18.19435606765721 6.980912133742982 5.951247962527254
125 5 63.07801790953107 7.805035696028343 18.922972496446587
126 5 26.36614855683634 1.819143224782404 3.331374243527159
127 5 60.35442789042035 33.06505376939387 44.371921119511526
128 5 59.75696261065636 10.131187614713081 66.59124785815602
129 5 37.41488829296344 42.95300646555953 31.994359480586883
130 5 35.14886984535572 37.82350695675481 33.237209579518066
131 5 21.31293457180438 2.079912624194458 41.87194638738391
132 5 32.42645711004022 27.448821656358007 7.233967448235844
133 5 46.797560591619174 59.537676021117335 50.86447043577222
134 5 14.009225798007202 33.32293960389314 46.69235925991275
135 5 19.845226885113558 45.635793895201545 37.83279994404243
136 5 44.055847788962346 9.992054535570965 12.409847091687801
137 5 61.132475807489165 77.38476280331633 59.91747568219897
138 5 70.77359247659403 78.52024234223957 67.9735033939728
139 5 28.3455297203677 30.924462307969133 76.9050216036041
140 5 56.802843166002276 8.593406703811548 41.51206308923964
141 5 52.82954497886375 75.76353455821163 6.365529744818394
142 5 30.34031770963802 75.9275860943175 4.685960413855052
143 5 15.219036792497386 39.01528263012123 71.43598331070896
144 5 40.35940037170845 61.41068011738434 33.188398617788046
145 5 46.685986407547546 66.53256827388842 33.29516269894226
146 5 73.92977933723577 12.052127196319221 75.0876792129516
147 5 6.520728884649872 70.15003075666736 74.83407462296549
148 5 48.233647242911964 8.83861949193125 52.05001372715567
149 5 13.766612712966362 5.647912828623237 27.383820741352796
150 5 61.77701741513832 77.32434477580279 44.04221499953775
151 5 53.0374578059654 55.93090787455353 73.38245664639089
152 5 15.904167215570407 69.81904233041698 57.070309417250655
153 5 43.124377265586695 7.033391482036264 72.97181493438323
154 5 7.049162746765485 33.529350661789486 64.69146316028043
155 5 66.1201691893496 78.29835277865278 0.30714324454152003
156 5 23.574118733445918 50.88630001801486 18.685109758485375
157 5 0.37522963403268994 68.6537239701668 4.591210652048366
158 5 58.60964979724627 27.024892683498383 14.111453031432484
159 5 8.104950500350178 29.276112107160397 29.81831265039451
160 5 23.441726314681144 19.975980370887818 5.740224040765817
161 5 55.67445253836209 21.08585304306227 13.019142072983364
162 5 5.295087068968812 65.17692987592406 0.10795037582355257
163 5 24.45695179365117 74.35806478028462 0.24882963666083216
164 5 29.061718211025934 57.321145949049104 47.81257936486213
165 5 44.94875762335334 47.24542236839369 2.7522726072683676
166 5 71.48627921322482 53.481404114665914 10.841635725397353
167 5 78.06912077397098 75.06330276860064 57.612549457452566
168 5 58.526635836539704 64.76241794594925 73.17200275945147
169 5 28.515315850655004 59.080959932419134 26.022870414023952
170 5 1.3377708425427082 61.27078944842967 53.063083590768635
171 5 46.6028711635682 25.149681852108703 15.020769952404766
172 5 48.43457995960405 60.85645747613579 19.968169350626184
173 5 16.864241922291015 65.43154906120353 31.566015109495424
174 5 23.57184792506491 18.24998537635321 46.32243621528446
175 5 64.61341391434021 19.734404376333906 13.310823898089987
176 5 76.63369323852604 65.37452226346676 73.0652771542421
177 5 45.295956776950916 39.602456463421575 48.45374186366386
178 5 54.82811347430738 65.81238279371189 10.757747621742139
179 5 13.759847789526471 14.431337549658592 55.088737794165596
180 5 21.48454086256031 12.48727601124666 26.755018590706477
181 5 63.18199517771191 40.07584434846438 21.749199091753304
182 5 12.367516056431345 60.544795630148236 76.21768290288514
183 5 43.062643060401086 8.97733801863356 25.0814442392629
184 5 56.565639886927 54.93272342572473 33.381817721682765
185 5 72.64800474058528 20.614786140152894 19.042497212951666
186 5 19.3570530241505 68.4916989622434 41.06021307730549
187 5 56.27662337913892 4.953875302866078 72.89834111044117
188 5 17.731491276369695 34.604991740196766 11.175138176853542
189 5 19.39911023146915 20.09346053090953 71.56275049423094
190 5 78.2548045222772 20.136573993243257 45.61468645547891
191 5 11.886295839249577 6.078931434289002 66.31288973303234
192 5 76.63612875138318 69.94824485666989 18.26092414189556
193 5 63.879305902740754 62.54774496871318 2.286884336588069
194 5 4.24165532914429 60.57140156528728 43.566462211888606
195 5 36.45087747616666 0.8872335904871697 70.77671486403271
196 5 74.80840797463989 13.185381049707598 7.673706067093695
197 5 27.232412209701845 79.48346946592615 67.0501853990373
198 5 71.00729554743452 69.2280226516519 19.39360471757753
199 5 16.271776273434202 67.48796238441139 1.5945389943282848
200 5 13.252929305938975 13.343363606863491 76.6219134674066
201 5 50.985645850694624 57.4549296733323 34.56297441530495
202 5 65.59161619814489 23.77723359115723 44.35614974528328
203 5 30.69525604865117 5.67173640577561 52.732805687478795
204 5 0.7876257329483703 34.6516203350743 37.5485130999863
205 5 54.01281570068893 59.79377950815624 12.454871551083535
206 5 4.214980880096236 68.23270502036286 2.2718140602925185
207 5 49.663098087930145 33.661021900917845 34.4939400057137
208 5 28.04252955143984 27.282814449265096 46.87755979190156
209 5 12.344182043865064 14.482935615932563 2.610740633911893
210 5 11.074870311899689 57.941552467343385 52.60401166048688
211 5 65.24975242333721 58.758046440286584 26.12981758549162
212 5 76.99253089507471 13.084602355698662 4.534659577528584
213 5 49.848472878985234 3.0096794395885498 7.154119798159296
214 5 26.20868456193238 46.13005946593004 35.53065240145902
215 5 61.31508765710458 19.923401103706553 71.8160679783913
216 5 37.752141175246344 10.825947949184506 67.36137679343595
217 5 17.78733883509828 30.219328327997452 53.5467845607922
218 5 59.509616095004446 4.393846414553726 18.74621597530146
219 5 79.63062358725223 64.79103540380717 58.28937687971748
220 5 29.111689071134855 10.976153023509973 21.177545659304265
221 5 15.021918295442271 23.816610523171086 19.688645297798725
222 5 6.567175685834146 40.38291318965392 63.266967190328096
223 5 22.227195648387124 44.308319893558206 2.90712912257377
224 5 55.904131214010235 16.09027516324655 51.54401850459371
225 5 54.33658230940333 14.983431963732826 57.77266280618987
226 5 13.083071575829184 22.567180505477364 68.84516053124841
227 5 48.348576695227955 15.1465759337854 68.76587232651953
228 5 64.11548857950768 45.8269125577398 70.37775537028317
229 5 41.925813356443044 37.3902849161364 78.32005705715919
230 5 69.78544636474345 25.62771106168732 1.172045738219401
231 5 75.65897445466868 40.39579989119434 42.36271625471871
232 5 68.22178523619289 31.087116180369406 41.33234829803252
233 5 2.475669295848639 1.1981815072632434 23.840914660963033
234 5 20.71181334664263 55.981071099387854 3.3119520008323455
235 5 41.688807456829956 13.263302594279454 36.335466179585886
236 5 10.044520356170374 10.757735117869775 30.79534047628785
237 5 30.978621253648974 44.12712115738482 64.28718935399131
238 5 14.111557400314553 19.147800121183426 65.3991219607009
239 5 2.135252727559244 22.509072493309382 41.11641359283704
240 5 58.32945293646998 57.12428490322722 65.43429295135448
241 5 28.51253943975031 43.13075622596954 25.633503322373507
242 5 2.5601684833039973 26.25274647146622 59.61865193328842
243 5 67.95820307150564 40.412401678652884 15.017975740149383
244 5 1.394061075203653 2.7887854821905362 37.93504883315838
245 5 34.34690563861601 55.50385103617802 39.533614555826915
246 5 52.86707793017675 70.20845179727895 7.089580348301062
247 5 73.9171131496194 26.05963927454534 39.67108943835055
248 5 24.72197500577334 61.417670248795766 77.7162637063813
249 5 49.30126021504458 0.41924584029149337 36.48778794064031
250 5 17.389979660520673 49.84268824524124 71.19124516238158
251 5 22.704788298173398 14.250317648296338 24.9315319639155
252 5 79.24860779184951 5.268968621964625 34.1198263363495
253 5 67.42096578534986 1.3090184112586403 68.576907914424
254 5 78.04598077150582 9.196804486579161 49.55967775903666
255 5 62.95616993227096 39.93164431366184 6.253891796872951
256 5 46.62175254550446 64.7412984214246 67.12810622872874
257 5 25.30914429108055 28.58216718041436 1.148071096770747
258 5 29.600048711030656 46.056532426382496 53.97882629745715
259 5 76.99755743464355 77.93985424711474 35.32663580146972
260 5 32.34501744748686 42.65574466041292 30.43579313655738
261 5 59.82864760099474 38.081450875103236 0.7439921791491911
262 5 77.65668574515512 28.762887536528922 49.95489682949603
263 5 24.564494371561064 4.680092970748514 70.55954655464217
264 5 29.954931037497328 56.91075780500859 27.737309933745323
265 5 48.718909053024035 22.28078145934001 49.756724179816715
266 5 74.4862013772818 17.768223209463464 51.15059860617956
267 5 48.73649817210129 23.817935210355028 16.984920135106062
268 5 17.33027564089519 37.97980609041752 58.02758598119892
269 5 30.301874787877022 49.87960082708604 20.71665443528911
270 5 17.019603152388225 68.70336954114573 2.4425684539474894
271 5 43.194004747319994 44.16840000562626 71.03072362566952
272 5 40.23438044484601 46.50411693793332 10.675606235208134
273 5 19.155578010442994 7.855522221722327 44.80667156396703
274 5 41.89639595312117 38.83865213946033 21.0602943890474
275 5 43.62798619917904 6.728359247482086 39.29664059051889
276 5 63.931688396368095 21.634253595290208 38.670307758560554
277 5 72.285868900983 33.086580922078824 33.74316760363315
278 5 23.097481454133252 6.581609672969612 36.203663952637115
279 5 48.81179150100104 64.31144061953464 62.53881127517541
280 5 36.54953608606936 14.946943752199404 48.56728016180756
281 5 68.0842238571689 48.14537450395302 6.993152878783254
282 5 39.94729032210515 31.266189993941097 46.980271293555475
283 5 12.821095007819059 55.167391120894 47.91391231378454
284 5 75.93003935223958 44.06053059234077 72.24549012089358
285 5 18.455005198641068 24.778437754710005 46.31029643397604
286 5 74.75566429392927 10.48912504588687 17.64340160541125
287 5 18.671852626112383 49.76090765831018 19.13000192631606
288 5 60.26895565954151 63.04059522931046 19.597109859928675
289 5 46.92459697268864 54.644685385424324 0.4241189014104179
290 5 11.813638278746954 24.21001741695847 76.31720263251603
291 5 17.946005578068725 76.8730778073453 6.999690987343838
292 5 38.35474929143074 54.18330789925381 9.015216535152835
293 5 73.33852253272333 76.07947034811522 64.16495607706264
294 5 66.70572891627711 0.7245021079877144 9.320711053177275
295 5 8.056539199439825 49.277953739374915 6.231925438430961
296 5 2.444859914404865 58.78511296452474 74.65772537629304
297 5 14.519359451903572 46.88498549158672 77.42054231973712
298 5 71.30414754678142 39.96007422141569 20.984541241558812
299 5 77.87568447681642 5.747080648710154 36.69695752311765
300 5 10.696161270409176 14.045068598881219 60.04987304884364
301 5 69.65959455816906 63.20552168405295 49.40126350051221
302 5 13.059981858035759 61.27894644825057 2.006757327202247
303 5 21.51124726481305 70.95315085725623 48.16381654957189
304 5 16.299856516726773 34.18222486985005 62.43607952513838
305 5 29.450793653180593 0.01428389089547273 62.5825677064729
306 5 51.20898296942773 1.7000119169497716 39.341211199316874
307 5 67.3041619977831 3.5021156442713406 53.76978967856111
308 5 54.395564812669626 23.59140770061555 9.251183863453367
309 5 15.59651603699894 42.94239890971702 52.3870728859348
310 5 31.25917521105151 2.4527641827668365 3.454074072119962
311 5 73.650164530009 65.79676205865303 16.910390184133018
312 5 69.36743848088616 24.230943356850055 20.133996481712405
313 5 30.378378217721995 1.6856020541116348 60.64435973744298
314 5 41.27026275851084 13.685122878858651 25.48816685859138
315 5 58.726248321159524 28.76475881969364 13.388486219880646
316 5 37.02532479509188 65.40745804266078 3.4326434483209494
317 5 62.46720238724092 0.9402294581995414 45.351558125578926
318 5 28.394214227867966 52.61072591536816 12.530364048366167
319 5 39.726619535733874 8.263584349852946 66.58969787004052
320 5 26.84323288086572 72.84691122302613 12.646020275281124
321 5 32.06903817123474 23.537184514485038 77.24988257704574
322 5 12.31504170735073 60.16983307513704 68.27369380229236
323 5 34.91429186439029 50.13228271534604 42.88762490549441
324 5 51.12427319626952 62.307996044316674 42.227214019464384
325 5 30.641951243908547 73.11570650778383 65.16773191563921
326 5 50.93492320315466 27.866328926387414 76.98096065286244
327 5 8.96026221595297 36.99981170432596 3.241002166406861
328 5 3.73861305281622 39.3374859058539 69.84885209875925
329 5 73.23508217842277 68.44809384044011 59.87633253398522
330 5 30.89403511840507 62.44477153966633 2.393812077750324
331 5 45.69226912532565 54.48449850508613 59.88389422577315
332 5 44.29105969493822 57.64634946689281 54.30963710702232
333 5 34.1116635798235 35.7669318993635 44.3073515353935
334 5 12.359582424119367 53.54595997155435 64.20167230918645
335 5 11.25106632864727 37.225745835003494 29.533744774712723
336 5 52.40444255492422 6.093533319725053 46.138574942345095
337 5 1.734127226697819 36.6314287896404 33.382015225201286
338 5 35.03020289198476 2.5816972726920437 7.102146658745239
339 5 37.39207786463982 15.61877008704838 18.389883516397617
340 5 76.18543475021485 44.51211277806722 2.4117731859173053
341 5 63.31954474442024 23.664551804835675 42.74401494217815
342 5 49.2053652106244 27.08438144515219 74.85542741990152
343 5 72.4738635701417 75.00396251658454 14.903585780057172
344 5 18.34786627730878 62.18690754259553 75.53820384331961
345 5 13.400821534371886 41.66102840171107 14.180619186803986
346 5 17.31176480020255 30.16610529099026 55.46955867076435
347 5 60.60075763279091 10.315442760723332 79.01044747420724
348 5 14.919635376236746 50.588394002961486 3.6410013158985395
349 5 59.870027683796614 54.3429102535367 73.08620731501733
350 5 67.23402327592056 29.799987924014257 68.56801194635257
351 5 73.10977912346287 36.87147608120315 74.0968135715911
352 5 52.79665303801074 9.107164087519527 63.32829081973868
353 5 24.398907164595723 2.3229287219500394 9.380500246585962
354 5 42.99850967721871 33.12468823917071 77.18232320217855
355 5 12.455709510729822 60.859040975203506 38.20659981820874
356 5 15.273785680147403 60.54575929421503 59.00096123710155
357 5 25.125642389815702 65.3865339284777 60.387037947217934
358 5 45.847989365909136 51.422151175632294 1.211511272874612
359 5 34.51263385972027 42.19076021660424 46.280079966928206
360 5 15.170404249892277 1.7146153543055638 10.309998573031203
361 5 16.849033878086328 74.84523278426158 65.8520521772145
362 5 33.14139900013151 72.0054729532557 65.80848497585511
363 5 55.72356697941308 55.12424728201845 62.508669126118555
364 5 44.45683653053637 14.241827768186376 48.542167032193476
365 5 45.010741194452336 0.5042471845376917 62.80713474912183
366 5 22.765995193815318 11.940931448776356 4.230325667775808
367 5 12.45264161966939 72.57367972234069 2.778183556453826
368 5 36.56620952438424 0.20390028203028335 79.61588506829787
369 5 3.6943334722124646 79.09889711688571 78.47802081180971
370 5 2.853011522882348 54.91572636645526 42.0544952612661
371 5 60.72924247873861 31.903716128427742 27.134411783274437
372 5 10.735095047506801 8.54961928246512 63.41599169659138
373 5 47.53437106577504 50.15487317154963 11.535256003983887
374 5 26.114046264906406 70.64915181542769 67.08925121642936
375 5 41.16331223878865 33.04995560086212 57.755896083818726
376 5 49.20972264239791 40.82158749336901 17.68094263467059
377 5 9.21364995032577 79.01709107394561 59.65689364785182
378 5 51.715957614210346 33.126649918369274 34.62304966997383
379 5 46.928554834089965 10.833095297331685 14.330082712443913
380 5 23.330373743889737 70.36439767212222 9.37831628692647
381 5 67.50336207338209 0.9804993502928565 74.69543622469008
382 5 75.85550384217068 33.854616851448476 71.33679900542829
383 5 76.30562797712585 44.96963506313356 36.44497840809158
384 5 65.53052089292609 50.10104315542396 43.99557579801916
385 5 8.168392061954389 5.26252672678248 60.3567392357489
386 5 75.7626016997869 2.132154606227965 4.613384536286037
387 5 42.37352596860841 59.02961504370548 29.730989277816022
388 5 8.629465186952938 24.547287504172353 45.869480587906835
389 5 11.882916969478394 24.855631469621134 38.049456533769906
390 5 36.56747580258701 8.001642507278236 8.270365294850036
391 5 10.361112119544476 24.436474214858972 28.81285802448671
392 5 47.36026312450465 64.86541240752997 30.819249981519793
393 5 50.04438857217107 78.2360967129773 35.32995330449524
394 5 46.44442584899378 63.962549683889506 70.7869499033347
395 5 67.27634493507877 42.956346337347405 2.293960766509291
396 5 20.44092612673542 30.822658525543964 42.12509606428296
397 5 42.81541490782521 6.358532978214126 58.51571540220565
398 5 15.960136139141484 45.994095200218226 72.36945868742046
399 5 12.594380463512014 1.3248043299907464 5.7939740601932925
400 5 67.23784665924502 68.35327307971916 47.116770643382765
401 5 23.569429752739723 33.17366539255045 55.14074210387578
402 5 42.963096202324465 25.245592414185495 56.314317086545984
403 5 12.59892082961277 55.21437077797274 8.007925492232129
404 5 78.52119598451597 10.761926781978385 59.11581576795484
405 5 17.69663137053974 39.89983729713898 47.31675109212213
406 5 79.05328961711172 54.63696016480476 70.90707947149542
407 5 11.857426740853104 42.41680950397689 17.429093460484708
408 5 27.64739985790269 4.958858373347117 65.53941108494077
409 5 6.3629622741613545 28.290125572678154 46.33550899886036
410 5 5.666467711928501 61.7293248093735 50.00131766600249
411 5 9.95178444295231 68.67880619501547 10.151654822786794
412 5 62.255996203465415 60.92456395702031 19.49383918586649
413 5 30.814173656841024 45.949530013214286 25.37421940519432
414 5 70.84387038503765 45.44428721982484 25.20838716468982
415 5 2.246753780093017 42.89428738892594 67.27691577685201
416 5 78.41087700823768 66.98226609947433 36.886496252897565
417 5 13.91644187002429 51.7100926125149 23.59795804335019
418 5 34.683609130704575 18.474791165771464 9.248234782669043
419 5 71.22480309059759 60.633629273332204 10.671464396364353
420 5 15.257275052438818 67.66063672972743 77.35608722083644
421 5 71.25302238963201 74.60176324933839 74.2206816223698
422 5 33.109350538164556 39.47663100939123 36.89639990861221
423 5 10.629097805615672 41.3500158540675 75.0256739970293
424 5 15.751180118941273 1.6514057426441986 30.73446489303337
425 5 24.033764742438457 31.629576193635003 60.24312065200902
426 5 21.554423758251023 36.13971661130559 2.437417975872669
427 5 58.695476306168 63.14342187124683 22.70214285504592
428 5 52.3072247576562 74.5883352720857 71.54254253812623
429 5 34.43222749543438 55.0848539712899 65.6256697307249
430 5 5.231433202996563 58.11207429414804 67.94751282392889
431 5 63.38083865378352 27.122202623589107 71.46262037352868
432 5 11.250280978642184 69.17579035424664 78.61727975177673
433 5 53.95139405611746 72.33751836230901 69.35746275537542
434 5 48.78184097639418 29.737610828477184 25.52430220389646
435 5 22.01168029961811 26.467490092418835 29.7097401827998
436 5 69.29369656371499 59.081931099166866 24.527574041341882
437 5 10.18913099487411 77.23322042425983 25.4277316066769
438 5 50.2027845105647 76.44198602838514 62.6565838022317
439 5 8.545505483360326 69.97180177711287 31.316847428499454
440 5 47.50958075954991 57.12507950718216 9.518867589987137
441 5 71.77997493915848 28.355129585630646 8.779382202561685
442 5 79.21155367123322 30.5311935478608 10.003331160697705
443 5 7.320731080580971 65.73109219133966 11.27080775495989
444 5 40.39747865715564 0.8697220115861413 72.49114388161189
445 5 49.48180244316831 77.92893816970947 20.02909140962805
446 5 46.075594915223284 77.73719783611078 17.802415923592335
447 5 2.943560064496304 43.65789076767242 42.12512004329665
448 5 59.539194387331015 73.34468465770915 65.22482284417005
449 5 79.25904883609397 27.778358269584814 75.3293164054156
450 5 30.172080653907763 76.24977763919743 20.21237559107665
451 5 72.35595460604716 49.86370646219372 8.594425754105947
452 5 4.72713334548456 70.20721973740338 4.803213672061234
453 5 52.01241973695525 42.42569270477849 24.256089808622292
454 5 12.25363628668746 33.21910895168094 7.751528290925971
455 5 78.97547626036081 41.42930909220146 5.056865150831262
456 5 41.156439305574274 20.03932282122164 28.064387394696464
457 5 32.41330340327792 9.814105849126724 77.64253184730156
458 5 71.19418139023234 58.75987911063526 10.614972310117114
459 5 48.31551922499632 17.10559821454366 22.541605692266504
460 5 20.199344091030092 69.59646497026715 70.36721047225835
461 5 73.83977811021406 40.25746234249257 55.50598173362383
462 5 37.66453249382698 2.9354496962223235 45.931496762741155
463 5 57.3511603238553 77.78056573683268 42.577127744198556
464 5 0.7470111971856118 3.379223569236907 25.54390741152476
465 5 24.70136209886292 55.229982804922074 68.31093216417268
466 5 40.76202545316006 79.12972388453193 43.19177507903867
467 5 46.47339347809125 9.869978895961962 38.29066467462581
468 5 45.27821850996603 70.00076659954392 22.052597843140028
469 5 73.6619113283589 78.28343494661102 43.17512477512565
470 5 57.56168845963453 33.1421529176835 65.75257585756887
471 5 38.634049266233056 31.592024581319258 52.83053437295512
472 5 25.90775931763185 38.76061112011976 56.15403483474484
473 5 55.176459974376 20.278158209581367 8.313229257579962
474 5 70.22086068082069 10.926372323093243 42.368090457784916
475 5 48.10068261949919 47.265460397847335 32.02969018360308
476 5 76.87359263409209 5.243106397775765 10.639839435578923
477 5 56.68625158187363 23.303869597061745 18.182187825906052
478 5 12.38760788502297 24.46921189091261 51.98683975569017
479 5 78.71464969509996 70.21542867035996 66.04647784022049
480 5 4.107443013457644 69.0248016311603 74.18060197524196
481 5 27.502484462191862 5.2961059316312245 1.2133238421567867
482 5 47.30555754136796 49.91341784018986 66.45324392083471
483 5 74.50551172023535 22.247362173204266 13.255911603666828
484 5 5.712848419545453 53.5797701063562 62.61420469939863
485 5 33.876545121712525 55.55533225582271 41.18112586699992
486 5 32.40503281442824 33.9249644150124 65.68144362153105
487 5 74.43862033485185 25.80311921862549 71.73219150044274
488 5 0.0784198008424132 8.597303287018818 24.020444064543938
489 5 78.29060703767077 31.451806891783686 72.70156526951504
490 5 77.64825530800404 58.75850913678282 68.86597442366298
491 5 6.767093803281268 18.547859921085998 64.42735897582541
492 5 48.48065525664465 14.795450954864334 64.26419682427009
493 5 1.3679325631022838 9.656845485876651 62.81205006263147