# LAMMPS data file
1000 atoms
5 atom types
0.0 1.0 xlo xhi
0.0 1.0 ylo yhi
0.0 1.0 zlo zhi

Atoms  # atomic: id tyoe x y z

1 5 0.8065018869189288 0.67236700449594 0.7192513447710516
2 5 0.01881547683824769 0.748827750107539 0.8042169321691367
3 5 0.6640830437658586 0.6390780291218242 0.9594038489242243
4 5 0.056006918680909346 0.29736596642109203 0.039381170133227505
5 5 0.3101077487512688 0.575484726983295 0.9469645688921896
6 5 0.6406006688528484 0.26031465729793846 0.8239942459976333
7 5 0.08203122801722829 0.6466090621609585 0.3005317288459447
8 5 0.5021579512259372 0.5096634825301402 0.36281794017325175
9 5 0.20676726691940495 0.9104235484039565 0.4034014827309724
10 5 0.7651670240435117 0.16289643445034663 0.5746293888951605
11 5 0.9713270867849432 0.5904290984756553 0.7203706097695333
12 5 0.09372395478317763 0.7757243424464639 0.7398595316519578
13 5 0.46338982281424634 0.7354397089619941 0.8731018927225374
14 5 0.3828730990932837 0.17331048764889356 0.6051011808293485
15 5 0.9423550493638064 0.9405077955386328 0.5440095600328111
16 5 0.7394845783261089 0.7818979960154306 0.10435963967603212
17 5 0.5440828477976849 0.34969963442499263 0.13265463457892013
18 5 0.862625066101118 0.2097798271063358 0.5511750679572796
19 5 0.43232963802925717 0.9358882806414976 0.12492248184359067
20 5 0.8456227240587626 0.544726080721829 0.6521163513659622
21 5 0.3694733398056973 0.03137014546265471 0.5229467529902837
22 5 0.5212031917907913 0.5649776347136881 0.06406656021689328
23 5 0.16862657535086634 0.742784785464883 0.1873527299510358
24 5 0.040164245454460845 0.024766863182486665 0.005452049525808689
25 5 0.05198309042614113 0.6324154156965952 0.7261401609767512
26 5 0.8930690356665247 0.8596178003224755 0.1415479897626698
27 5 0.5801991758100239 0.36538017990308824 0.5282753836815545
28 5 0.6150833993003582 0.5782857807525315 0.7140231106799451
29 5 0.008227620898755172 0.7202880455337801 0.5341029382489912
30 5 0.4316666467496503 0.8420770580228458 0.3126012916382792
31 5 0.7037249884283543 0.25071128779650986 0.9993883465439838
32 5 0.4032588557111726 0.903527352626132 0.44214324546088246
33 5 0.6337463301599128 0.19276340870407072 0.7019508940818415
34 5 0.6905740447192992 0.13884127750923503 0.016820550098742726
35 5 0.8032774818070494 0.7137021892924189 0.6009035318893248
36 5 0.7605226662899048 0.10592700600966964 0.2579887034807442
37 5 0.6351685170883038 0.6789308033390122 0.5273213119153244
38 5 0.024250653803008948 0.8385471657972854 0.11930945572080243
39 5 0.8425181700942201 0.796583884973564 0.8801024612730115
40 5 0.5859005698393893 0.4061715440675131 0.000701770259992962
41 5 0.07833238551656052 0.12693466826196054 0.8428555302366558
42 5 0.3693706035706257 0.5831912029611985 0.9522847195224813
43 5 0.3101695250106127 0.022504790749885983 0.9902048576828237
44 5 0.0045509741890188415 0.7906347779430084 0.4642798066509882
45 5 0.18407254408569151 0.8721563473655357 0.8730207584279321
46 5 0.9331688574332195 0.024418852211513298 0.5897270564793294
47 5 0.366358344514634 0.8435167771888539 0.3058289045026733
48 5 0.3408556876110236 0.6691231251185362 0.22988588028939627
49 5 0.5944937491656079 0.6175095222522782 0.6481980759886637
50 5 0.20345200343918723 0.7413421292947225 0.010766506217410043
51 5 0.952475657129074 0.1445197425990986 0.43270170495658977
52 5 0.7382308659900099 0.8996003465417677 0.4501859553248039
53 5 0.3853360954042594 0.7285395540544976 0.31656604387139264
54 5 0.7674670143157264 0.8970335398974086 0.7462006672752075
55 5 0.5808354386062222 0.8059021477402218 0.5986643257521326
56 5 0.5754266452747414 0.7751036454393044 0.5175190330917313
57 5 0.09955320137060353 0.27131299143920984 0.47309461813022846
58 5 0.21055466525794153 0.9461781416195814 0.1844899518780737
59 5 0.9559009689900428 0.3832535058224208 0.12639755040531564
60 5 0.4532756715453996 0.952912961677128 0.23106299337289582
61 5 0.8824411145009197 0.21787001237302794 0.7953571419046248
62 5 0.24039855665457033 0.4546952667607328 0.8248027460828806
63 5 0.3268908376270633 0.1608301315642785 0.7169022534621429
64 5 0.32451158510505973 0.017633190617489802 0.48486242834234994
65 5 0.8765910184743019 0.35454995392394284 0.8320713405494956
66 5 0.93080482051985 0.14932678442486447 0.43817872244160716
67 5 0.1865453916369898 0.1103326869727328 0.2577833310097093
68 5 0.9443914187883 0.3081214759713681 0.6533689152366082
69 5 0.8301489886815984 0.7411534833112985 0.7372930151771097
70 5 0.615534236120392 0.7977308959040771 0.4025189388486218
71 5 0.32850844438036975 0.19625884715558906 0.09920068767897061
72 5 0.418662508690146 0.9351726387289163 0.21551606341534746
73 5 0.9585497605851325 0.2799296259288653 0.363645139552112
74 5 0.06624044970318121 0.9527865933280493 0.22186254897986857
75 5 0.8902735463566203 0.5696654090481595 0.5276570161257
76 5 0.8875245159238954 0.4014987648399012 0.38659138978619967
77 5 0.8863891556872491 0.44807045064333817 0.6373234638114651
78 5 0.43147128481285113 0.3914469895884316 0.4022428837118277
79 5 0.08920660936747793 0.8771095217961177 0.1066193757401459
80 5 0.16505044298578175 0.9333712318366987 0.5235541506286756
81 5 0.39709884618664815 0.7997365749216051 0.5702567615631516
82 5 0.10704121398911581 0.06298770962859612 0.08251582699697857
83 5 0.9698237260517666 0.16755538088899447 0.1198327595100872
84 5 0.9588486311249548 0.31345013011858613 0.7665964022152592
85 5 0.08117093194921932 0.9244295833409057 0.5776867931953171
86 5 0.7295822793260217 0.4628519266548782 0.5011020232902719
87 5 0.10606260479077823 0.8676243177871465 0.5018759259400889
88 5 0.13810823776978343 0.5108129631086696 0.5112073343526538
89 5 0.8611372601987326 0.6845278346914374 0.7955403649478893
90 5 0.1793832601548887 0.5887208286319359 0.28983965999716077
91 5 0.932560847476894 0.7796623414461421 0.9095502011857438
92 5 0.8359800709294781 0.13162761127631684 0.8508107195334971
93 5 0.9485217119876739 0.5948537986523118 0.6944374775815032
94 5 0.7597483105905715 0.8530285387167518 0.8963916625926647
95 5 0.3634124287269769 0.9261138264665428 0.3676108554887354
96 5 0.23741034630986346 0.9362523812516922 0.48447748418039305
97 5 0.7514234849527148 0.6362954750365745 0.7459688629820719
98 5 0.4021810282379804 0.256596761558358 0.48673364604586555
99 5 0.8879255458077608 0.6560654554247997 0.2445475482725994
100 5 0.3052486347290857 0.9040222130627887 0.6148037861648266
101 5 0.33532299912358465 0.8842655638260086 0.8974935979727374
102 5 0.8886004424089546 0.8059066884783079 0.6504864047406864
103 5 0.31325693953165334 0.9896657692625926 0.22103174077710153
104 5 0.334096507907651 0.6751917264918863 0.8059516012403404
105 5 0.49356506482266205 0.18192012889166775 0.6449927358900113
106 5 0.5856592334159756 0.4643251885119841 0.5317031619447579
107 5 0.7685741465896399 0.37214818943178607 0.2948858206377981
108 5 0.2085877795673089 0.2244352854571604 0.46653635986637165
109 5 0.5339456020517677 0.09061410752196553 0.35256003890525756
110 5 0.5307357243795129 0.22923556030265202 0.49729714994527685
111 5 0.8187263403748906 0.8991495299690974 0.542234668915245
112 5 0.17277091837402758 0.03779488458957725 0.28859493251236046
113 5 0.7018335334293788 0.4289424870056501 0.1697742944478574
114 5 0.7405645164254495 0.962673194450245 0.8092127517117023
115 5 0.11847958378720957 0.8439076971805982 0.5817191434024408
116 5 0.004686415482834327 0.7137912328480739 0.6034719127669319
117 5 0.7955878225102916 0.7367698316473096 0.1700324306139489
118 5 0.37773225384779496 0.35754288726219563 0.2941829214903863
119 5 0.4730322909907696 0.2685012509042334 0.4216117566579597
120 5 0.9012098101439294 0.3472443754507808 0.03481927388425843
121 5 0.169017841210794 0.7684242591336393 0.6731063453749623
122 5 0.8387505133504723 0.1646116419752215 0.6613572009535007
123 5 0.15610890647027342 0.8474026526764383 0.7264212862023801
124 5 0.7463233776914789 0.7864209590526237 0.4325464448601709
125 5 0.8940624333804474 0.28674857290268374 0.5712477134219756
126 5 0.42158265291664176 0.7149923034125046 0.0605381941933294
127 5 0.3494843535074942 0.35209599127090385 0.9756286487522489
128 5 0.37680609012611743 0.2953174541790543 0.33458958341657663
129 5 0.3365310289746124 0.049181533786556986 0.8825521299324219
130 5 0.3414513396632629 0.2099643771670544 0.6696646244923941
131 5 0.2077649300257458 0.7458192949174484 0.4619286146121462
132 5 0.44911794601902644 0.541351006390388 0.5611796186798278
133 5 0.6059329156924228 0.9875351024066712 0.29565062856971225
134 5 0.15112632915174606 0.1373326049326392 0.10528696813031713
135 5 0.41154445954620156 0.24163249675181153 0.7565908102864256
136 5 0.8300204175817134 0.15286020518309584 0.28757148248220954
137 5 0.08323409352786304 0.9651527326282927 0.5883703704376781
138 5 0.7951673711073008 0.7083052638798232 0.6410941617225154
139 5 0.2718225032015614 0.25200105350171975 0.14060214523405956
140 5 0.774592562118844 0.3377689259387737 0.6420098604308022
141 5 0.7820050480391842 0.004883605066411167 0.37991360006601826
142 5 0.09523209103650843 0.44396608414147887 0.6855204262089876
143 5 0.7716518242689683 0.8104461711456749 0.28395589528061826
144 5 0.8333218455812232 0.09091316478691414 0.28272393740639457
145 5 0.6629792301496978 0.1754937435176629 0.3957138442276765
146 5 0.15226829165977507 0.9991598083298997 0.8106250871463826
147 5 0.7511271403286606 0.7693484298961306 0.34228418535946536
148 5 0.8855059993651045 0.20040567748936067 0.8538460878432745
149 5 0.17286024589925575 0.45161333071689125 0.0012740182105046571
150 5 0.7850330934349731 0.9216842818986177 0.28465939091784287
151 5 0.8754451557523968 0.632512398382029 0.808824581883
152 5 0.5669469911465956 0.7302056468617016 0.5704788572460051
153 5 0.254973448924078 0.35192565623124916 0.5274580910884263
154 5 0.6854207645563287 0.9295278257809557 0.9736585548474167
155 5 0.01795487261788442 0.6819469762506253 0.3014367548831789
156 5 0.3176654756402928 0.6165649673843397 0.38493212958655965
157 5 0.3835104300343425 0.8315346516035772 0.8178477433778153
158 5 0.36527915678188305 0.9426748258034994 0.15236372466008818
159 5 0.7386588661205449 0.6591043595123657 0.6923555616214834
160 5 0.5861047953339418 0.41449277126252926 0.8736746641711159
161 5 0.12417572929158882 0.7721509417234345 0.5443248347899887
162 5 0.5886254125874716 0.744283053668599 0.3572064063785714
163 5 0.25088045629079014 0.23752048452981334 0.4085834575221481
164 5 0.3636849362275769 0.5853109743338091 0.8099561384868517
165 5 0.7730990316108916 0.8762550028234756 0.9632842490447397
166 5 0.6212967004230218 0.9400973524137861 0.6037838894845334
167 5 0.2937263017570644 0.42001590253614907 0.5478173696138776
168 5 0.8035530144152283 0.5669644203644294 0.8107769203486217
169 5 0.8404713561791058 0.8751560907410288 0.6169102421709852
170 5 0.3847813497422907 0.8889274630098265 0.5905515547712532
171 5 0.7423022270997205 0.6451899699065813 0.8357800124609963
172 5 0.12592488109236366 0.9801530915989041 0.37065264771286976
173 5 0.5343640692883483 0.29440805852178054 0.22358189392097005
174 5 0.5736925836484088 0.4383060409935283 0.45194529225564617
175 5 0.4992674823282207 0.7684041157985458 0.9032040642317857
176 5 0.694333939552155 0.6272470779883498 0.7802022284970781
177 5 0.8651936147809262 0.659869670383224 0.7594424086463459
178 5 0.8334948702637522 0.22937286055692008 0.7491872111775575
179 5 0.5932926076708807 0.1268210756731467 0.4211649766150093
180 5 0.8295249747526862 0.6275566686309787 0.25760549728172233
181 5 0.03003842180648575 0.5539602930277643 0.26957438901644215
182 5 0.19909997644655608 0.45250164940828386 0.8819123517559442
183 5 0.2055409616156456 0.6500016583773808 0.37408860485956175
184 5 0.31242257082262337 0.9085211839351537 0.7480599259600743
185 5 0.2541718063836472 0.6638380047843349 0.8136972293730796
186 5 0.95831001491639 0.8456638579446747 0.8762180220328989
187 5 0.9688082121803383 0.18312622930291644 0.793921673189263
188 5 0.5177230724386517 0.043886047801918626 0.627068135286938
189 5 0.6434925941660721 0.025254812711591246 0.3722901879914303
190 5 0.6659894096244504 0.41833819710902453 0.8119360270459519
191 5 0.900503649833595 0.9859365308000199 0.7668292708559094
192 5 0.6015593856364249 0.3937083233970756 0.10330741505797747
193 5 0.656653979304519 0.0112773484228742 0.840103167584778
194 5 0.12547277013917846 0.3160507596825711 0.46677372899010305
195 5 0.14214687560622585 0.7693849137283043 0.9624239757988593
196 5 0.2043879489199526 0.5517880305282676 0.329847597893141
197 5 0.8016743974569785 0.5943269748335154 0.8364657619982967
198 5 0.21172645342724639 0.025417648789873182 0.5593576709680976
199 5 0.8453205250755914 0.5074480327801052 0.11942267268305129
200 5 0.7411767355427098 0.39846899830589744 0.4764017326530261
201 5 0.289479588184148 0.9471645456606407 0.25358408587602443
202 5 0.004527872336485106 0.12624849482507428 0.8833964757952032
203 5 0.2588804492075667 0.501298614104413 0.28603180820354424
204 5 0.10680951187416754 0.8531714400938296 0.956337782480684
205 5 0.8594421507251261 0.8155337349158014 0.5043814096677878
206 5 0.8949849388126532 0.43459096298639677 0.2450229408147263
207 5 0.5245144082031334 0.8016428402486621 0.16600734273385165
208 5 0.6474527831150713 0.9178225543909945 0.8281823975554209
209 5 0.3666034452472826 0.8957227200066614 0.13799281680776887
210 5 0.9407135630550029 0.9344630612879508 0.9898237304116745
211 5 0.37115171251840484 0.3851212486727029 0.5029091793587555
212 5 0.2041937161528845 0.921845731676307 0.24550368882084916
213 5 0.24191627385987569 0.3789651963174435 0.28681159763880115
214 5 0.39983742643480524 0.7813487018932981 0.8994010973266922
215 5 0.2965651781957641 0.8048188003244929 0.09201186294278019
216 5 0.45353437748785463 0.15173084174724416 0.17583353946024693
217 5 0.7462997978925927 0.9378534564986416 0.2148178649450635
218 5 0.5617384473375833 0.8825033507648776 0.9977455313416913
219 5 0.3967249918242767 0.006234629246608336 0.6400452492055141
220 5 0.06355996352405024 0.3199578746247975 0.23997246557366014
221 5 0.8877597462815547 0.12494176605935559 0.19053499802272666
222 5 0.8685856221083106 0.526315146314675 0.8672922448387015
223 5 0.9807174810822976 0.4680966628148213 0.8573033454502779
224 5 0.7387563168869407 0.7741491354980764 0.8526175799074242
225 5 0.8827045020674256 0.33957678657663437 0.44405223498574997
226 5 0.5658467855166248 0.6558249406625896 0.41544358854148533
227 5 0.17647485824294573 0.32958900366598753 0.2988090471106146
228 5 0.9394191183336871 0.5612559524007987 0.6726148469913878
229 5 0.5550095420886004 0.08074798390550453 0.6875015827700046
230 5 0.23192112360306882 0.031486161896321696 0.739659590736495
231 5 0.20690805026724501 0.05952067311541742 0.17650750065929333
232 5 0.12941439716911896 0.18299389858198167 0.7946807976993713
233 5 0.7942400261575646 0.5152541735979638 0.01726368830564118
234 5 0.6454367557328425 0.1792875755168548 0.7551008098232066
235 5 0.9387163667269343 0.955935961306936 0.6248456856724324
236 5 0.6213591519162722 0.3164191203310779 0.7767991278830534
237 5 0.08911851461713982 0.5806117859922683 0.11662194349130739
238 5 0.2975259179900427 0.3071142830068141 0.09938395994935934
239 5 0.8274375959832904 0.9937006471174658 0.25962948150555765
240 5 0.45380609440231123 0.35016062489766187 0.9254767042739552
241 5 0.599049683474178 0.2240245082989888 0.926247336001459
242 5 0.7329936781841817 0.11509268653637628 0.5463591925203906
243 5 0.7948807866858338 0.23139749437638935 0.3647001625141857
244 5 0.8902034637734186 0.27826062210454094 0.9426824954130409
245 5 0.6865878552813413 0.9662917541055907 0.5991198876181135
246 5 0.9686171313848344 0.07967562437265707 0.3422300021117082
247 5 0.1833685559052839 0.9430606031261637 0.6433810682908132
248 5 0.8243979611288567 0.04853302728789588 0.616900721358114
249 5 0.7761849649017841 0.7735376239168088 0.4112378397125891
250 5 0.35519977167842476 0.31696500533067484 0.6734065533952329
251 5 0.8580224579140328 0.5608169606647688 0.5967693265221784
252 5 0.9292341294245624 0.9349525467964468 0.12884435877025302
253 5 0.5406304393577771 0.7691474636150932 0.8524197718131242
254 5 0.059920730845547165 0.23547008644277145 0.8001350538410447
255 5 0.6777619792101993 0.8568226212071604 0.6433664215299546
256 5 0.7934640936911591 0.6115977571310746 0.4225837320750524
257 5 0.8991441395695112 0.5524052494937177 0.9125900610502052
258 5 0.45674953461070167 0.8951566752469338 0.6122317922859086
259 5 0.572132905964296 0.03852029937883705 0.9652938459113583
260 5 0.9436624274501411 0.6553243588968933 0.8399129601398246
261 5 0.35212333733045464 0.21744694579851553 0.7118095602404042
262 5 0.2462144121891756 0.9402968195410699 0.07254839295928028
263 5 0.23891752610291628 0.07280540450351392 0.31855075496838736
264 5 0.7293572544509784 0.3277657707587558 0.31527895261600736
265 5 0.5843969581820989 0.6310831927201502 0.9214588254158999
266 5 0.7763468413657179 0.07546348281332826 0.639894079891013
267 5 0.20124064204860592 0.2644682323248503 0.9756451364051624
268 5 0.9850298368952853 0.5648541192579095 0.4477257698347433
269 5 0.28926165031645046 0.8859937153854802 0.037545653726345996
270 5 0.5480801194143269 0.9617670473779827 0.33812614380847816
271 4 0.8041565523934899 0.8774039580173423 0.722274466432373
272 4 0.7325061965224867 0.4542020473690175 0.3115384369222005
273 4 0.5160134743164148 0.8282001821477927 0.9935999829176912
274 4 0.44764879458029394 0.5282756387262187 0.9464756430072339
275 4 0.7907817328153262 0.8494611173630492 0.1409774477358744
276 4 0.4892282734457797 0.7911500288628927 0.9890566792799167
277 4 0.4929202724828998 0.15932835321789995 0.02890129771100869
278 4 0.861946030223864 0.03422457370060772 0.06251904096850847
279 4 0.6750774310180196 0.17319845043738336 0.5097187720254488
280 4 0.4973619721592244 0.2745661709557822 0.5738652907034946
281 4 0.9557740633428136 0.6221289880820664 0.37872111396273134
282 4 0.28700476694243104 0.7427102926453802 0.7767820617603545
283 4 0.7526258301950758 0.8632642736305167 0.43697172290121145
284 4 0.8589991401162436 0.374039894485819 0.6888550572752407
285 4 0.6216222363218864 0.5119087788679233 0.6179604579252659
286 4 0.6517424364298515 0.9964534210522078 0.934301390952777
287 4 0.09000121237325631 0.15318764803737228 0.24082057671099322
288 4 0.7285703309122669 0.513759788412747 0.809936838317699
289 4 0.41987605647758786 0.3515685717916087 0.7408686407914984
290 4 0.10899332805855277 0.09833821631428497 0.241526506999298
291 4 0.5773274016973108 0.974471666765845 0.6092986445495097
292 4 0.725778864057392 0.8063614208828985 0.23752655437097991
293 4 0.8445874521362188 0.8836881861508505 0.33353159951223865
294 4 0.6147984792446872 0.7448209033506941 0.31253036632070896
295 4 0.9365925445829186 0.054737650725367404 0.2615620881859734
296 4 0.2676733241575151 0.7969008654491778 0.09008486855760556
297 4 0.5071006426144141 0.014680766732972583 0.1222970764364496
298 4 0.01751942498768877 0.10511843046544378 0.09984962523034546
299 4 0.14772854811327774 0.2448084585637581 0.8751117113413376
300 4 0.2092442923833422 0.3347205638651384 0.46729015123668705
301 4 0.05935073079380737 0.08867294072619925 0.8047123295396575
302 4 0.29286957274590697 0.6797800654542687 0.4274068260003816
303 4 0.30994836498539147 0.2788735643961786 0.5598256339520972
304 4 0.13728743332831228 0.009658766912337025 0.6669745475042473
305 4 0.37117722199657166 0.10798048570683039 0.8482188925783983
306 4 0.2732042702863813 0.9292622048489815 0.130868959494284
307 4 0.32792746186787025 0.46247358188913434 0.9803900209659338
308 4 0.45897693557523367 0.2805060845478139 0.8923330602744534
309 4 0.4056262061335909 0.07614388348259715 0.15110298756982066
310 4 0.03565790654230183 0.15733968044496538 0.2808515960286042
311 4 0.1271810487825107 0.9747437847058413 0.14064485374611757
312 4 0.6188766992824619 0.576613998167817 0.8461615017277747
313 4 0.3793307909640208 0.024367194924583724 0.35358965608695947
314 4 0.8038132862458024 0.641340895582981 0.06764701160722919
315 4 0.31006337191401134 0.7143380324405582 0.9776967034952291
316 4 0.35044288540633917 0.6290471612184093 0.5404467585714345
317 4 0.5309157527812367 0.6378180615745458 0.37132720644952055
318 4 0.3599048755196753 0.038585231779050266 0.9812431982225651
319 4 0.30087534784172143 0.3745048291958263 0.23344976639393367
320 4 0.3217581605232932 0.4726923718787127 0.5925208362775155
321 4 0.3409699807007567 0.3086259696404344 0.48814815153962565
322 4 0.06922848984112995 0.11644147111254521 0.07103886487789735
323 4 0.12703421879317278 0.3796809213597444 0.39805242812079833
324 4 0.4488791556797219 0.4346712482444972 0.9312546975378364
325 4 0.3249628667847202 0.4469673060185565 0.9075808048903314
326 4 0.041754995551829266 0.9382765618600578 0.2287989337350469
327 4 0.6610852694853184 0.8538460187910307 0.4105378696903088
328 4 0.6494534583316884 0.1681987995914893 0.48728266853446356
329 4 0.7075577148155424 0.6764769981442971 0.9004136793375044
330 4 0.9828993518052673 0.05047587629897077 0.26571008080747205
331 4 0.2341310221480234 0.07373698390063954 0.06182098950783377
332 4 0.3114569662464046 0.8360826437109667 0.8747371505041411
333 4 0.3816615507794192 0.7579313517158758 0.7532479317375872
334 4 0.9967275517418543 0.42332873854658315 0.623237322390686
335 4 0.11549563088334569 0.7003764759195682 0.3248541735296404
336 4 0.836550611049569 0.7913112929246733 0.12626536643361352
337 4 0.5984370827904884 0.26965904698165477 0.16173462439171227
338 4 0.07486269358736586 0.4860963916611204 0.4497130663354567
339 4 0.7974772792557773 0.9253291386473371 0.23584887569181723
340 4 0.8215098765098352 0.7776941165901613 0.4064024805244858
341 4 0.9392506039761219 0.7054253039076251 0.45872975155742846
342 4 0.12344149296800244 0.6564836784022758 0.5935445615728292
343 4 0.7536004926350458 0.4873836261988177 0.5612291716090139
344 4 0.9882422726149271 0.855195719568516 0.38697688565921684
345 4 0.7735884230228516 0.1672679678504827 0.5373025681577367
346 4 0.3907579679403451 0.913095776652668 0.16192710214756567
347 4 0.6272215056984605 0.6442539207696404 0.7208587999228548
348 4 0.5315189782286434 0.9114485986509046 0.5863489584150477
349 4 0.4290558515919758 0.9047367524905162 0.711287563305018
350 4 0.4124767180195267 0.20645711750872553 0.020071481236384803
351 4 0.6510442729424245 0.9200852921491638 0.8185122243365349
352 4 0.9062324370678128 0.0021669265004863325 0.743213595412595
353 4 0.29437202079619273 0.8721747879051156 0.7884397100855086
354 4 0.11989997115411588 0.9600305152823309 0.7712095441631212
355 4 0.5073252504095055 0.4388917136960636 0.3487736491362513
356 4 0.31870014763531096 0.06240594879211714 0.3348084344421771
357 4 0.9105816914693808 0.29510942981261623 0.7977891991817195
358 4 0.11029150101890561 0.4446804127099031 0.11722407991327788
359 4 0.2217767679728031 0.1629247319798902 0.8967524036444094
360 4 0.7987566533872741 0.23746515764878606 0.37082958340505456
361 4 0.261831901671305 0.23815924479980521 0.04675685014953401
362 4 0.8329923115753086 0.05859252322065822 0.4468103261168561
363 4 0.6077793400911335 0.9067909350757956 0.20687551284372652
364 4 0.7119719826044847 0.3285107966081725 0.742681521258865
365 4 0.8948213890916307 0.5986675942002508 0.20010412047485127
366 4 0.24414047166445862 0.3894271392981892 0.43666670165580745
367 4 0.8522287337247589 0.011517069378222278 0.6331917918994184
368 4 0.8037061182463126 0.5578494559959817 0.7720269109066181
369 4 0.9529572328469126 0.18249497210781296 0.43977363549724957
370 4 0.4789154570166647 0.23075563341096172 0.319740305306898
371 4 0.20272829123460068 0.5714866580823806 0.08611296482622166
372 4 0.2552520935322641 0.47344774576242876 0.2747195694581791
373 4 0.999617865967639 0.5058596352445874 0.802354506350191
374 4 0.19790413205740598 0.34732202655043765 0.4357359277863708
375 4 0.727789166922776 0.8593659408532828 0.9560335722085374
376 4 0.07421616793981778 0.693465267554618 0.0884899277620983
377 4 0.7763962921893818 0.930665730270217 0.8387026912027897
378 4 0.47340154665686274 0.23650437688970338 0.7422412218693963
379 4 0.6917863708546327 0.3616013816186965 0.8342745659130636
380 4 0.5345439826306816 0.2729665575799207 0.942142953853462
381 4 0.8397313359921816 0.6170196369616338 0.1381167977240022
382 4 0.09284101578432535 0.8152159970133942 0.14028019849141027
383 4 0.6008428206744796 0.8687418985721763 0.4944100144298489
384 4 0.5048764574095599 0.05752288195482913 0.18714233453791773
385 4 0.15438016080186667 0.45219429051853977 0.759750180851344
386 4 0.5951855815341697 0.8687122566487009 0.4959639384553989
387 4 0.8228428330125453 0.05870545418827744 0.6008123432796421
388 4 0.7372291854932539 0.9916960305166883 0.181394957146486
389 4 0.7690291079112037 0.5378200907812493 0.11358425266955186
390 4 0.03143088503173619 0.5636556342270287 0.7086240858860693
391 4 0.6286184476897235 0.8511929828809484 0.18189915530962408
392 4 0.8663599144184256 0.8342982947136913 0.39310070082330173
393 4 0.18881945371830255 0.6526852866121365 0.06402590582251932
394 4 0.641996364488348 0.681250370635678 0.3108526112941956
395 4 0.7895760942835389 0.19819713760677915 0.6870240048397557
396 4 0.7163032872154328 0.13759134688330088 0.6632211004149617
397 4 0.4486136665037024 0.19796850775374386 0.6343054383395704
398 4 0.9120590945681131 0.9846454261291768 0.18709291713978093
399 4 0.9862511378631403 0.7245765446247066 0.7245937363522953
400 4 0.3849833500122358 0.9703094306582875 0.774539450289729
401 4 0.31144683307259524 0.8665067705602378 0.32114904425352075
402 4 0.4403636626720697 0.6633098879537247 0.24434509101137336
403 4 0.824714642544125 0.9137523517710758 0.3246702227077064
404 4 0.5363206450403692 0.5303695333521163 0.9640567199799043
405 4 0.7282139755952204 0.576201303687381 0.48557312352516013
406 4 0.4942455088564225 0.34568188817653844 0.5040261650352729
407 4 0.9832359722825326 0.0005917896655133204 0.5881525224108662
408 4 0.2862802872540635 0.46535820736084454 0.5164943322753384
409 4 0.6376544255160714 0.5567432595450523 0.002404133245780149
410 4 0.8555720585900822 0.14160568978123178 0.9673587333626197
411 4 0.2830460447050477 0.9272018953202142 0.8863876263990376
412 4 0.020744348152269 0.3936633332715229 0.5884611190135387
413 4 0.9823529413312766 0.1773398645856118 0.1933174305117682
414 4 0.5485789186287899 0.3304109347574954 0.5790291544926931
415 4 0.2232281983659553 0.11760784994513118 0.5901628795426014
416 4 0.1062134209541441 0.07025178472670912 0.4476966805258382
417 4 0.9104822761186471 0.9609256794390593 0.10906794447517476
418 4 0.5429381296684223 0.11422555061265705 0.8824709520165718
419 4 0.6319519193310309 0.18427155436491427 0.7882765908366659
420 4 0.8765613979618658 0.8341273152192136 0.6361006556923482
421 4 0.41955475252879315 0.21266982656622302 0.07754533369575545
422 4 0.6557577921412626 0.7950578571461068 0.16273226059956858
423 4 0.5859408357837022 0.13516276229959467 0.6779074220088789
424 4 0.008623546097757173 0.27462894744820887 0.8900958217375472
425 4 0.11017868316685198 0.8805612277946133 0.3941122215648939
426 4 0.05756593116796482 0.3158870601447228 0.5268084456171745
427 4 0.5813721248980337 0.144827323375613 0.13276865645573732
428 4 0.2589099062531731 0.5190828999729911 0.7365458550829679
429 4 0.8368153601236824 0.6201410044577783 0.2756182309974464
430 4 0.030378167904333453 0.9600412879357113 0.8787507486898732
431 4 0.47098852710249095 0.8637863116990386 0.2856380606421923
432 4 0.9720346829473531 0.45002819420223716 0.1258840869745319
433 4 0.7660752510897023 0.11986668959655511 0.5031622805695558
434 4 0.7957029351262714 0.5054079817395127 0.559497261846524
435 4 0.915369489882725 0.8703594974964872 0.732165421170519
436 4 0.0887414548945692 0.16788691424407254 0.28499479752842405
437 4 0.8271879167496199 0.8190945740624138 0.7052484581828724
438 4 0.21361868756473545 0.7053347527738454 0.031192653183136687
439 4 0.8096748067690649 0.14454883885743597 0.9588588317013839
440 4 0.33754589238231414 0.3827338390779539 0.9431209000664581
441 4 0.5672985261758321 0.22224478740324516 0.5982486484162759
442 4 0.045166200827845504 0.7581832678617781 0.6900637595555188
443 4 0.34948533454287967 0.7597184486792373 0.2761006603972165
444 4 0.5916527179121627 0.5180981743538672 0.22269769862668132
445 4 0.4385305813167656 0.1851154511079931 0.10578239138364454
446 4 0.31098256115761935 0.3624472395826531 0.5447699875710142
447 4 0.28019037862321716 0.28095083219536754 0.5689646751100228
448 4 0.8733745894299938 0.241547946798358 0.29651285545381056
449 4 0.6572478015352882 0.4498376265644014 0.6923593673955927
450 4 0.7805676080767131 0.6409508316832208 0.7770216562766297
451 4 0.4487298451681687 0.028103745158098437 0.02793181965243352
452 4 0.7134467121675597 0.7136553015554878 0.25728300129668347
453 4 0.4993342083466705 0.46183599876069636 0.8181782661272141
454 4 0.8672197843260346 0.799322122292045 0.26904680120065916
455 4 0.6330842157843538 0.6260257307559534 0.5900605328803824
456 4 0.9842742642027956 0.6719246024061771 0.7551375500855183
457 4 0.7808085544161674 0.6053544067741027 0.7317314709003251
458 4 0.3116028386171966 0.7703171171051184 0.09337163770483325
459 4 0.2995190989920943 0.09350334701074858 0.06504637904446686
460 4 0.2950490531137123 0.5408949255124881 0.21649728859637019
461 4 0.6801579529163836 0.785167130069188 0.339432955534965
462 4 0.06845407211301735 0.8814459577191189 0.009125725693180486
463 4 0.5823556653020521 0.7007697851065828 0.6132012057537072
464 4 0.5631586333566965 0.7115148024441921 0.8199057227310029
465 4 0.20290695818873328 0.5494696832836946 0.8335581453605624
466 4 0.8731090085285265 0.6299053550325014 0.9290259441287883
467 4 0.8177995109029298 0.7751930721018377 0.9870832388630633
468 4 0.3449969159741755 0.9473187593334276 0.045467489461198385
469 4 0.9663854306974534 0.04346879344659871 0.8612055129100749
470 4 0.1565481023597095 0.7706881289497585 0.6571062427385443