ITEM: TIMESTEP
0
ITEM: NUMBER OF ATOMS
10000
ITEM: BOX BOUNDS pp pp pp
0.0000000000000000e+00 4.6415888336099997e+01
0.0000000000000000e+00 4.6415888336099997e+01
0.0000000000000000e+00 4.6415888336099997e+01
ITEM: ATOMS id type x y z
2689 5 9.424e-01 2.359e+00 8.452e-01
7229 3 9.424e-01 2.359e+00 8.452e-01
8109 2 4.233e+00 1.354e+00 2.155e+00
4159 4 4.233e+00 1.354e+00 2.155e+00
8777 2 6.687e+00 1.754e+00 2.721e-01
3593 4 6.687e+00 1.754e+00 2.721e-01
6902 1 1.190e+01 2.422e+00 4.687e-01
8649 2 1.190e+01 2.422e+00 4.687e-01
2306 5 1.454e+01 3.660e-01 1.266e+00
1364 5 1.532e+01 2.608e+00 1.280e+00
9656 2 1.532e+01 2.608e+00 1.280e+00
9611 2 1.745e+01 2.706e-01 1.479e+00
207 5 1.904e+01 2.573e+00 4.089e-01
9190 2 2.142e+01 1.412e+00 7.715e-02
1774 5 2.142e+01 1.412e+00 7.715e-02
9575 2 2.321e+01 5.855e-01 2.164e+00
5485 4 2.609e+01 1.473e+00 2.103e+00
6671 4 2.609e+01 1.473e+00 2.103e+00
3446 4 2.871e+01 2.309e+00 1.318e+00
5818 4 3.154e+01 1.219e+00 2.375e+00
4473 4 3.154e+01 1.219e+00 2.375e+00
2701 4 3.446e+01 5.540e-01 2.104e+00
223 5 3.446e+01 5.540e-01 2.104e+00
3464 4 3.755e+01 1.042e-01 1.579e+00
4343 4 3.755e+01 1.042e-01 1.579e+00
87 5 4.030e+01 1.169e+00 2.397e+00
4989 4 4.186e+01 2.545e+00 1.779e-02
3821 4 4.186e+01 2.545e+00 1.779e-02
3028 4 3.867e+00 3.186e+00 1.514e-01
3602 4 3.867e+00 3.186e+00 1.514e-01
7034 1 6.294e+00 4.752e+00 1.290e+00
819 5 6.294e+00 4.752e+00 1.290e+00
1262 5 9.116e+00 3.623e+00 8.138e-01
3156 4 9.116e+00 3.623e+00 8.138e-01
5505 4 1.158e+01 4.426e+00 2.068e+00
232 5 1.318e+01 4.707e+00 1.662e+00
8231 2 1.792e+01 2.748e+00 2.343e+00
2880 4 1.792e+01 2.748e+00 2.343e+00
3631 4 1.796e+01 5.436e+00 7.930e-01
9509 2 1.796e+01 5.436e+00 7.930e-01
336 5 2.064e+01 4.940e+00 1.376e+00
4760 4 2.064e+01 4.940e+00 1.376e+00
6436 4 2.327e+01 3.361e+00 1.328e+00
5507 4 2.327e+01 3.361e+00 1.328e+00
4467 4 2.591e+01 3.359e+00 3.597e-01
5495 4 2.591e+01 3.359e+00 3.597e-01
1851 5 2.790e+01 4.901e+00 1.497e+00
7246 3 2.790e+01 4.901e+00 1.497e+00
8787 2 3.068e+01 4.120e+00 2.624e+00
330 5 3.068e+01 4.120e+00 2.624e+00
7120 1 3.334e+01 3.407e+00 1.884e+00
7661 2 3.334e+01 3.407e+00 1.884e+00
8917 2 3.618e+01 2.812e+00 1.454e+00
931 5 3.618e+01 2.812e+00 1.454e+00
3406 4 3.928e+01 3.075e+00 1.109e+00
7313 3 3.928e+01 3.075e+00 1.109e+00
6546 4 4.212e+01 4.583e+00 1.989e+00
2243 5 4.212e+01 4.583e+00 1.989e+00
3544 4 4.443e+01 2.739e+00 8.730e-01
5307 4 4.443e+01 2.739e+00 8.730e-01
1937 5 4.635e+01 4.947e+00 1.311e+00
447 5 4.635e+01 4.947e+00 1.311e+00
5709 4 2.584e+00 5.652e+00 3.801e-01
5978 4 2.584e+00 5.652e+00 3.801e-01
5278 4 6.685e-02 7.975e+00 1.771e+00
4017 4 4.896e+00 7.347e+00 4.429e-01
7963 2 6.754e+00 7.567e+00 2.679e+00
7155 1 6.754e+00 7.567e+00 2.679e+00
6908 1 9.274e+00 6.096e+00 2.172e+00
2106 5 9.274e+00 6.096e+00 2.172e+00
2025 5 1.160e+01 6.872e+00 4.017e-01
1073 5 1.160e+01 6.872e+00 4.017e-01
8059 2 1.438e+01 7.456e+00 1.767e+00
9336 2 1.438e+01 7.456e+00 1.767e+00
8751 2 1.670e+01 7.904e+00 2.128e-01
9763 2 1.965e+01 7.967e+00 1.258e+00
2310 5 1.965e+01 7.967e+00 1.258e+00
8052 2 2.258e+01 7.767e+00 2.205e+00
7047 1 2.258e+01 7.767e+00 2.205e+00
5370 4 2.509e+01 6.260e+00 1.881e+00
7978 2 2.509e+01 6.260e+00 1.881e+00
3071 4 2.762e+01 7.556e+00 8.435e-01
8875 2 2.979e+01 7.031e+00 2.529e+00
8202 2 2.979e+01 7.031e+00 2.529e+00
4420 4 3.242e+01 6.338e+00 1.379e+00
5797 4 3.242e+01 6.338e+00 1.379e+00
4306 4 3.506e+01 5.612e+00 5.150e-01
3039 4 3.506e+01 5.612e+00 5.150e-01
2222 5 3.473e+01 8.015e+00 2.304e+00
5725 4 3.473e+01 8.015e+00 2.304e+00
3429 4 3.735e+01 7.673e+00 1.117e+00
9031 2 3.735e+01 7.673e+00 1.117e+00
2023 5 3.953e+01 6.020e+00 1.808e+00
5555 4 3.953e+01 6.020e+00 1.808e+00
5889 4 4.190e+01 7.332e+00 9.572e-01
192 5 4.190e+01 7.332e+00 9.572e-01
2042 5 4.432e+01 6.648e+00 2.482e+00
928 5 4.432e+01 6.648e+00 2.482e+00
1795 5 2.203e+00 8.388e+00 9.205e-01
5456 4 2.203e+00 8.388e+00 9.205e-01
5951 4 4.536e+00 9.637e+00 2.362e+00
2741 4 4.536e+00 9.637e+00 2.362e+00
1536 5 6.705e+00 8.864e+00 2.627e-01
8705 2 7.290e+00 1.060e+01 2.204e+00
8968 2 7.290e+00 1.060e+01 2.204e+00
9804 2 9.230e+00 8.653e+00 5.026e-01
5019 4 1.223e+01 9.509e+00 1.857e+00
7750 2 1.223e+01 9.509e+00 1.857e+00
5823 4 1.526e+01 1.030e+01 2.573e+00
1149 5 1.526e+01 1.030e+01 2.573e+00
8757 2 1.714e+01 1.038e+01 1.274e-01
1494 5 1.714e+01 1.038e+01 1.274e-01
3836 4 2.013e+01 1.081e+01 5.173e-01
7768 2 2.013e+01 1.081e+01 5.173e-01
671 5 2.294e+01 1.063e+01 1.451e+00
7801 2 2.294e+01 1.063e+01 1.451e+00
8676 2 2.476e+01 8.724e+00 2.426e-01
7283 3 2.476e+01 8.724e+00 2.426e-01
3189 4 2.875e+01 9.920e+00 1.720e+00
5513 4 2.875e+01 9.920e+00 1.720e+00
2676 5 3.164e+01 9.184e+00 2.677e+00
7733 2 3.164e+01 9.184e+00 2.677e+00
4917 4 3.312e+01 9.135e+00 3.255e-01
3293 4 3.312e+01 9.135e+00 3.255e-01
1223 5 3.572e+01 1.023e+01 3.325e-01
5511 4 3.572e+01 1.023e+01 3.325e-01
7277 3 3.832e+01 1.047e+01 5.382e-01
621 5 3.832e+01 1.047e+01 5.382e-01
1380 5 4.139e+01 1.039e+01 5.015e-01
8894 2 4.139e+01 1.039e+01 5.015e-01
6311 4 4.424e+01 8.453e+00 1.280e-01
6349 4 4.556e+01 1.060e+01 1.852e+00
7833 2 4.556e+01 1.060e+01 1.852e+00
2645 5 4.424e+01 8.453e+00 1.280e-01
5469 4 2.149e+00 1.136e+01 1.441e+00
3615 4 2.149e+00 1.136e+01 1.441e+00
5663 4 5.143e+00 1.249e+01 1.451e+00
8681 2 5.143e+00 1.249e+01 1.451e+00
5230 4 8.158e+00 1.345e+01 1.229e+00
7298 3 8.158e+00 1.345e+01 1.229e+00
7846 2 1.006e+01 1.114e+01 7.560e-01
4413 4 1.006e+01 1.114e+01 7.560e-01
2412 5 1.269e+01 1.176e+01 1.617e+00
129 5 1.124e+01 1.331e+01 2.540e+00
309 5 1.522e+01 1.265e+01 5.713e-01
2271 5 1.522e+01 1.265e+01 5.713e-01
2354 5 1.793e+01 1.262e+01 1.735e+00
1628 5 1.793e+01 1.262e+01 1.735e+00
155 5 2.099e+01 1.276e+01 2.489e+00
9431 2 2.099e+01 1.276e+01 2.489e+00
2536 5 2.385e+01 1.331e+01 1.077e+00
2062 5 2.385e+01 1.331e+01 1.077e+00
4882 4 2.616e+01 1.140e+01 6.662e-01
8975 2 2.616e+01 1.140e+01 6.662e-01
270 5 2.875e+01 1.266e+01 1.721e+00
2530 5 2.875e+01 1.266e+01 1.721e+00
5792 4 3.114e+01 1.134e+01 4.616e-01
4385 4 3.114e+01 1.134e+01 4.616e-01
118 5 3.359e+01 1.141e+01 2.321e+00
7544 2 3.359e+01 1.141e+01 2.321e+00
4554 4 3.960e+01 1.190e+01 2.677e+00
4364 4 3.960e+01 1.190e+01 2.677e+00
9113 2 4.271e+01 1.156e+01 1.852e+00
114 5 4.504e+01 1.327e+01 2.593e+00
9335 2 1.546e+00 1.407e+01 1.941e+00
1393 5 2.926e+00 1.409e+01 4.043e-02
9943 2 2.926e+00 1.409e+01 4.043e-02
7511 2 4.388e+00 1.535e+01 2.359e+00
1118 5 4.388e+00 1.535e+01 2.359e+00
3241 4 7.407e+00 1.616e+01 2.125e+00
6860 1 7.407e+00 1.616e+01 2.125e+00
4179 4 1.064e+01 1.608e+01 1.897e+00
9072 2 1.064e+01 1.608e+01 1.897e+00
9075 2 1.313e+01 1.449e+01 9.523e-01
5233 4 1.313e+01 1.449e+01 9.523e-01
2525 5 1.627e+01 1.504e+01 2.238e+00
2165 5 1.627e+01 1.504e+01 2.238e+00
258 5 1.950e+01 1.492e+01 1.054e+00
5236 4 1.950e+01 1.492e+01 1.054e+00
3504 4 2.244e+01 1.558e+01 1.185e+00
93 5 2.437e+01 1.600e+01 2.505e+00
7378 3 2.636e+01 1.396e+01 2.414e+00
1140 5 2.636e+01 1.396e+01 2.414e+00
64 5 2.900e+01 1.541e+01 2.047e+00
781 5 2.900e+01 1.541e+01 2.047e+00
727 5 3.167e+01 1.391e+01 2.005e+00
1546 5 3.167e+01 1.391e+01 2.005e+00
1111 5 3.456e+01 1.403e+01 1.069e+00
7772 2 3.456e+01 1.403e+01 1.069e+00
4601 4 3.749e+01 1.381e+01 1.813e+00
3894 4 3.749e+01 1.381e+01 1.813e+00
8338 2 4.022e+01 1.524e+01 1.619e+00
8475 2 4.022e+01 1.524e+01 1.619e+00
2304 5 4.328e+01 1.377e+01 4.380e-01
3127 4 4.328e+01 1.377e+01 4.380e-01
3763 4 4.534e+01 1.527e+01 1.807e+00
286 5 1.467e+00 1.682e+01 2.387e+00
6716 1 1.467e+00 1.682e+01 2.387e+00
2810 4 1.497e+00 1.903e+01 2.003e-01
7571 2 1.497e+00 1.903e+01 2.003e-01
6752 1 3.563e+00 1.707e+01 1.866e-01
7757 2 3.563e+00 1.707e+01 1.866e-01
264 5 6.455e+00 1.910e+01 2.608e+00
4197 4 6.455e+00 1.910e+01 2.608e+00
173 5 9.054e+00 1.850e+01 1.311e+00
6478 4 9.054e+00 1.850e+01 1.311e+00
5042 4 1.220e+01 1.844e+01 1.389e+00
4018 4 1.220e+01 1.844e+01 1.389e+00
8593 2 1.480e+01 1.687e+01 3.938e-01
929 5 1.480e+01 1.687e+01 3.938e-01
7187 1 1.788e+01 1.732e+01 1.036e+00
6625 4 1.788e+01 1.732e+01 1.036e+00
2266 5 2.090e+01 1.759e+01 6.788e-01
5527 4 2.090e+01 1.759e+01 6.788e-01
7251 3 2.644e+01 1.661e+01 1.058e+00
6163 4 2.644e+01 1.661e+01 1.058e+00
9755 2 2.556e+01 1.874e+01 2.576e+00
2367 5 2.556e+01 1.874e+01 2.576e+00
990 5 2.867e+01 1.839e+01 2.418e+00
1098 5 2.867e+01 1.839e+01 2.418e+00
3735 4 3.123e+01 1.704e+01 1.445e+00
642 5 3.123e+01 1.704e+01 1.445e+00
2860 4 3.397e+01 1.763e+01 5.587e-01
8260 2 3.397e+01 1.763e+01 5.587e-01
4744 4 3.615e+01 1.639e+01 2.263e+00
690 5 3.615e+01 1.639e+01 2.263e+00
8877 2 3.575e+01 1.898e+01 1.988e+00
7509 2 3.833e+01 1.778e+01 7.853e-01
5216 4 3.833e+01 1.778e+01 7.853e-01
2288 5 4.295e+01 1.640e+01 2.198e+00
2698 5 4.295e+01 1.640e+01 2.198e+00
4943 4 4.140e+01 1.770e+01 2.735e-02
5779 4 4.140e+01 1.770e+01 2.735e-02
8346 2 4.534e+01 1.832e+01 1.507e+00
1055 5 4.534e+01 1.832e+01 1.507e+00
806 5 4.423e+00 1.999e+01 5.233e-01
4723 4 4.423e+00 1.999e+01 5.233e-01
8603 2 1.036e+01 2.082e+01 6.548e-01
3144 4 1.036e+01 2.082e+01 6.548e-01
3441 4 8.205e+00 2.130e+01 2.561e+00
4583 4 8.205e+00 2.130e+01 2.561e+00
5141 4 1.262e+01 2.149e+01 2.032e+00
9806 2 1.262e+01 2.149e+01 2.032e+00
2003 5 1.468e+01 1.972e+01 1.332e+00
7557 2 1.468e+01 1.972e+01 1.332e+00
5030 4 1.726e+01 1.976e+01 2.581e+00
1136 5 1.726e+01 1.976e+01 2.581e+00
1855 5 1.935e+01 2.052e+01 3.939e-01
5625 4 1.935e+01 2.052e+01 3.939e-01
3450 4 2.250e+01 1.991e+01 1.784e+00
2509 5 2.455e+01 2.067e+01 7.659e-01
2316 5 2.455e+01 2.067e+01 7.659e-01
1124 5 2.731e+01 2.109e+01 2.206e+00
2038 5 2.731e+01 2.109e+01 2.206e+00
8097 2 3.001e+01 1.991e+01 1.677e-01
9474 2 3.001e+01 1.991e+01 1.677e-01
6623 4 3.238e+01 1.954e+01 2.061e+00
2629 5 3.238e+01 1.954e+01 2.061e+00
507 5 3.470e+01 2.146e+01 1.633e+00
237 5 3.470e+01 2.146e+01 1.633e+00
7977 2 3.768e+01 2.058e+01 2.033e+00
950 5 3.768e+01 2.058e+01 2.033e+00
6045 4 4.044e+01 2.016e+01 1.205e+00
2095 5 4.044e+01 2.016e+01 1.205e+00
2085 5 4.284e+01 1.927e+01 2.391e+00
3099 4 4.340e+01 2.004e+01 1.703e-03
5296 4 4.340e+01 2.004e+01 1.703e-03
5402 4 2.198e+00 2.199e+01 1.019e+00
1458 5 1.420e-01 2.412e+01 5.377e-01
4845 4 1.420e-01 2.412e+01 5.377e-01
2749 4 2.198e+00 2.199e+01 1.019e+00
1756 5 6.007e+00 2.264e+01 1.059e+00
6642 4 6.007e+00 2.264e+01 1.059e+00
5185 4 8.058e+00 2.432e+01 2.620e+00
8006 2 8.058e+00 2.432e+01 2.620e+00
2346 5 1.067e+01 2.306e+01 2.355e+00
8308 2 1.372e+01 2.429e+01 2.349e+00
9963 2 1.372e+01 2.429e+01 2.349e+00
5090 4 1.470e+01 2.259e+01 1.234e-01
7216 3 1.470e+01 2.259e+01 1.234e-01
9009 2 1.690e+01 2.192e+01 1.112e+00
8334 2 2.166e+01 2.208e+01 1.386e+00
4424 4 2.166e+01 2.208e+01 1.386e+00
2891 4 1.923e+01 2.366e+01 7.607e-01
4174 4 1.923e+01 2.366e+01 7.607e-01
1955 5 2.240e+01 2.451e+01 2.293e-01
6813 1 2.429e+01 2.331e+01 1.443e+00
3696 4 2.651e+01 2.374e+01 2.236e+00
3950 4 2.651e+01 2.374e+01 2.236e+00
1297 5 2.938e+01 2.353e+01 2.120e+00
8726 2 2.938e+01 2.353e+01 2.120e+00
3798 4 3.185e+01 2.221e+01 1.059e+00
6220 4 3.185e+01 2.221e+01 1.059e+00
2544 5 3.410e+01 2.432e+01 5.704e-01
3477 4 3.410e+01 2.432e+01 5.704e-01
2267 5 3.691e+01 2.348e+01 1.659e+00
1483 5 3.691e+01 2.348e+01 1.659e+00
2301 5 3.965e+01 2.300e+01 1.620e+00
6568 4 3.965e+01 2.300e+01 1.620e+00
4410 4 4.249e+01 2.223e+01 1.683e+00
6242 4 4.249e+01 2.223e+01 1.683e+00
5368 4 4.545e+01 2.192e+01 2.258e+00
1932 5 4.545e+01 2.192e+01 2.258e+00
4016 4 2.530e+00 2.488e+01 2.136e+00
5365 4 6.239e-01 2.709e+01 1.694e+00
9046 2 2.530e+00 2.488e+01 2.136e+00
7140 1 6.239e-01 2.709e+01 1.694e+00
1238 5 5.964e+00 2.576e+01 1.054e+00
515 5 5.964e+00 2.576e+01 1.054e+00
1003 5 8.616e+00 2.708e+01 1.144e+00
9886 2 8.616e+00 2.708e+01 1.144e+00
3879 4 1.086e+01 2.525e+01 1.566e+00
7227 3 1.086e+01 2.525e+01 1.566e+00
1785 5 1.575e+01 2.636e+01 1.771e+00
8546 2 1.853e+01 2.649e+01 1.306e+00
9927 2 1.853e+01 2.649e+01 1.306e+00
3134 4 2.152e+01 2.615e+01 1.693e+00
5295 4 2.152e+01 2.615e+01 1.693e+00
5704 4 2.446e+01 2.586e+01 1.935e+00
8015 2 2.446e+01 2.586e+01 1.935e+00
6062 4 2.699e+01 2.654e+01 2.342e+00
9387 2 2.808e+01 2.533e+01 2.088e-01
3828 4 2.808e+01 2.533e+01 2.088e-01
5150 4 3.120e+01 2.495e+01 2.067e-02
1986 5 3.012e+01 2.653e+01 2.188e+00
4591 4 3.012e+01 2.653e+01 2.188e+00
7550 2 3.120e+01 2.495e+01 2.067e-02
3067 4 3.305e+01 2.682e+01 1.758e+00
2951 4 3.305e+01 2.682e+01 1.758e+00
7156 1 3.595e+01 2.638e+01 2.118e+00
5422 4 3.595e+01 2.638e+01 2.118e+00
4511 4 3.892e+01 2.586e+01 1.200e+00
5063 4 3.892e+01 2.586e+01 1.200e+00
9563 2 4.176e+01 2.487e+01 4.177e-01
622 5 4.176e+01 2.487e+01 4.177e-01
8483 2 4.442e+01 2.560e+01 8.790e-01
4626 4 4.402e+01 2.729e+01 2.631e+00
1782 5 4.402e+01 2.729e+01 2.631e+00
3810 4 3.585e+00 2.759e+01 1.207e+00
5578 4 3.585e+00 2.759e+01 1.207e+00
1328 5 6.447e+00 2.872e+01 4.789e-01
9508 2 6.447e+00 2.872e+01 4.789e-01
2634 5 1.074e+01 2.917e+01 2.188e+00
1467 5 1.074e+01 2.917e+01 2.188e+00
7716 2 1.300e+01 2.731e+01 2.123e+00
3638 4 1.300e+01 2.731e+01 2.123e+00
2009 5 1.552e+01 2.888e+01 2.573e+00
6429 4 1.552e+01 2.888e+01 2.573e+00
3792 4 1.836e+01 2.906e+01 2.372e+00
471 5 1.836e+01 2.906e+01 2.372e+00
5314 4 2.058e+01 2.856e+01 1.771e-01
4198 4 2.058e+01 2.856e+01 1.771e-01
5221 4 2.317e+01 2.861e+01 1.767e+00
7642 2 2.317e+01 2.861e+01 1.767e+00
2746 4 2.581e+01 2.796e+01 2.881e-01
1488 5 2.581e+01 2.796e+01 2.881e-01
3656 4 2.875e+01 2.827e+01 3.890e-01
6899 1 2.875e+01 2.827e+01 3.890e-01
7362 3 3.034e+01 2.975e+01 1.715e+00
5479 4 3.307e+01 2.952e+01 9.573e-01
7578 2 3.307e+01 2.952e+01 9.573e-01
9902 2 3.580e+01 2.955e+01 6.947e-01
6328 4 4.014e+01 2.824e+01 1.128e+00
6017 4 4.235e+01 2.792e+01 1.835e-01
6070 4 4.235e+01 2.792e+01 1.835e-01
1736 5 4.508e+01 2.871e+01 2.471e-01
7041 1 4.508e+01 2.871e+01 2.471e-01
1333 5 2.300e+00 3.014e+01 1.767e+00
9645 2 2.300e+00 3.014e+01 1.767e+00
194 5 5.612e-01 3.249e+01 1.999e+00
2869 4 5.612e-01 3.249e+01 1.999e+00
4058 4 3.522e+00 3.274e+01 2.088e+00
9764 2 3.522e+00 3.274e+01 2.088e+00
6827 1 6.016e+00 3.151e+01 1.630e+00
4806 4 6.016e+00 3.151e+01 1.630e+00
1433 5 8.972e+00 3.158e+01 1.194e+00
9429 2 8.972e+00 3.158e+01 1.194e+00
6290 4 1.343e+01 3.008e+01 7.693e-01
6765 1 1.343e+01 3.008e+01 7.693e-01
5251 4 1.170e+01 3.217e+01 1.992e+00
4824 4 1.170e+01 3.217e+01 1.992e+00
4614 4 1.636e+01 3.098e+01 8.127e-01
5107 4 1.636e+01 3.098e+01 8.127e-01
4594 4 1.924e+01 3.156e+01 1.235e+00
9444 2 1.924e+01 3.156e+01 1.235e+00
825 5 2.204e+01 3.103e+01 5.311e-01
5271 4 2.204e+01 3.103e+01 5.311e-01
1506 5 2.724e+01 3.048e+01 1.693e+00
8908 2 2.724e+01 3.048e+01 1.693e+00
7437 2 2.483e+01 3.071e+01 5.951e-02
9053 2 2.483e+01 3.071e+01 5.951e-02
6901 1 2.925e+01 3.251e+01 8.274e-01
4237 4 2.925e+01 3.251e+01 8.274e-01
9217 2 3.208e+01 3.233e+01 1.122e+00
6515 4 3.508e+01 3.185e+01 1.637e+00
1832 5 3.508e+01 3.185e+01 1.637e+00
2094 5 3.807e+01 3.031e+01 4.256e-01
2750 4 4.015e+01 3.076e+01 2.293e+00
740 5 4.015e+01 3.076e+01 2.293e+00
3200 4 4.312e+01 3.019e+01 2.081e+00
1088 5 4.312e+01 3.019e+01 2.081e+00
3000 4 4.113e+01 3.254e+01 3.847e-01
2103 5 4.113e+01 3.254e+01 3.847e-01
693 5 4.597e+01 3.080e+01 5.892e-01
4911 4 1.982e+00 3.446e+01 2.077e-01
2512 5 1.982e+00 3.446e+01 2.077e-01
8266 2 2.230e+00 3.540e+01 2.319e+00
9433 2 7.518e+00 3.379e+01 2.918e-01
2994 4 6.172e+00 3.452e+01 2.509e+00
8648 2 6.172e+00 3.452e+01 2.509e+00
7484 2 1.038e+01 3.447e+01 2.199e-01
7494 2 1.038e+01 3.447e+01 2.199e-01
6038 4 1.301e+01 3.482e+01 1.598e+00
7760 2 1.301e+01 3.482e+01 1.598e+00
3679 4 1.497e+01 3.344e+01 8.438e-02
1698 5 1.497e+01 3.344e+01 8.438e-02
6880 1 1.745e+01 3.382e+01 1.544e+00
4707 4 1.745e+01 3.382e+01 1.544e+00
1669 5 2.358e+01 3.336e+01 7.307e-01
7134 1 2.358e+01 3.336e+01 7.307e-01
9354 2 2.612e+01 3.310e+01 2.394e+00
6137 4 2.612e+01 3.310e+01 2.394e+00
7334 3 2.826e+01 3.512e+01 1.474e+00
4852 4 2.826e+01 3.512e+01 1.474e+00
654 5 3.146e+01 3.520e+01 1.100e+00
7095 1 3.146e+01 3.520e+01 1.100e+00
368 5 3.802e+01 3.279e+01 1.059e+00
2244 5 3.802e+01 3.279e+01 1.059e+00
5668 4 3.657e+01 3.544e+01 1.496e+00
7478 2 3.657e+01 3.544e+01 1.496e+00
3331 4 3.943e+01 3.458e+01 5.711e-01
7636 2 4.186e+01 3.470e+01 2.044e+00
7675 2 4.186e+01 3.470e+01 2.044e+00
7457 2 4.397e+01 3.281e+01 1.645e+00
7624 2 4.588e+01 3.499e+01 1.670e+00
973 5 4.588e+01 3.499e+01 1.670e+00
3243 4 4.397e+01 3.281e+01 1.645e+00
3303 4 9.017e-01 3.772e+01 1.089e+00
4096 4 9.017e-01 3.772e+01 1.089e+00
2169 5 4.012e+00 3.558e+01 2.020e+00
7683 2 3.720e+00 3.801e+01 1.695e+00
7816 2 3.720e+00 3.801e+01 1.695e+00
7116 1 5.815e+00 3.647e+01 1.687e-02
7762 2 5.815e+00 3.647e+01 1.687e-02
9721 2 8.350e+00 3.641e+01 1.203e+00
1479 5 8.350e+00 3.641e+01 1.203e+00
4239 4 1.114e+01 3.695e+01 1.787e+00
7945 2 1.114e+01 3.695e+01 1.787e+00
2807 4 1.408e+01 3.766e+01 1.136e+00
8292 2 1.408e+01 3.766e+01 1.136e+00
881 5 1.561e+01 3.575e+01 2.723e+00
708 5 1.561e+01 3.575e+01 2.723e+00
679 5 1.757e+01 3.672e+01 2.662e+00
1811 5 1.929e+01 3.634e+01 9.212e-01
2149 5 1.929e+01 3.634e+01 9.212e-01
9307 2 2.218e+01 3.583e+01 1.702e+00
2175 5 2.218e+01 3.583e+01 1.702e+00
7912 2 2.716e+01 3.792e+01 2.376e+00
8224 2 2.531e+01 3.576e+01 1.146e+00
8947 2 2.531e+01 3.576e+01 1.146e+00
8889 2 2.716e+01 3.792e+01 2.376e+00
938 5 2.984e+01 3.756e+01 1.083e+00
6707 1 2.984e+01 3.756e+01 1.083e+00
9235 2 3.212e+01 3.818e+01 1.962e+00
8854 2 3.393e+01 3.680e+01 1.512e+00
3481 4 3.393e+01 3.680e+01 1.512e+00
6225 4 3.931e+01 3.634e+01 2.564e+00
7051 1 3.931e+01 3.634e+01 2.564e+00
2414 5 4.131e+01 3.690e+01 2.378e-01
5749 4 4.131e+01 3.690e+01 2.378e-01
1685 5 4.423e+01 3.681e+01 9.292e-01
7774 2 4.423e+01 3.681e+01 9.292e-01
407 5 8.176e-01 4.093e+01 6.946e-01
3974 4 8.176e-01 4.093e+01 6.946e-01
7191 1 3.647e+00 4.085e+01 1.579e+00
6646 4 3.647e+00 4.085e+01 1.579e+00
7402 2 6.532e+00 3.827e+01 2.600e+00
2973 4 6.532e+00 3.827e+01 2.600e+00
6783 1 5.502e+00 3.935e+01 3.422e-02
8094 2 9.195e+00 3.933e+01 1.304e+00
3980 4 9.195e+00 3.933e+01 1.304e+00
7261 3 1.206e+01 3.934e+01 2.334e-01
3721 4 1.206e+01 3.934e+01 2.334e-01
7510 2 1.420e+01 4.063e+01 1.912e+00
8353 2 1.420e+01 4.063e+01 1.912e+00
8513 2 1.673e+01 3.884e+01 1.077e+00
6718 1 1.673e+01 3.884e+01 1.077e+00
5261 4 2.114e+01 3.847e+01 2.502e+00
8291 2 2.114e+01 3.847e+01 2.502e+00
7673 2 1.947e+01 4.043e+01 8.546e-01
2258 5 1.947e+01 4.043e+01 8.546e-01
8599 2 2.418e+01 3.826e+01 2.633e+00
2359 5 2.418e+01 3.826e+01 2.633e+00
4659 4 2.248e+01 4.008e+01 5.877e-01
4713 4 2.248e+01 4.008e+01 5.877e-01
6356 4 2.549e+01 3.983e+01 5.009e-01
5039 4 2.549e+01 3.983e+01 5.009e-01
6329 4 2.838e+01 4.027e+01 8.049e-01
8552 2 2.838e+01 4.027e+01 8.049e-01
8694 2 3.128e+01 4.035e+01 5.777e-01
7395 3 3.128e+01 4.035e+01 5.777e-01
9233 2 3.385e+01 3.982e+01 2.414e+00
9382 2 3.659e+01 3.843e+01 1.356e+00
8021 2 3.659e+01 3.843e+01 1.356e+00
5502 4 4.018e+01 3.911e+01 2.233e+00
7555 2 4.018e+01 3.911e+01 2.233e+00
9671 2 3.882e+01 4.004e+01 9.804e-03
9623 2 3.882e+01 4.004e+01 9.804e-03
1187 5 4.268e+01 3.914e+01 3.269e-01
1864 5 4.491e+01 3.950e+01 2.074e+00
882 5 4.491e+01 3.950e+01 2.074e+00
1400 5 3.510e+00 4.366e+01 6.558e-01
2144 5 3.510e+00 4.366e+01 6.558e-01
7896 2 6.735e+00 4.100e+01 1.687e+00
8692 2 6.735e+00 4.100e+01 1.687e+00
6703 1 5.977e+00 4.295e+01 7.637e-01
4615 4 9.112e+00 4.244e+01 8.908e-01
9504 2 9.112e+00 4.244e+01 8.908e-01
3702 4 1.132e+01 4.150e+01 1.646e+00
1843 5 1.526e+01 4.261e+01 8.569e-01
2394 5 1.707e+01 4.126e+01 2.451e+00
3686 4 1.707e+01 4.126e+01 2.451e+00
1226 5 1.890e+01 4.351e+01 1.524e+00
3576 4 1.890e+01 4.351e+01 1.524e+00
7548 2 2.140e+01 4.280e+01 9.877e-01
6238 4 2.399e+01 4.253e+01 1.902e-01
1776 5 2.399e+01 4.253e+01 1.902e-01
2699 5 2.671e+01 4.262e+01 8.524e-01
2200 5 2.671e+01 4.262e+01 8.524e-01
2855 4 3.019e+01 4.318e+01 8.215e-01
7001 1 3.019e+01 4.318e+01 8.215e-01
6624 4 3.349e+01 4.228e+01 9.584e-01
6357 4 3.349e+01 4.228e+01 9.584e-01
6858 1 3.608e+01 4.135e+01 4.502e-01
5014 4 3.608e+01 4.135e+01 4.502e-01
985 5 3.844e+01 4.296e+01 5.818e-01
4800 4 3.844e+01 4.296e+01 5.818e-01
3169 4 4.042e+01 4.247e+01 2.709e+00
1979 5 4.042e+01 4.247e+01 2.709e+00
9035 2 4.167e+01 4.109e+01 4.386e-01
1696 5 4.167e+01 4.109e+01 4.386e-01
7467 2 4.308e+01 4.342e+01 1.953e+00
6155 4 4.308e+01 4.342e+01 1.953e+00
6312 4 1.913e+00 4.626e+01 8.307e-01
8711 2 1.913e+00 4.626e+01 8.307e-01
3678 4 4.359e-01 4.376e+01 4.264e-01
5345 4 4.359e-01 4.376e+01 4.264e-01
4310 4 5.961e+00 4.541e+01 1.687e+00
1743 5 5.961e+00 4.541e+01 1.687e+00
1071 5 8.845e+00 4.604e+01 1.997e+00
8054 2 8.845e+00 4.604e+01 1.997e+00
3234 4 1.188e+01 4.634e+01 1.782e+00
1097 5 1.188e+01 4.634e+01 1.782e+00
7441 2 1.334e+01 4.374e+01 2.017e+00
8767 2 1.619e+01 4.472e+01 2.358e+00
2955 4 1.619e+01 4.472e+01 2.358e+00
2464 5 2.106e+01 4.561e+01 2.422e+00
304 5 2.106e+01 4.561e+01 2.422e+00
2483 5 2.484e+01 4.512e+01 1.625e+00
2873 4 2.484e+01 4.512e+01 1.625e+00
8482 2 2.780e+01 4.509e+01 1.823e+00
5098 4 2.780e+01 4.509e+01 1.823e+00
2965 4 3.007e+01 4.618e+01 2.551e-01
6185 4 3.007e+01 4.618e+01 2.551e-01
9287 2 3.273e+01 4.505e+01 8.071e-01
1737 5 3.273e+01 4.505e+01 8.071e-01
3730 4 3.572e+01 4.428e+01 1.400e+00
7014 1 3.572e+01 4.428e+01 1.400e+00
3023 4 3.994e+01 4.502e+01 1.940e+00
8441 2 4.266e+01 4.633e+01 1.103e+00
8951 2 4.266e+01 4.633e+01 1.103e+00
3158 4 4.543e+01 4.634e+01 1.026e+00
2060 5 1.838e+00 1.175e+00 3.660e+00
7815 2 1.838e+00 1.175e+00 3.660e+00
5119 4 4.173e+00 2.565e+00 4.918e+00
9447 2 4.173e+00 2.565e+00 4.918e+00
5128 4 7.070e+00 1.596e+00 3.079e+00
1542 5 7.070e+00 1.596e+00 3.079e+00
4944 4 1.014e+01 2.118e+00 3.115e+00
5470 4 1.014e+01 2.118e+00 3.115e+00
8530 2 1.313e+01 2.001e+00 3.195e+00
2609 5 1.313e+01 2.001e+00 3.195e+00
6932 1 1.591e+01 1.097e+00 3.885e+00
8197 2 1.591e+01 1.097e+00 3.885e+00
9665 2 1.854e+01 2.210e+00 5.144e+00
9912 2 1.854e+01 2.210e+00 5.144e+00
6927 1 2.076e+01 2.281e+00 2.869e+00
9439 2 2.076e+01 2.281e+00 2.869e+00
4658 4 2.117e+01 5.152e-01 5.248e+00
5793 4 2.117e+01 5.152e-01 5.248e+00
3124 4 2.358e+01 1.990e+00 4.150e+00
8349 2 2.358e+01 1.990e+00 4.150e+00
4622 4 2.605e+01 8.162e-02 4.065e+00
6334 4 2.605e+01 8.162e-02 4.065e+00
2043 5 2.893e+01 8.661e-01 3.381e+00
7812 2 2.893e+01 8.661e-01 3.381e+00
4116 4 3.080e+01 2.496e+00 5.216e+00
4286 4 3.080e+01 2.496e+00 5.216e+00
3313 4 3.509e+01 2.467e+00 4.397e+00
939 5 3.509e+01 2.467e+00 4.397e+00
5323 4 3.304e+01 3.822e-01 4.704e+00
8561 2 3.304e+01 3.822e-01 4.704e+00
5453 4 3.793e+01 2.163e+00 3.611e+00
9157 2 3.793e+01 2.163e+00 3.611e+00
7006 1 4.060e+01 1.717e+00 5.335e+00
4968 4 4.060e+01 1.717e+00 5.335e+00
6570 4 4.244e+01 2.060e+00 3.088e+00
3314 4 4.244e+01 2.060e+00 3.088e+00
1168 5 4.363e+01 1.089e+00 5.401e+00
1636 5 4.363e+01 1.089e+00 5.401e+00
4313 4 4.549e+01 1.370e+00 3.090e+00
626 5 4.549e+01 1.370e+00 3.090e+00
1771 5 2.438e+00 3.936e+00 2.765e+00
2978 4 2.438e+00 3.936e+00 2.765e+00
8869 2 5.333e-01 3.483e+00 4.643e+00
6884 1 5.120e+00 3.869e+00 2.770e+00
2283 5 2.760e+00 5.247e+00 5.339e+00
6284 4 2.760e+00 5.247e+00 5.339e+00
1298 5 7.973e+00 4.016e+00 3.750e+00
1468 5 7.973e+00 4.016e+00 3.750e+00
5658 4 1.050e+01 4.777e+00 4.827e+00
2962 4 1.050e+01 4.777e+00 4.827e+00
2213 5 1.332e+01 4.438e+00 4.480e+00
6836 1 1.332e+01 4.438e+00 4.480e+00
2294 5 1.586e+01 4.919e+00 2.908e+00
3131 4 1.586e+01 4.919e+00 2.908e+00
1050 5 1.587e+01 3.588e+00 5.427e+00
6107 4 1.587e+01 3.588e+00 5.427e+00
8510 2 1.888e+01 5.007e+00 3.840e+00
3002 4 1.888e+01 5.007e+00 3.840e+00
7384 3 2.258e+01 4.967e+00 3.527e+00
6644 4 2.258e+01 4.967e+00 3.527e+00
1501 5 2.549e+01 4.147e+00 3.415e+00
6308 4 2.549e+01 4.147e+00 3.415e+00
1123 5 2.815e+01 3.539e+00 4.143e+00
1769 5 2.815e+01 3.539e+00 4.143e+00
6367 4 3.292e+01 4.375e+00 4.886e+00
1537 5 3.464e+01 5.092e+00 3.068e+00
6054 4 3.292e+01 4.375e+00 4.886e+00
6445 4 3.713e+01 5.156e+00 2.780e+00
6192 4 3.713e+01 5.156e+00 2.780e+00
195 5 3.981e+01 4.225e+00 4.021e+00
4400 4 3.981e+01 4.225e+00 4.021e+00
8472 2 4.466e+01 3.984e+00 3.670e+00
5219 4 4.466e+01 3.984e+00 3.670e+00
9567 2 6.888e-01 6.344e+00 3.839e+00
9815 2 6.888e-01 6.344e+00 3.839e+00
1915 5 3.743e+00 6.668e+00 2.869e+00
4176 4 3.743e+00 6.668e+00 2.869e+00
3479 4 5.737e+00 5.469e+00 4.651e+00
4708 4 5.737e+00 5.469e+00 4.651e+00
4334 4 8.427e+00 6.848e+00 5.006e+00
5429 4 8.427e+00 6.848e+00 5.006e+00
9802 2 1.189e+01 6.904e+00 3.341e+00
6272 4 1.189e+01 6.904e+00 3.341e+00
7524 2 1.486e+01 6.828e+00 4.571e+00
320 5 1.718e+01 7.435e+00 2.946e+00
2307 5 1.718e+01 7.435e+00 2.946e+00
4295 4 1.928e+01 7.955e+00 5.032e+00
1686 5 1.928e+01 7.955e+00 5.032e+00
8536 2 2.069e+01 6.847e+00 3.606e+00
4026 4 2.440e+01 6.864e+00 4.618e+00
3727 4 2.440e+01 6.864e+00 4.618e+00
5247 4 2.741e+01 6.604e+00 3.831e+00
8569 2 2.741e+01 6.604e+00 3.831e+00
7211 3 3.006e+01 5.554e+00 5.230e+00
6303 4 3.006e+01 5.554e+00 5.230e+00
3287 4 3.241e+01 6.920e+00 4.100e+00
8896 2 3.241e+01 6.920e+00 4.100e+00
6180 4 3.533e+01 6.481e+00 4.940e+00
3339 4 3.533e+01 6.481e+00 4.940e+00
478 5 3.850e+01 6.844e+00 4.974e+00
6123 4 3.850e+01 6.844e+00 4.974e+00
8147 2 4.155e+01 6.667e+00 3.998e+00
4960 4 4.155e+01 6.667e+00 3.998e+00
3809 4 4.436e+01 6.281e+00 5.251e+00
5160 4 4.436e+01 6.281e+00 5.251e+00
1233 5 2.089e+00 9.094e+00 3.735e+00
2773 4 2.089e+00 9.094e+00 3.735e+00
1031 5 4.944e+00 8.525e+00 5.004e+00
7029 1 4.944e+00 8.525e+00 5.004e+00
7697 2 7.659e+00 9.622e+00 5.001e+00
5298 4 7.659e+00 9.622e+00 5.001e+00
5886 4 9.602e+00 8.938e+00 2.905e+00
7050 1 9.602e+00 8.938e+00 2.905e+00
1058 5 1.065e+01 8.680e+00 5.458e+00
2471 5 1.065e+01 8.680e+00 5.458e+00
5876 4 1.357e+01 8.993e+00 4.463e+00
9616 2 1.357e+01 8.993e+00 4.463e+00
630 5 1.661e+01 9.264e+00 5.197e+00
2731 4 1.661e+01 9.264e+00 5.197e+00
15 5 1.826e+01 1.008e+01 2.891e+00
3767 4 1.826e+01 1.008e+01 2.891e+00
5249 4 2.091e+01 9.895e+00 3.369e+00
2736 4 2.091e+01 9.895e+00 3.369e+00
754 5 2.225e+01 8.824e+00 5.235e+00
4296 4 2.386e+01 9.510e+00 4.037e+00
8866 2 2.611e+01 9.109e+00 2.848e+00
8465 2 2.611e+01 9.109e+00 2.848e+00
281 5 2.887e+01 9.196e+00 4.474e+00
6010 4 2.887e+01 9.196e+00 4.474e+00
240 5 3.420e+01 9.295e+00 4.610e+00
1423 5 3.420e+01 9.295e+00 4.610e+00
1378 5 3.703e+01 8.525e+00 3.668e+00
4484 4 3.981e+01 8.876e+00 2.738e+00
594 5 3.852e+01 1.034e+01 5.233e+00
2337 5 3.852e+01 1.034e+01 5.233e+00
7252 3 3.981e+01 8.876e+00 2.738e+00
7100 1 4.299e+01 9.165e+00 2.880e+00
6488 4 4.299e+01 9.165e+00 2.880e+00
564 5 4.145e+01 1.083e+01 4.626e+00
8460 2 4.145e+01 1.083e+01 4.626e+00
7522 2 4.555e+01 8.892e+00 4.518e+00
7648 2 4.555e+01 8.892e+00 4.518e+00
2153 5 7.232e-01 1.155e+01 4.132e+00
2389 5 7.232e-01 1.155e+01 4.132e+00
5606 4 3.286e+00 1.291e+01 3.793e+00
3064 4 3.286e+00 1.291e+01 3.793e+00
6529 4 5.448e+00 1.142e+01 4.475e+00
2419 5 5.448e+00 1.142e+01 4.475e+00
122 5 9.139e+00 1.190e+01 3.746e+00
4354 4 9.139e+00 1.190e+01 3.746e+00
9330 2 1.181e+01 1.137e+01 4.449e+00
8609 2 1.181e+01 1.137e+01 4.449e+00
4769 4 1.419e+01 1.311e+01 3.375e+00
8126 2 1.419e+01 1.311e+01 3.375e+00
5193 4 1.669e+01 1.217e+01 4.437e+00
7482 2 1.669e+01 1.217e+01 4.437e+00
3555 4 2.046e+01 1.361e+01 4.911e+00
2790 4 2.231e+01 1.173e+01 5.224e+00
1777 5 2.231e+01 1.173e+01 5.224e+00
4283 4 2.469e+01 1.180e+01 3.378e+00
3703 4 2.469e+01 1.180e+01 3.378e+00
5327 4 2.740e+01 1.156e+01 4.239e+00
3560 4 2.740e+01 1.156e+01 4.239e+00
3322 4 3.061e+01 1.164e+01 3.514e+00
7115 1 3.061e+01 1.164e+01 3.514e+00
5425 4 3.500e+01 1.359e+01 3.837e+00
4485 4 3.296e+01 1.169e+01 5.250e+00
8223 2 3.500e+01 1.359e+01 3.837e+00
6063 4 3.296e+01 1.169e+01 5.250e+00
2115 5 3.655e+01 1.106e+01 2.963e+00
5701 4 3.655e+01 1.106e+01 2.963e+00
3843 4 3.753e+01 1.316e+01 4.579e+00
8973 2 3.981e+01 1.310e+01 5.260e+00
6352 4 3.981e+01 1.310e+01 5.260e+00
7476 2 4.215e+01 1.348e+01 3.166e+00
5189 4 4.215e+01 1.348e+01 3.166e+00
608 5 4.418e+01 1.149e+01 4.408e+00
4241 4 4.418e+01 1.149e+01 4.408e+00
9085 2 5.277e-01 1.443e+01 3.970e+00
2782 4 5.277e-01 1.443e+01 3.970e+00
2657 5 2.954e+00 1.575e+01 4.820e+00
7355 3 2.954e+00 1.575e+01 4.820e+00
7724 2 6.694e+00 1.387e+01 3.706e+00
7987 2 6.694e+00 1.387e+01 3.706e+00
6003 4 9.553e+00 1.481e+01 3.914e+00
4651 4 9.553e+00 1.481e+01 3.914e+00
7446 2 1.248e+01 1.445e+01 5.138e+00
7141 1 1.248e+01 1.445e+01 5.138e+00
49 5 1.353e+01 1.626e+01 3.151e+00
6930 1 1.353e+01 1.626e+01 3.151e+00
3448 4 1.589e+01 1.509e+01 4.957e+00
4698 4 1.589e+01 1.509e+01 4.957e+00
7552 2 1.862e+01 1.421e+01 3.924e+00
7382 3 1.862e+01 1.421e+01 3.924e+00
8654 2 2.080e+01 1.614e+01 3.455e+00
1436 5 2.080e+01 1.614e+01 3.455e+00
4478 4 2.303e+01 1.428e+01 3.730e+00
5096 4 2.303e+01 1.428e+01 3.730e+00
6856 1 2.531e+01 1.432e+01 5.156e+00
8370 2 2.531e+01 1.432e+01 5.156e+00
3018 4 2.872e+01 1.405e+01 4.496e+00
4736 4 2.872e+01 1.405e+01 4.496e+00
2339 5 3.176e+01 1.411e+01 5.035e+00
3305 4 3.176e+01 1.411e+01 5.035e+00
3106 4 3.331e+01 1.597e+01 3.134e+00
6761 1 3.331e+01 1.597e+01 3.134e+00
9320 2 3.583e+01 1.620e+01 5.127e+00
311 5 3.583e+01 1.620e+01 5.127e+00
3268 4 3.844e+01 1.566e+01 3.975e+00
7009 1 3.844e+01 1.566e+01 3.975e+00
2111 5 4.119e+01 1.566e+01 4.558e+00
9008 2 4.119e+01 1.566e+01 4.558e+00
4667 4 4.414e+01 1.530e+01 4.696e+00
3719 4 4.414e+01 1.530e+01 4.696e+00
2029 5 1.297e+00 1.809e+01 5.112e+00
829 5 1.297e+00 1.809e+01 5.112e+00
1487 5 3.741e+00 1.829e+01 3.100e+00
5677 4 3.741e+00 1.829e+01 3.100e+00
8529 2 5.812e+00 1.672e+01 4.593e+00
3333 4 5.812e+00 1.672e+01 4.593e+00
3336 4 8.633e+00 1.764e+01 4.183e+00
333 5 8.633e+00 1.764e+01 4.183e+00
2205 5 1.145e+01 1.709e+01 4.676e+00
7794 2 1.551e+01 1.763e+01 3.113e+00
1454 5 1.793e+01 1.713e+01 4.054e+00
8706 2 1.793e+01 1.713e+01 4.054e+00
5611 4 1.995e+01 1.897e+01 2.836e+00
3292 4 1.995e+01 1.897e+01 2.836e+00
4585 4 2.284e+01 1.824e+01 2.955e+00
7258 3 2.284e+01 1.824e+01 2.955e+00
2368 5 2.445e+01 1.737e+01 5.192e+00
8931 2 2.445e+01 1.737e+01 5.192e+00
1917 5 2.698e+01 1.648e+01 4.045e+00
8808 2 2.698e+01 1.648e+01 4.045e+00