LAMMPS (29 Oct 2020)
Reading data file ...
  orthogonal box = (0.0000000 0.0000000 0.0000000) to (79.732439 79.732439 79.732439)
  1 by 1 by 1 MPI processor grid
  reading atoms ...
  50688 atoms
  read_data CPU = 0.134 seconds
# Temp    T_ave      vol_med   vol2_med   std_vol   E_med   E2_med  std_E  
ERROR: Variable std_vol: Invalid thermo keyword 'nan' in variable formula (../variable.cpp:2142)
Last command:   300  ${T_ave
