LAMMPS (29 Oct 2020)
#----------------------------------------------------------------------------------------#

#------------------------------ General variables ---------------------------------------#

 # Time variables

  variable        t_eq      equal     10000        # Equlibration time
  variable        dt        equal     0.001         # Time step
  variable        nthermo   equal     2000     		# output frequency
#----------------------------------------------------------------------------------------#

  units           metal
  atom_style      atomic
  read_data       data.txt
Reading data file ...
  orthogonal box = (0.0000000 0.0000000 0.0000000) to (79.732439 79.732439 79.732439)
  1 by 1 by 1 MPI processor grid
WARNING: Atom style in data file differs from currently defined atom style (../read_data.cpp:515)
  reading atoms ...
  50688 atoms
  read_data CPU = 0.086 seconds

# Interatomic potential information.

  neigh_modify    delay   0
  pair_style      soft ${cutoff}
  pair_style      soft 0.0538608672508
  pair_coeff      * *  1.0
  timestep        ${dt}
  timestep        0.001



#-------------------                 Simulation & output setup    ---------------------------
  fix 1 all nve
#  fix 2 all viscous 1.0
  thermo          ${nthermo}
  thermo          2000
#  thermo_modify   lost      ignore
  dump    1 all custom ${nthermo} ${OUT_PATH}/dumpFile.xyz id type x y z
  dump    1 all custom 2000 ${OUT_PATH}/dumpFile.xyz id type x y z
  dump    1 all custom 2000 ./dumpFile.xyz id type x y z
  dump_modify 1 flush yes format line "%d %d %4.3e %4.3e %4.3e"
#  reset_timestep  0
   run             ${t_eq}
   run             10000
Neighbor list info ...
  update every 1 steps, delay 0 steps, check yes
  max neighbors/atom: 2000, page size: 100000
  master list distance cutoff = 2.0538609
  ghost atom cutoff = 2.0538609
  binsize = 1.0269304, bins = 78 78 78
  1 neighbor lists, perpetual/occasional/extra = 1 0 0
  (1) pair soft, perpetual
      attributes: half, newton on
      pair build: half/bin/atomonly/newton
      stencil: half/bin/3d/newton
      bin: standard
Per MPI rank memory allocation (min/avg/max) = 18.68 | 18.68 | 18.68 Mbytes
Step Temp E_pair E_mol TotEng Press 
       0            0    1.8127686            0    1.8127686    3.3768564 
    2000    2.3320759            0            0    15.279316    32.197181 
    4000    8.2901517            0            0     54.31549    114.45576 
    6000    8.2901517            0            0     54.31549    114.45576 
    8000    8.1648473            0            0     53.49452    112.72578 
   10000    8.1648473            0            0     53.49452    112.72578 
Loop time of 151.681 on 1 procs for 10000 steps with 50688 atoms

Performance: 5.696 ns/day, 4.213 hours/ns, 65.928 timesteps/s
99.4% CPU use with 1 MPI tasks x no OpenMP threads

MPI task timing breakdown:
Section |  min time  |  avg time  |  max time  |%varavg| %total
---------------------------------------------------------------
Pair    | 14.008     | 14.008     | 14.008     |   0.0 |  9.24
Neigh   | 111.44     | 111.44     | 111.44     |   0.0 | 73.47
Comm    | 7.1178     | 7.1178     | 7.1178     |   0.0 |  4.69
Output  | 0.52236    | 0.52236    | 0.52236    |   0.0 |  0.34
Modify  | 10.755     | 10.755     | 10.755     |   0.0 |  7.09
Other   |            | 7.835      |            |       |  5.17

Nlocal:        50688.0 ave       50688 max       50688 min
Histogram: 1 0 0 0 0 0 0 0 0 0
Nghost:        8141.00 ave        8141 max        8141 min
Histogram: 1 0 0 0 0 0 0 0 0 0
Neighs:        92025.0 ave       92025 max       92025 min
Histogram: 1 0 0 0 0 0 0 0 0 0

Total # of neighbors = 92025
Ave neighs/atom = 1.8155185
Neighbor list builds = 4156
Dangerous builds = 0

Total wall time: 0:02:31
