LAMMPS (29 Oct 2020)
#----------------------------------------------------------------------------------------#

#------------------------------ General variables ---------------------------------------#

 # Time variables

  variable        t_eq      equal     10000        # Equlibration time
  variable        dt        equal     0.01         # Time step
  variable        nthermo   equal     2000     		# output frequency
#----------------------------------------------------------------------------------------#

  units           metal
  atom_style      atomic
  read_data       data.txt
Reading data file ...
  orthogonal box = (0.0000000 0.0000000 0.0000000) to (21.544347 21.544347 21.544347)
  1 by 1 by 1 MPI processor grid
WARNING: Atom style in data file differs from currently defined atom style (../read_data.cpp:515)
  reading atoms ...
  1000 atoms
  read_data CPU = 0.003 seconds

# Interatomic potential information.

  neigh_modify    delay   0
  pair_style      soft ${cutoff}
  pair_style      soft 0.215443469003
  pair_coeff      * *  1.0
  timestep        ${dt}
  timestep        0.01



#-------------------                 Simulation & output setup    ---------------------------
  fix 1 all nve
#  fix 2 all viscous 1.0
  thermo          ${nthermo}
  thermo          2000
#  thermo_modify   lost      ignore
  dump    1 all custom ${nthermo} ${OUT_PATH}/dumpFile.xyz id type x y z
  dump    1 all custom 2000 ${OUT_PATH}/dumpFile.xyz id type x y z
  dump    1 all custom 2000 ./dumpFile.xyz id type x y z
  dump_modify 1 flush yes format line "%d %d %4.3e %4.3e %4.3e"
#  reset_timestep  0
   run             ${t_eq}
   run             10000
Neighbor list info ...
  update every 1 steps, delay 0 steps, check yes
  max neighbors/atom: 2000, page size: 100000
  master list distance cutoff = 2.2154435
  ghost atom cutoff = 2.2154435
  binsize = 1.1077217, bins = 20 20 20
  1 neighbor lists, perpetual/occasional/extra = 1 0 0
  (1) pair soft, perpetual
      attributes: half, newton on
      pair build: half/bin/atomonly/newton
      stencil: half/bin/3d/newton
      bin: standard
Per MPI rank memory allocation (min/avg/max) = 4.426 | 4.426 | 4.426 Mbytes
Step Temp E_pair E_mol TotEng Press 
       0            0            0            0            0            0 
    2000            0            0            0            0            0 
    4000            0            0            0            0            0 
    6000            0            0            0            0            0 
    8000            0            0            0            0            0 
   10000            0            0            0            0            0 
Loop time of 0.631711 on 1 procs for 10000 steps with 1000 atoms

Performance: 13677.140 ns/day, 0.002 hours/ns, 15830.023 timesteps/s
99.3% CPU use with 1 MPI tasks x no OpenMP threads

MPI task timing breakdown:
Section |  min time  |  avg time  |  max time  |%varavg| %total
---------------------------------------------------------------
Pair    | 0.28576    | 0.28576    | 0.28576    |   0.0 | 45.24
Neigh   | 0          | 0          | 0          |   0.0 |  0.00
Comm    | 0.071732   | 0.071732   | 0.071732   |   0.0 | 11.36
Output  | 0.0091019  | 0.0091019  | 0.0091019  |   0.0 |  1.44
Modify  | 0.19082    | 0.19082    | 0.19082    |   0.0 | 30.21
Other   |            | 0.0743     |            |       | 11.76

Nlocal:        1000.00 ave        1000 max        1000 min
Histogram: 1 0 0 0 0 0 0 0 0 0
Nghost:        761.000 ave         761 max         761 min
Histogram: 1 0 0 0 0 0 0 0 0 0
Neighs:        2245.00 ave        2245 max        2245 min
Histogram: 1 0 0 0 0 0 0 0 0 0

Total # of neighbors = 2245
Ave neighs/atom = 2.2450000
Neighbor list builds = 0
Dangerous builds = 0

Total wall time: 0:00:00
