LAMMPS (29 Oct 2020)
#----------------------------------------------------------------------------------------#

#------------------------------ General variables ---------------------------------------#

 # Time variables

  variable        t_eq      equal     10000        # Equlibration time
  variable        dt        equal     0.01         # Time step
  variable        nthermo   equal     2000     		# output frequency
#----------------------------------------------------------------------------------------#

  units           metal
  atom_style      atomic
  read_data       data.txt
Reading data file ...
  orthogonal box = (0.0000000 0.0000000 0.0000000) to (79.732439 79.732439 79.732439)
  1 by 1 by 1 MPI processor grid
WARNING: Atom style in data file differs from currently defined atom style (../read_data.cpp:515)
  reading atoms ...
  50688 atoms
  read_data CPU = 0.091 seconds

# Interatomic potential information.

  neigh_modify    delay   0
  pair_style      soft ${cutoff}
  pair_style      soft 0.0538608672508
  pair_coeff      * *  1.0
  timestep        ${dt}
  timestep        0.01



#-------------------                 Simulation & output setup    ---------------------------
  fix 1 all nve
#  fix 2 all viscous 1.0
  thermo          ${nthermo}
  thermo          2000
#  thermo_modify   lost      ignore
  dump    1 all custom ${nthermo} ${OUT_PATH}/dumpFile.xyz id type x y z
  dump    1 all custom 2000 ${OUT_PATH}/dumpFile.xyz id type x y z
  dump    1 all custom 2000 ./dumpFile.xyz id type x y z
  dump_modify 1 flush yes format line "%d %d %4.3e %4.3e %4.3e"
#  reset_timestep  0
   run             ${t_eq}
   run             10000
Neighbor list info ...
  update every 1 steps, delay 0 steps, check yes
  max neighbors/atom: 2000, page size: 100000
  master list distance cutoff = 2.0538609
  ghost atom cutoff = 2.0538609
  binsize = 1.0269304, bins = 78 78 78
  1 neighbor lists, perpetual/occasional/extra = 1 0 0
  (1) pair soft, perpetual
      attributes: half, newton on
      pair build: half/bin/atomonly/newton
      stencil: half/bin/3d/newton
      bin: standard
Per MPI rank memory allocation (min/avg/max) = 18.68 | 18.68 | 18.68 Mbytes
Step Temp E_pair E_mol TotEng Press 
       0            0   0.14624924            0   0.14624924    1.4230393 
    2000    33.957688            0            0    222.48429    468.82773 
    4000    33.957688            0            0    222.48429    468.82773 
    6000    33.957688            0            0    222.48429    468.82773 
    8000    33.957688            0            0    222.48429    468.82773 
   10000    149.34079            0            0    978.45234    2061.8336 
Loop time of 321.074 on 1 procs for 10000 steps with 50688 atoms

Performance: 26.910 ns/day, 0.892 hours/ns, 31.145 timesteps/s
99.5% CPU use with 1 MPI tasks x no OpenMP threads

MPI task timing breakdown:
Section |  min time  |  avg time  |  max time  |%varavg| %total
---------------------------------------------------------------
Pair    | 14.403     | 14.403     | 14.403     |   0.0 |  4.49
Neigh   | 268.04     | 268.04     | 268.04     |   0.0 | 83.48
Comm    | 14.849     | 14.849     | 14.849     |   0.0 |  4.62
Output  | 0.52186    | 0.52186    | 0.52186    |   0.0 |  0.16
Modify  | 10.976     | 10.976     | 10.976     |   0.0 |  3.42
Other   |            | 12.28      |            |       |  3.82

Nlocal:        50688.0 ave       50688 max       50688 min
Histogram: 1 0 0 0 0 0 0 0 0 0
Nghost:        8217.00 ave        8217 max        8217 min
Histogram: 1 0 0 0 0 0 0 0 0 0
Neighs:        92056.0 ave       92056 max       92056 min
Histogram: 1 0 0 0 0 0 0 0 0 0

Total # of neighbors = 92056
Ave neighs/atom = 1.8161301
Neighbor list builds = 10000
Dangerous builds = 10000

Total wall time: 0:05:21
