LAMMPS (29 Oct 2020)
#----------------------------------------------------------------------------------------#

#------------------------------ General variables ---------------------------------------#

 # Time variables

  variable        t_eq      equal     10000        # Equlibration time
  variable        dt        equal     0.001         # Time step
  variable        nthermo   equal     2000     		# output frequency
#----------------------------------------------------------------------------------------#

  units           metal
  atom_style      atomic
  read_data       data.txt
Reading data file ...
  orthogonal box = (0.0000000 0.0000000 0.0000000) to (79.732439 79.732439 79.732439)
  1 by 1 by 1 MPI processor grid
WARNING: Atom style in data file differs from currently defined atom style (../read_data.cpp:515)
  reading atoms ...
  50688 atoms
  read_data CPU = 0.086 seconds

# Interatomic potential information.

  neigh_modify    delay   0
  pair_style      soft ${cutoff}
  pair_style      soft 0.215443469003
  pair_coeff      * *  1.0
  timestep        ${dt}
  timestep        0.001



#-------------------                 Simulation & output setup    ---------------------------
  fix 1 all nve
  fix 2 all viscous 1.0
  thermo          ${nthermo}
  thermo          2000
#  thermo_modify   lost      ignore
  dump    1 all custom ${nthermo} ${OUT_PATH}/dumpFile.xyz id type x y z
  dump    1 all custom 2000 ${OUT_PATH}/dumpFile.xyz id type x y z
  dump    1 all custom 2000 ./dumpFile.xyz id type x y z
  dump_modify 1 flush yes format line "%d %d %4.3e %4.3e %4.3e"
#  reset_timestep  0
   run             ${t_eq}
   run             10000
Neighbor list info ...
  update every 1 steps, delay 0 steps, check yes
  max neighbors/atom: 2000, page size: 100000
  master list distance cutoff = 2.2154435
  ghost atom cutoff = 2.2154435
  binsize = 1.1077217, bins = 72 72 72
  1 neighbor lists, perpetual/occasional/extra = 1 0 0
  (1) pair soft, perpetual
      attributes: half, newton on
      pair build: half/bin/atomonly/newton
      stencil: half/bin/3d/newton
      bin: standard
Per MPI rank memory allocation (min/avg/max) = 18.65 | 18.65 | 18.65 Mbytes
Step Temp E_pair E_mol TotEng Press 
       0            0    43.468345            0    43.468345    139.47381 
ERROR: Lost atoms: original 50688 current 50468 (../thermo.cpp:427)
Last command:    run             ${t_eq}
