LAMMPS (29 Oct 2020)
#----------------------------------------------------------------------------------------#

#------------------------------ General variables ---------------------------------------#

 # Time variables

  variable        t_eq      equal     10000        # Equlibration time
  variable        dt        equal     0.01         # Time step
  variable        nthermo   equal     1000     		# output frequency
#----------------------------------------------------------------------------------------#

  units           metal
  atom_style      atomic
  read_data       data.txt
Reading data file ...
  orthogonal box = (0.0000000 0.0000000 0.0000000) to (79.732439 79.732439 79.732439)
  1 by 1 by 1 MPI processor grid
  reading atoms ...
  50688 atoms
  read_data CPU = 0.139 seconds

# Interatomic potential information.

  neigh_modify    delay   0
  pair_style      soft ${cutoff}
  pair_style      soft 2.15443469003
  pair_coeff      * *  10.0
  timestep        ${dt}
  timestep        0.01



#-------------------                 Simulation & output setup    ---------------------------
  fix all viscous 1.0
ERROR: Could not find fix group ID (../modify.cpp:815)
Last command:   fix all viscous 1.0
