LAMMPS (29 Oct 2020)
#----------------------------------------------------------------------------------------#

#------------------------------ General variables ---------------------------------------#

 # Time variables

  variable        t_eq      equal     10000        # Equlibration time
  variable        dt        equal     0.001         # Time step
  variable        nthermo   equal     2000     		# output frequency
#----------------------------------------------------------------------------------------#

  units           metal
  atom_style      atomic
  read_data       data.txt
Reading data file ...
  orthogonal box = (0.0000000 0.0000000 0.0000000) to (79.732439 79.732439 79.732439)
  1 by 1 by 1 MPI processor grid
WARNING: Atom style in data file differs from currently defined atom style (../read_data.cpp:515)
  reading atoms ...
  50688 atoms
  read_data CPU = 0.086 seconds

# Interatomic potential information.

  neigh_modify    delay   0
  pair_style      soft ${cutoff}
  pair_style      soft 0.0215443469003
  pair_coeff      * *  1.0
  timestep        ${dt}
  timestep        0.001



#-------------------                 Simulation & output setup    ---------------------------
  fix 1 all nve
  fix 2 all viscous 1.0
  thermo          ${nthermo}
  thermo          2000
#  thermo_modify   lost      ignore
  dump    1 all custom ${nthermo} ${OUT_PATH}/dumpFile.xyz id type x y z
  dump    1 all custom 2000 ${OUT_PATH}/dumpFile.xyz id type x y z
  dump    1 all custom 2000 ./dumpFile.xyz id type x y z
  dump_modify 1 flush yes format line "%d %d %4.3e %4.3e %4.3e"
#  reset_timestep  0
   run             ${t_eq}
   run             10000
Neighbor list info ...
  update every 1 steps, delay 0 steps, check yes
  max neighbors/atom: 2000, page size: 100000
  master list distance cutoff = 2.0215443
  ghost atom cutoff = 2.0215443
  binsize = 1.0107722, bins = 79 79 79
  1 neighbor lists, perpetual/occasional/extra = 1 0 0
  (1) pair soft, perpetual
      attributes: half, newton on
      pair build: half/bin/atomonly/newton
      stencil: half/bin/3d/newton
      bin: standard
Per MPI rank memory allocation (min/avg/max) = 18.76 | 18.76 | 18.76 Mbytes
Step Temp E_pair E_mol TotEng Press 
       0            0            0            0            0            0 
    2000            0            0            0            0            0 
    4000            0            0            0            0            0 
    6000            0            0            0            0            0 
    8000            0            0            0            0            0 
   10000            0            0            0            0            0 
Loop time of 34.2804 on 1 procs for 10000 steps with 50688 atoms

Performance: 25.204 ns/day, 0.952 hours/ns, 291.712 timesteps/s
99.2% CPU use with 1 MPI tasks x no OpenMP threads

MPI task timing breakdown:
Section |  min time  |  avg time  |  max time  |%varavg| %total
---------------------------------------------------------------
Pair    | 13.521     | 13.521     | 13.521     |   0.0 | 39.44
Neigh   | 0          | 0          | 0          |   0.0 |  0.00
Comm    | 1.5912     | 1.5912     | 1.5912     |   0.0 |  4.64
Output  | 0.57566    | 0.57566    | 0.57566    |   0.0 |  1.68
Modify  | 13.991     | 13.991     | 13.991     |   0.0 | 40.81
Other   |            | 4.602      |            |       | 13.42

Nlocal:        50688.0 ave       50688 max       50688 min
Histogram: 1 0 0 0 0 0 0 0 0 0
Nghost:        8043.00 ave        8043 max        8043 min
Histogram: 1 0 0 0 0 0 0 0 0 0
Neighs:        87715.0 ave       87715 max       87715 min
Histogram: 1 0 0 0 0 0 0 0 0 0

Total # of neighbors = 87715
Ave neighs/atom = 1.7304885
Neighbor list builds = 0
Dangerous builds = 0

Total wall time: 0:00:34
