LAMMPS (29 Oct 2020)
Reading data file ...
ERROR on proc 0: Cannot open file data.txt: No such file or directory (../read_data.cpp:1965)
