LAMMPS (29 Oct 2020)
Reading data file ...
  orthogonal box = (0.0000000 0.0000000 0.0000000) to (1.0000000 1.0000000 1.0000000)
  1 by 1 by 1 MPI processor grid
  reading atoms ...
  1000 atoms
  read_data CPU = 0.003 seconds
ERROR on proc 0: Substitution for illegal variable pair_coeff_args (../input.cpp:597)
