ITEM: TIMESTEP
0
ITEM: NUMBER OF ATOMS
16384
ITEM: BOX BOUNDS pp pp pp
0.0000000000000000e+00 3.8322611223106300e+01
0.0000000000000000e+00 3.8322611223106300e+01
0.0000000000000000e+00 3.8322611223106300e+01
ITEM: ATOMS id type x y z
1 4 0 0 0
2 4 1.20709 1.20709 0
5 4 2.41417 1.20709 1.20709
32 4 1.20709 2.41417 1.20709
8193 2 0 0 0
8194 2 1.20709 1.20709 0
8195 2 1.20709 0 1.20709
8196 2 0 1.20709 1.20709
8226 2 0 2.41417 0
8730 2 1.20709 1.20709 2.41417
8760 2 2.41417 2.41417 2.41417
3 4 3.62126 1.20709 0
4 4 3.62126 0 1.20709
6 4 6.03543 0 1.20709
7 4 4.82835 1.20709 1.20709
34 4 3.62126 2.41417 1.20709
36 4 4.82835 2.41417 0
38 4 6.03543 2.41417 1.20709
558 4 4.82835 2.41417 2.41417
8197 2 3.62126 0 1.20709
8198 2 4.82835 0 0
8199 2 6.03543 1.20709 0
8228 2 3.62126 2.41417 1.20709
8229 2 4.82835 2.41417 0
8732 2 3.62126 1.20709 2.41417
8735 2 4.82835 0 2.41417
8 4 8.44961 1.20709 0
9 4 8.44961 0 1.20709
10 4 7.24252 1.20709 1.20709
11 4 9.65669 0 0
12 4 9.65669 1.20709 1.20709
41 4 8.44961 2.41417 1.20709
43 4 9.65669 2.41417 0
525 4 8.44961 1.20709 2.41417
528 4 9.65669 0 2.41417
561 4 7.24252 2.41417 2.41417
8200 2 8.44961 1.20709 0
8231 2 9.65669 2.41417 0
8740 2 9.65669 0 2.41417
46 4 13.278 2.41417 1.20709
565 4 12.0709 2.41417 2.41417
8201 2 10.8638 0 1.20709
8202 2 13.278 0 1.20709
8203 2 12.0709 1.20709 1.20709
8232 2 10.8638 2.41417 1.20709
13 4 14.485 0 0
14 4 16.8992 0 0
16 4 16.8992 1.20709 1.20709
48 4 14.485 2.41417 0
50 4 15.6921 2.41417 1.20709
532 4 15.6921 1.20709 2.41417
534 4 16.8992 0 2.41417
568 4 14.485 2.41417 2.41417
8204 2 14.485 0 0
8205 2 15.6921 1.20709 0
8206 2 14.485 1.20709 1.20709
8207 2 16.8992 0 0
8235 2 15.6921 2.41417 1.20709
8236 2 16.8992 2.41417 0
8743 2 14.485 0 2.41417
8744 2 15.6921 1.20709 2.41417
8746 2 16.8992 0 2.41417
8770 2 14.485 2.41417 2.41417
8773 2 16.8992 2.41417 2.41417
15 4 18.1063 0 1.20709
17 4 19.3134 0 0
18 4 20.5205 1.20709 0
19 4 20.5205 0 1.20709
53 4 19.3134 2.41417 0
55 4 20.5205 2.41417 1.20709
536 4 19.3134 0 2.41417
537 4 20.5205 1.20709 2.41417
571 4 19.3134 2.41417 2.41417
8208 2 18.1063 0 1.20709
8209 2 20.5205 1.20709 0
8238 2 19.3134 2.41417 0
8748 2 19.3134 0 2.41417
20 4 22.9346 1.20709 0
21 4 22.9346 0 1.20709
57 4 21.7276 2.41417 0
540 4 24.1417 0 2.41417
575 4 21.7276 2.41417 2.41417
8210 2 22.9346 1.20709 0
8211 2 22.9346 0 1.20709
8212 2 21.7276 1.20709 1.20709
8213 2 24.1417 0 0
8215 2 24.1417 1.20709 1.20709
8240 2 22.9346 2.41417 1.20709
8750 2 22.9346 1.20709 2.41417
8778 2 21.7276 2.41417 2.41417
22 4 25.3488 1.20709 0
23 4 26.5559 0 0
24 4 27.763 1.20709 0
60 4 25.3488 2.41417 1.20709
62 4 27.763 2.41417 1.20709
541 4 26.5559 0 2.41417
542 4 27.763 1.20709 2.41417
8214 2 25.3488 0 1.20709
8216 2 27.763 1.20709 0
8217 2 26.5559 1.20709 1.20709
8242 2 25.3488 2.41417 1.20709
8243 2 26.5559 2.41417 0
8754 2 27.763 1.20709 2.41417
25 4 30.1772 1.20709 0
63 4 28.9701 2.41417 0
65 4 30.1772 2.41417 1.20709
543 4 30.1772 1.20709 2.41417
8218 2 28.9701 0 0
8219 2 30.1772 1.20709 0
8220 2 28.9701 1.20709 1.20709
8245 2 28.9701 2.41417 0
8246 2 30.1772 2.41417 1.20709
8783 2 28.9701 2.41417 2.41417
26 4 32.5913 1.20709 0
27 4 33.7984 0 0
29 4 33.7984 1.20709 1.20709
67 4 32.5913 2.41417 1.20709
68 4 33.7984 2.41417 0
546 4 31.3843 0 2.41417
547 4 32.5913 1.20709 2.41417
583 4 31.3843 2.41417 2.41417
8221 2 31.3843 0 0
8222 2 32.5913 0 1.20709
8223 2 31.3843 1.20709 1.20709
8247 2 31.3843 2.41417 0
8249 2 32.5913 2.41417 1.20709
8251 2 33.7984 2.41417 0
8757 2 31.3843 0 2.41417
8787 2 33.7984 2.41417 2.41417
28 4 35.0055 0 1.20709
30 4 36.2126 0 0
31 4 37.4197 1.20709 0
70 4 36.2126 2.41417 0
551 4 36.2126 0 2.41417
8224 2 35.0055 0 1.20709
8225 2 36.2126 0 0
8252 2 36.2126 2.41417 0
8254 2 37.4197 2.41417 1.20709
8759 2 37.4197 1.20709 2.41417
33 4 0 3.62126 1.20709
35 4 2.41417 3.62126 1.20709
73 4 1.20709 4.82835 1.20709
75 4 2.41417 6.03543 1.20709
553 4 1.20709 3.62126 2.41417
587 4 0 4.82835 2.41417
588 4 1.20709 6.03543 2.41417
8227 2 1.20709 3.62126 0
8256 2 1.20709 4.82835 1.20709
8257 2 0 6.03543 1.20709
8258 2 2.41417 4.82835 0
8790 2 0 4.82835 2.41417
8793 2 2.41417 4.82835 2.41417
37 4 6.03543 3.62126 0
39 4 4.82835 3.62126 1.20709
74 4 3.62126 4.82835 1.20709
555 4 3.62126 3.62126 2.41417
590 4 3.62126 6.03543 2.41417
8230 2 6.03543 3.62126 0
8259 2 3.62126 6.03543 0
8260 2 4.82835 4.82835 0
8261 2 6.03543 4.82835 1.20709
8262 2 4.82835 6.03543 1.20709
8761 2 3.62126 3.62126 2.41417
8762 2 6.03543 3.62126 2.41417
8794 2 3.62126 6.03543 2.41417
40 4 8.44961 3.62126 0
42 4 7.24252 3.62126 1.20709
45 4 9.65669 3.62126 1.20709
76 4 7.24252 4.82835 0
77 4 8.44961 4.82835 1.20709
562 4 8.44961 3.62126 2.41417
592 4 9.65669 4.82835 2.41417
8263 2 7.24252 4.82835 0
8264 2 7.24252 6.03543 1.20709
8265 2 9.65669 4.82835 0
8798 2 8.44961 6.03543 2.41417
44 4 10.8638 3.62126 0
47 4 12.0709 3.62126 1.20709
78 4 10.8638 4.82835 1.20709
79 4 13.278 6.03543 0
80 4 13.278 4.82835 1.20709
563 4 10.8638 3.62126 2.41417
566 4 13.278 3.62126 2.41417
594 4 12.0709 4.82835 2.41417
595 4 13.278 6.03543 2.41417
8233 2 13.278 3.62126 0
8266 2 10.8638 6.03543 0
8267 2 10.8638 4.82835 1.20709
8268 2 12.0709 4.82835 0
8269 2 13.278 6.03543 0
8270 2 13.278 4.82835 1.20709
8765 2 10.8638 3.62126 2.41417
8768 2 13.278 3.62126 2.41417
8801 2 13.278 6.03543 2.41417
49 4 15.6921 3.62126 0
51 4 14.485 3.62126 1.20709
52 4 16.8992 3.62126 1.20709
81 4 14.485 4.82835 0
82 4 15.6921 4.82835 1.20709
83 4 16.8992 6.03543 1.20709
569 4 15.6921 3.62126 2.41417
596 4 14.485 4.82835 2.41417
598 4 16.8992 4.82835 2.41417
8234 2 15.6921 3.62126 0
8237 2 16.8992 3.62126 1.20709
8271 2 15.6921 6.03543 0
8272 2 14.485 6.03543 1.20709
8273 2 16.8992 6.03543 1.20709
8771 2 15.6921 3.62126 2.41417
8804 2 16.8992 4.82835 2.41417
54 4 20.5205 3.62126 0
56 4 19.3134 3.62126 1.20709
84 4 20.5205 4.82835 1.20709
572 4 20.5205 3.62126 2.41417
599 4 18.1063 6.03543 2.41417
601 4 20.5205 6.03543 2.41417
8239 2 20.5205 3.62126 0
8274 2 19.3134 4.82835 0
8275 2 20.5205 6.03543 0
8276 2 19.3134 6.03543 1.20709
8776 2 20.5205 3.62126 2.41417
8805 2 20.5205 6.03543 2.41417
58 4 22.9346 3.62126 0
59 4 21.7276 3.62126 1.20709
61 4 24.1417 3.62126 1.20709
85 4 22.9346 6.03543 0
86 4 21.7276 6.03543 1.20709
88 4 24.1417 6.03543 1.20709
576 4 22.9346 3.62126 2.41417
603 4 21.7276 4.82835 2.41417
8241 2 21.7276 3.62126 1.20709
8277 2 21.7276 4.82835 0
8278 2 22.9346 6.03543 0
8279 2 22.9346 4.82835 1.20709
8280 2 21.7276 6.03543 1.20709
8281 2 24.1417 4.82835 0
87 4 25.3488 4.82835 1.20709
89 4 27.763 4.82835 1.20709
90 4 26.5559 6.03543 1.20709
579 4 27.763 3.62126 2.41417
604 4 26.5559 4.82835 2.41417
8244 2 27.763 3.62126 0
8282 2 25.3488 6.03543 0
8283 2 25.3488 4.82835 1.20709
8284 2 27.763 6.03543 0
8809 2 25.3488 6.03543 2.41417
8812 2 26.5559 4.82835 2.41417
8813 2 27.763 6.03543 2.41417
64 4 30.1772 3.62126 0
91 4 30.1772 6.03543 0
92 4 28.9701 6.03543 1.20709
582 4 30.1772 3.62126 2.41417
8285 2 28.9701 4.82835 0
8784 2 30.1772 3.62126 2.41417
8816 2 28.9701 4.82835 2.41417
8817 2 30.1772 6.03543 2.41417
66 4 32.5913 3.62126 0
93 4 31.3843 6.03543 1.20709
94 4 33.7984 4.82835 0
584 4 32.5913 3.62126 2.41417
8248 2 32.5913 3.62126 0
8250 2 31.3843 3.62126 1.20709
8286 2 32.5913 6.03543 0
8287 2 32.5913 4.82835 1.20709
8288 2 31.3843 6.03543 1.20709
8289 2 33.7984 4.82835 0
8291 2 33.7984 6.03543 1.20709
69 4 35.0055 3.62126 0
71 4 37.4197 3.62126 0
72 4 36.2126 3.62126 1.20709
95 4 36.2126 4.82835 0
96 4 37.4197 6.03543 0
97 4 36.2126 6.03543 1.20709
586 4 37.4197 3.62126 2.41417
609 4 36.2126 4.82835 2.41417
610 4 37.4197 6.03543 2.41417
8253 2 37.4197 3.62126 0
8255 2 36.2126 3.62126 1.20709
8290 2 35.0055 6.03543 0
8292 2 36.2126 4.82835 0
8293 2 37.4197 6.03543 0
8294 2 36.2126 6.03543 1.20709
8789 2 37.4197 3.62126 2.41417
8822 2 37.4197 6.03543 2.41417
98 4 1.20709 8.44961 0
99 4 1.20709 7.24252 1.20709
100 4 0 8.44961 1.20709
101 4 2.41417 7.24252 0
8295 2 0 7.24252 0
8296 2 2.41417 7.24252 0
8327 2 1.20709 9.65669 1.20709
8329 2 2.41417 9.65669 0
8824 2 0 7.24252 2.41417
8825 2 1.20709 8.44961 2.41417
8826 2 2.41417 7.24252 2.41417
8852 2 0 9.65669 2.41417
8856 2 2.41417 9.65669 2.41417
102 4 3.62126 8.44961 0
103 4 3.62126 7.24252 1.20709
104 4 4.82835 7.24252 0
105 4 6.03543 7.24252 1.20709
134 4 6.03543 9.65669 1.20709
612 4 3.62126 8.44961 2.41417
613 4 4.82835 7.24252 2.41417
614 4 6.03543 8.44961 2.41417
8297 2 3.62126 8.44961 0
8298 2 3.62126 7.24252 1.20709
8299 2 4.82835 7.24252 0
8300 2 6.03543 8.44961 0
8331 2 3.62126 9.65669 1.20709
8333 2 4.82835 9.65669 0
8827 2 4.82835 7.24252 2.41417
8828 2 6.03543 8.44961 2.41417
106 4 8.44961 8.44961 0
107 4 8.44961 7.24252 1.20709
616 4 8.44961 8.44961 2.41417
8301 2 7.24252 7.24252 0
8302 2 8.44961 8.44961 0
8303 2 7.24252 8.44961 1.20709
8829 2 8.44961 8.44961 2.41417
8831 2 9.65669 7.24252 2.41417
108 4 12.0709 7.24252 0
109 4 13.278 8.44961 0
110 4 13.278 7.24252 1.20709
137 4 12.0709 9.65669 0
618 4 12.0709 7.24252 2.41417
8304 2 10.8638 8.44961 0
8305 2 10.8638 7.24252 1.20709
8306 2 13.278 8.44961 0
8338 2 10.8638 9.65669 1.20709
8340 2 12.0709 9.65669 0
8341 2 13.278 9.65669 1.20709
8864 2 12.0709 9.65669 2.41417
111 4 14.485 7.24252 0
112 4 15.6921 7.24252 1.20709
113 4 14.485 8.44961 1.20709
114 4 16.8992 7.24252 0
117 4 16.8992 8.44961 1.20709
139 4 14.485 9.65669 0
620 4 15.6921 8.44961 2.41417
8307 2 15.6921 8.44961 0
8308 2 14.485 8.44961 1.20709
8309 2 16.8992 7.24252 0
8311 2 16.8992 8.44961 1.20709
8344 2 15.6921 9.65669 1.20709
8833 2 15.6921 8.44961 2.41417
8866 2 14.485 9.65669 2.41417
8868 2 16.8992 9.65669 2.41417
115 4 18.1063 8.44961 0
116 4 18.1063 7.24252 1.20709
118 4 19.3134 8.44961 1.20709
143 4 20.5205 9.65669 1.20709
621 4 18.1063 8.44961 2.41417
623 4 19.3134 7.24252 2.41417
624 4 20.5205 8.44961 2.41417
654 4 19.3134 9.65669 2.41417
8310 2 18.1063 7.24252 1.20709
8312 2 19.3134 7.24252 0
8313 2 20.5205 8.44961 0
8834 2 18.1063 8.44961 2.41417
8835 2 19.3134 7.24252 2.41417
8836 2 20.5205 8.44961 2.41417
119 4 21.7276 7.24252 0
120 4 22.9346 8.44961 0
121 4 22.9346 7.24252 1.20709
122 4 21.7276 8.44961 1.20709
123 4 24.1417 7.24252 0
146 4 22.9346 9.65669 1.20709
148 4 24.1417 9.65669 0
626 4 21.7276 7.24252 2.41417
628 4 24.1417 7.24252 2.41417
657 4 21.7276 9.65669 2.41417
8314 2 21.7276 7.24252 0
8315 2 22.9346 7.24252 1.20709
8316 2 24.1417 7.24252 0
8349 2 22.9346 9.65669 1.20709
8838 2 22.9346 8.44961 2.41417
8839 2 24.1417 7.24252 2.41417
124 4 25.3488 7.24252 1.20709
629 4 25.3488 8.44961 2.41417
660 4 26.5559 9.65669 2.41417
8317 2 26.5559 7.24252 0
8318 2 26.5559 8.44961 1.20709
8353 2 26.5559 9.65669 0
8354 2 27.763 9.65669 1.20709
8840 2 25.3488 8.44961 2.41417
8843 2 27.763 8.44961 2.41417
125 4 30.1772 8.44961 0
126 4 30.1772 7.24252 1.20709
127 4 28.9701 8.44961 1.20709
152 4 28.9701 9.65669 0
633 4 28.9701 7.24252 2.41417
662 4 28.9701 9.65669 2.41417
8356 2 28.9701 9.65669 0
8357 2 30.1772 9.65669 1.20709
128 4 31.3843 7.24252 0
129 4 32.5913 7.24252 1.20709
130 4 33.7984 7.24252 0
155 4 31.3843 9.65669 0
156 4 32.5913 9.65669 1.20709
158 4 33.7984 9.65669 0
664 4 31.3843 9.65669 2.41417
667 4 33.7984 9.65669 2.41417
8319 2 32.5913 7.24252 1.20709
8320 2 31.3843 8.44961 1.20709
8321 2 33.7984 7.24252 0
8322 2 33.7984 8.44961 1.20709
8359 2 32.5913 9.65669 1.20709
8847 2 33.7984 7.24252 2.41417
8878 2 31.3843 9.65669 2.41417
131 4 37.4197 8.44961 0
635 4 35.0055 8.44961 2.41417
637 4 36.2126 7.24252 2.41417
8323 2 36.2126 7.24252 0
8324 2 37.4197 8.44961 0
8325 2 36.2126 8.44961 1.20709
8362 2 36.2126 9.65669 0
8364 2 37.4197 9.65669 1.20709
8848 2 35.0055 8.44961 2.41417
8851 2 37.4197 8.44961 2.41417
132 4 1.20709 10.8638 0
160 4 0 12.0709 0
161 4 1.20709 13.278 0
162 4 1.20709 12.0709 1.20709
163 4 0 13.278 1.20709
164 4 2.41417 12.0709 0
640 4 1.20709 10.8638 2.41417
672 4 0 12.0709 2.41417
675 4 2.41417 12.0709 2.41417
8326 2 1.20709 10.8638 0
8328 2 0 10.8638 1.20709
8332 2 2.41417 10.8638 1.20709
8366 2 0 12.0709 0
8367 2 1.20709 13.278 0
8368 2 1.20709 12.0709 1.20709
8369 2 0 13.278 1.20709
8370 2 2.41417 12.0709 0
8373 2 2.41417 13.278 1.20709
8853 2 1.20709 10.8638 2.41417
8880 2 0 12.0709 2.41417
8883 2 2.41417 12.0709 2.41417
133 4 3.62126 10.8638 0
165 4 3.62126 12.0709 1.20709
166 4 6.03543 13.278 0
167 4 6.03543 12.0709 1.20709
168 4 4.82835 13.278 1.20709
676 4 3.62126 13.278 2.41417
679 4 4.82835 12.0709 2.41417
680 4 6.03543 13.278 2.41417
8330 2 3.62126 10.8638 0
8334 2 6.03543 10.8638 0
8335 2 4.82835 10.8638 1.20709
8371 2 3.62126 13.278 0
8372 2 3.62126 12.0709 1.20709
8374 2 4.82835 12.0709 0
8375 2 6.03543 13.278 0
8857 2 3.62126 10.8638 2.41417
8860 2 6.03543 10.8638 2.41417
8884 2 3.62126 13.278 2.41417
8886 2 4.82835 12.0709 2.41417
8887 2 6.03543 13.278 2.41417
135 4 7.24252 10.8638 1.20709
136 4 9.65669 10.8638 1.20709
169 4 8.44961 12.0709 1.20709
170 4 7.24252 13.278 1.20709
171 4 9.65669 12.0709 0
174 4 9.65669 13.278 1.20709
682 4 7.24252 12.0709 2.41417
683 4 8.44961 13.278 2.41417
685 4 9.65669 12.0709 2.41417
8336 2 8.44961 10.8638 0
8339 2 9.65669 10.8638 1.20709
8376 2 8.44961 13.278 0
8377 2 8.44961 12.0709 1.20709
8378 2 9.65669 12.0709 0
8381 2 9.65669 13.278 1.20709
8888 2 8.44961 13.278 2.41417
8890 2 9.65669 12.0709 2.41417
138 4 13.278 10.8638 0
172 4 10.8638 13.278 0
173 4 10.8638 12.0709 1.20709
175 4 12.0709 12.0709 0
176 4 12.0709 13.278 1.20709
686 4 10.8638 13.278 2.41417
688 4 12.0709 12.0709 2.41417
689 4 13.278 13.278 2.41417
8337 2 10.8638 10.8638 0
8342 2 12.0709 10.8638 1.20709
8379 2 10.8638 13.278 0
8380 2 10.8638 12.0709 1.20709
8382 2 13.278 13.278 0
8383 2 13.278 12.0709 1.20709
8863 2 10.8638 10.8638 2.41417
8891 2 10.8638 13.278 2.41417
8892 2 13.278 13.278 2.41417
140 4 15.6921 10.8638 0
142 4 16.8992 10.8638 1.20709
177 4 14.485 12.0709 0
178 4 15.6921 13.278 0
691 4 15.6921 13.278 2.41417
8343 2 15.6921 10.8638 0
8345 2 14.485 10.8638 1.20709
8346 2 16.8992 10.8638 1.20709
8384 2 15.6921 13.278 0
8385 2 15.6921 12.0709 1.20709
8386 2 16.8992 12.0709 0
8867 2 15.6921 10.8638 2.41417
8894 2 14.485 12.0709 2.41417
8895 2 15.6921 13.278 2.41417
8897 2 16.8992 12.0709 2.41417
141 4 18.1063 10.8638 0
144 4 19.3134 10.8638 1.20709
179 4 18.1063 13.278 0
652 4 18.1063 10.8638 2.41417
655 4 20.5205 10.8638 2.41417
8347 2 20.5205 10.8638 0
8348 2 19.3134 10.8638 1.20709
8387 2 18.1063 13.278 0
8388 2 19.3134 13.278 1.20709
8869 2 18.1063 10.8638 2.41417
8870 2 20.5205 10.8638 2.41417
8898 2 20.5205 13.278 2.41417
145 4 22.9346 10.8638 0
147 4 21.7276 10.8638 1.20709
150 4 24.1417 10.8638 1.20709
180 4 21.7276 12.0709 0
181 4 22.9346 13.278 0
182 4 21.7276 13.278 1.20709
183 4 24.1417 12.0709 0
658 4 22.9346 10.8638 2.41417
8350 2 21.7276 10.8638 1.20709
8352 2 24.1417 10.8638 1.20709
8389 2 22.9346 13.278 0
8390 2 22.9346 12.0709 1.20709
8391 2 24.1417 12.0709 0
8871 2 22.9346 10.8638 2.41417
8899 2 22.9346 13.278 2.41417
8902 2 24.1417 12.0709 2.41417
149 4 25.3488 10.8638 0
151 4 27.763 10.8638 0
184 4 26.5559 12.0709 0
185 4 26.5559 13.278 1.20709
659 4 25.3488 10.8638 2.41417
661 4 27.763 10.8638 2.41417
698 4 26.5559 12.0709 2.41417
699 4 27.763 13.278 2.41417
8351 2 25.3488 10.8638 0
8355 2 26.5559 10.8638 1.20709
8392 2 25.3488 13.278 0
8393 2 25.3488 12.0709 1.20709
8394 2 26.5559 13.278 1.20709
8874 2 25.3488 10.8638 2.41417
8903 2 25.3488 13.278 2.41417
153 4 30.1772 10.8638 0
154 4 28.9701 10.8638 1.20709
186 4 30.1772 12.0709 1.20709
663 4 30.1772 10.8638 2.41417
701 4 28.9701 12.0709 2.41417
8358 2 28.9701 10.8638 1.20709
8395 2 28.9701 12.0709 0
8396 2 30.1772 12.0709 1.20709
8397 2 28.9701 13.278 1.20709
8906 2 28.9701 12.0709 2.41417
8907 2 30.1772 13.278 2.41417
157 4 31.3843 10.8638 1.20709
187 4 32.5913 13.278 0
188 4 32.5913 12.0709 1.20709
189 4 31.3843 13.278 1.20709
702 4 31.3843 12.0709 2.41417
703 4 32.5913 13.278 2.41417
705 4 33.7984 12.0709 2.41417
8360 2 31.3843 10.8638 1.20709
8398 2 31.3843 12.0709 0
8399 2 32.5913 12.0709 1.20709
8400 2 31.3843 13.278 1.20709
8401 2 33.7984 12.0709 0
8909 2 31.3843 12.0709 2.41417
8910 2 32.5913 13.278 2.41417
159 4 36.2126 10.8638 1.20709
190 4 35.0055 13.278 0
191 4 37.4197 13.278 0
192 4 37.4197 12.0709 1.20709
668 4 35.0055 10.8638 2.41417
706 4 35.0055 13.278 2.41417
709 4 36.2126 12.0709 2.41417
710 4 37.4197 13.278 2.41417
8361 2 35.0055 10.8638 0
8363 2 37.4197 10.8638 0
8365 2 36.2126 10.8638 1.20709
8402 2 35.0055 13.278 0
8403 2 37.4197 13.278 0
8913 2 35.0055 13.278 2.41417
8916 2 36.2126 12.0709 2.41417
193 4 1.20709 15.6921 0
194 4 1.20709 14.485 1.20709
195 4 0 15.6921 1.20709
196 4 2.41417 14.485 0
230 4 0 16.8992 0
232 4 1.20709 16.8992 1.20709
711 4 0 14.485 2.41417
712 4 1.20709 15.6921 2.41417
713 4 2.41417 14.485 2.41417
747 4 0 16.8992 2.41417
750 4 2.41417 16.8992 2.41417
8404 2 2.41417 14.485 0
8405 2 2.41417 15.6921 1.20709
8431 2 0 16.8992 0
8433 2 1.20709 16.8992 1.20709
8918 2 0 14.485 2.41417
8919 2 1.20709 15.6921 2.41417
8920 2 2.41417 14.485 2.41417
8952 2 0 16.8992 2.41417
197 4 3.62126 15.6921 0
198 4 4.82835 14.485 0
199 4 6.03543 15.6921 0
200 4 6.03543 14.485 1.20709
201 4 4.82835 15.6921 1.20709
235 4 3.62126 16.8992 1.20709
237 4 6.03543 16.8992 1.20709
715 4 6.03543 15.6921 2.41417
8406 2 4.82835 14.485 0
8407 2 6.03543 15.6921 0
8436 2 3.62126 16.8992 1.20709
8437 2 4.82835 16.8992 0
8439 2 6.03543 16.8992 1.20709
8921 2 3.62126 15.6921 2.41417
8923 2 4.82835 14.485 2.41417
8924 2 6.03543 15.6921 2.41417
8956 2 4.82835 16.8992 2.41417
202 4 7.24252 14.485 0
203 4 8.44961 15.6921 0
204 4 8.44961 14.485 1.20709
239 4 7.24252 16.8992 0
240 4 8.44961 16.8992 1.20709
718 4 7.24252 14.485 2.41417
719 4 8.44961 15.6921 2.41417
721 4 9.65669 14.485 2.41417
755 4 9.65669 16.8992 2.41417
8408 2 7.24252 14.485 0
8409 2 7.24252 15.6921 1.20709
8410 2 9.65669 14.485 0
8412 2 9.65669 15.6921 1.20709
8926 2 7.24252 14.485 2.41417
8927 2 8.44961 15.6921 2.41417
8928 2 9.65669 14.485 2.41417
205 4 10.8638 15.6921 0
206 4 10.8638 14.485 1.20709
207 4 13.278 15.6921 0
208 4 12.0709 15.6921 1.20709
243 4 10.8638 16.8992 1.20709
723 4 13.278 15.6921 2.41417
8411 2 10.8638 15.6921 0
8413 2 12.0709 14.485 0
8414 2 13.278 14.485 1.20709
8441 2 10.8638 16.8992 1.20709
8443 2 13.278 16.8992 1.20709
8930 2 13.278 15.6921 2.41417
8962 2 12.0709 16.8992 2.41417
209 4 14.485 14.485 0
210 4 15.6921 15.6921 0
245 4 14.485 16.8992 0
246 4 15.6921 16.8992 1.20709
759 4 14.485 16.8992 2.41417
8415 2 15.6921 15.6921 0
8416 2 15.6921 14.485 1.20709
8417 2 16.8992 14.485 0
8445 2 15.6921 16.8992 1.20709
8446 2 16.8992 16.8992 0
8933 2 16.8992 14.485 2.41417
8965 2 16.8992 16.8992 2.41417
211 4 18.1063 15.6921 0
212 4 19.3134 14.485 0
213 4 20.5205 15.6921 0
214 4 20.5205 14.485 1.20709
215 4 19.3134 15.6921 1.20709
248 4 18.1063 16.8992 1.20709
727 4 18.1063 15.6921 2.41417
728 4 19.3134 14.485 2.41417
729 4 20.5205 15.6921 2.41417
8418 2 18.1063 14.485 1.20709
8419 2 19.3134 14.485 0
8420 2 20.5205 14.485 1.20709
8447 2 19.3134 16.8992 0
8934 2 18.1063 15.6921 2.41417
8936 2 20.5205 15.6921 2.41417
8966 2 19.3134 16.8992 2.41417
216 4 22.9346 15.6921 0
217 4 22.9346 14.485 1.20709
218 4 24.1417 14.485 0
251 4 21.7276 16.8992 0
252 4 24.1417 16.8992 0
731 4 21.7276 14.485 2.41417
734 4 24.1417 14.485 2.41417
765 4 21.7276 16.8992 2.41417
8421 2 21.7276 14.485 0
8422 2 22.9346 15.6921 0
8423 2 22.9346 14.485 1.20709
8424 2 24.1417 14.485 0
8449 2 21.7276 16.8992 0
8450 2 22.9346 16.8992 1.20709
8451 2 24.1417 16.8992 0
8937 2 21.7276 14.485 2.41417
8938 2 22.9346 15.6921 2.41417
8968 2 21.7276 16.8992 2.41417
219 4 25.3488 14.485 1.20709
220 4 26.5559 14.485 0
221 4 27.763 15.6921 0
253 4 25.3488 16.8992 1.20709
735 4 25.3488 15.6921 2.41417
736 4 27.763 15.6921 2.41417
769 4 26.5559 16.8992 2.41417
8425 2 25.3488 15.6921 0
8426 2 27.763 15.6921 0
8427 2 26.5559 15.6921 1.20709
8453 2 25.3488 16.8992 1.20709
8454 2 26.5559 16.8992 0
8941 2 25.3488 15.6921 2.41417
8943 2 26.5559 14.485 2.41417
222 4 30.1772 15.6921 0
223 4 30.1772 14.485 1.20709
256 4 30.1772 16.8992 1.20709
739 4 28.9701 14.485 2.41417
740 4 30.1772 15.6921 2.41417
8428 2 28.9701 15.6921 1.20709
8456 2 28.9701 16.8992 0
8944 2 30.1772 15.6921 2.41417
224 4 31.3843 14.485 0
225 4 31.3843 15.6921 1.20709
226 4 33.7984 14.485 0
228 4 33.7984 15.6921 1.20709
772 4 31.3843 16.8992 2.41417
8429 2 32.5913 14.485 1.20709
8947 2 31.3843 14.485 2.41417
8949 2 33.7984 14.485 2.41417
227 4 35.0055 15.6921 0
229 4 37.4197 15.6921 0
259 4 37.4197 16.8992 1.20709
743 4 35.0055 15.6921 2.41417
745 4 37.4197 15.6921 2.41417
776 4 36.2126 16.8992 2.41417
8430 2 35.0055 15.6921 0
231 4 1.20709 18.1063 0
233 4 0 18.1063 1.20709
236 4 2.41417 18.1063 1.20709
260 4 0 19.3134 0
261 4 1.20709 20.5205 0
262 4 0 20.5205 1.20709
263 4 2.41417 19.3134 0
266 4 2.41417 20.5205 1.20709
748 4 1.20709 18.1063 2.41417
778 4 0 19.3134 2.41417
779 4 1.20709 20.5205 2.41417
781 4 2.41417 19.3134 2.41417
8432 2 1.20709 18.1063 0
8434 2 0 18.1063 1.20709
8463 2 1.20709 20.5205 0
8464 2 1.20709 19.3134 1.20709
8465 2 0 20.5205 1.20709
8466 2 2.41417 19.3134 0
8953 2 1.20709 18.1063 2.41417
8981 2 0 19.3134 2.41417
8984 2 2.41417 19.3134 2.41417
234 4 3.62126 18.1063 0
238 4 4.82835 18.1063 1.20709
264 4 3.62126 20.5205 0
265 4 3.62126 19.3134 1.20709
267 4 4.82835 19.3134 0
268 4 6.03543 19.3134 1.20709
752 4 6.03543 18.1063 2.41417
8435 2 3.62126 18.1063 0
8438 2 6.03543 18.1063 0
8440 2 4.82835 18.1063 1.20709
8467 2 4.82835 19.3134 0
8468 2 6.03543 20.5205 0
8469 2 6.03543 19.3134 1.20709
8954 2 3.62126 18.1063 2.41417
8985 2 3.62126 20.5205 2.41417
8986 2 4.82835 19.3134 2.41417
8987 2 6.03543 20.5205 2.41417
241 4 7.24252 18.1063 1.20709
244 4 9.65669 18.1063 1.20709
269 4 7.24252 19.3134 0
270 4 8.44961 20.5205 0
271 4 7.24252 20.5205 1.20709
272 4 9.65669 20.5205 1.20709
753 4 8.44961 18.1063 2.41417
785 4 9.65669 19.3134 2.41417
8470 2 7.24252 19.3134 0
8472 2 9.65669 20.5205 1.20709
8958 2 8.44961 18.1063 2.41417
8990 2 8.44961 20.5205 2.41417
8992 2 9.65669 19.3134 2.41417
242 4 10.8638 18.1063 0
273 4 13.278 20.5205 0
274 4 13.278 19.3134 1.20709
275 4 12.0709 20.5205 1.20709
756 4 10.8638 18.1063 2.41417
786 4 10.8638 20.5205 2.41417
788 4 12.0709 19.3134 2.41417
8442 2 13.278 18.1063 0
8471 2 10.8638 19.3134 1.20709
8473 2 13.278 20.5205 0
8963 2 13.278 18.1063 2.41417
8994 2 13.278 20.5205 2.41417
249 4 16.8992 18.1063 1.20709
276 4 15.6921 19.3134 1.20709
277 4 14.485 20.5205 1.20709
278 4 16.8992 19.3134 0
279 4 16.8992 20.5205 1.20709
789 4 15.6921 20.5205 2.41417
792 4 16.8992 19.3134 2.41417
8444 2 15.6921 18.1063 0
8474 2 14.485 19.3134 0
8997 2 16.8992 19.3134 2.41417
247 4 18.1063 18.1063 0
250 4 19.3134 18.1063 1.20709
280 4 19.3134 19.3134 0
281 4 20.5205 19.3134 1.20709
793 4 19.3134 19.3134 2.41417
8448 2 20.5205 18.1063 0
8475 2 19.3134 19.3134 0
8476 2 20.5205 20.5205 0
8477 2 20.5205 19.3134 1.20709
8998 2 18.1063 20.5205 2.41417
282 4 21.7276 19.3134 0
283 4 22.9346 20.5205 0
284 4 22.9346 19.3134 1.20709
285 4 24.1417 20.5205 1.20709
797 4 24.1417 19.3134 2.41417
8478 2 21.7276 19.3134 0
8479 2 22.9346 20.5205 0
8480 2 24.1417 19.3134 0
8483 2 24.1417 20.5205 1.20709
8969 2 22.9346 18.1063 2.41417
9000 2 21.7276 19.3134 2.41417
9003 2 24.1417 19.3134 2.41417
254 4 27.763 18.1063 0
286 4 26.5559 19.3134 0
287 4 27.763 20.5205 0
767 4 25.3488 18.1063 2.41417
798 4 26.5559 19.3134 2.41417
799 4 27.763 20.5205 2.41417
8452 2 25.3488 18.1063 0
8455 2 26.5559 18.1063 1.20709
8481 2 25.3488 20.5205 0
8482 2 25.3488 19.3134 1.20709
8484 2 27.763 19.3134 1.20709
8485 2 26.5559 20.5205 1.20709
8971 2 25.3488 18.1063 2.41417
8974 2 27.763 18.1063 2.41417
9005 2 27.763 20.5205 2.41417
255 4 30.1772 18.1063 0
288 4 30.1772 20.5205 0
289 4 30.1772 19.3134 1.20709
290 4 28.9701 20.5205 1.20709
801 4 30.1772 20.5205 2.41417
8457 2 30.1772 18.1063 0
8458 2 28.9701 18.1063 1.20709
8486 2 30.1772 20.5205 0
8487 2 30.1772 19.3134 1.20709
9007 2 28.9701 19.3134 2.41417
9008 2 30.1772 20.5205 2.41417
257 4 31.3843 18.1063 1.20709
773 4 32.5913 18.1063 2.41417
803 4 32.5913 20.5205 2.41417
8459 2 32.5913 18.1063 0
8461 2 33.7984 18.1063 1.20709
8488 2 32.5913 20.5205 0
8489 2 32.5913 19.3134 1.20709
8490 2 31.3843 20.5205 1.20709
8491 2 33.7984 19.3134 0
8976 2 32.5913 18.1063 2.41417
9009 2 32.5913 20.5205 2.41417
9011 2 33.7984 19.3134 2.41417
258 4 35.0055 18.1063 0
291 4 35.0055 19.3134 1.20709
292 4 37.4197 19.3134 1.20709
293 4 36.2126 20.5205 1.20709
777 4 37.4197 18.1063 2.41417
806 4 35.0055 20.5205 2.41417
808 4 36.2126 19.3134 2.41417
809 4 37.4197 20.5205 2.41417
8460 2 35.0055 18.1063 0
8462 2 37.4197 18.1063 0
8492 2 35.0055 20.5205 0
8493 2 37.4197 19.3134 1.20709
8494 2 36.2126 20.5205 1.20709
8980 2 37.4197 18.1063 2.41417
294 4 1.20709 22.9346 0
295 4 2.41417 21.7276 0
323 4 1.20709 24.1417 1.20709
324 4 2.41417 24.1417 0
811 4 2.41417 21.7276 2.41417
843 4 0 24.1417 2.41417
846 4 2.41417 24.1417 2.41417
8495 2 0 21.7276 0
8496 2 1.20709 22.9346 0
8528 2 0 24.1417 0
9014 2 0 21.7276 2.41417
296 4 3.62126 22.9346 0
297 4 6.03543 21.7276 1.20709
325 4 3.62126 24.1417 1.20709
326 4 6.03543 24.1417 1.20709
812 4 3.62126 22.9346 2.41417
814 4 4.82835 21.7276 2.41417
8497 2 3.62126 22.9346 0
8498 2 3.62126 21.7276 1.20709
8499 2 4.82835 21.7276 0
8500 2 4.82835 22.9346 1.20709
8532 2 4.82835 24.1417 0
9015 2 3.62126 22.9346 2.41417
9049 2 4.82835 24.1417 2.41417
298 4 8.44961 22.9346 0
299 4 8.44961 21.7276 1.20709
300 4 7.24252 22.9346 1.20709
301 4 9.65669 21.7276 0
328 4 8.44961 24.1417 1.20709
329 4 9.65669 24.1417 0
817 4 7.24252 21.7276 2.41417
852 4 9.65669 24.1417 2.41417
8501 2 8.44961 22.9346 0
8502 2 8.44961 21.7276 1.20709
8503 2 7.24252 22.9346 1.20709
8504 2 9.65669 21.7276 0
8507 2 9.65669 22.9346 1.20709
9018 2 8.44961 22.9346 2.41417
9019 2 9.65669 21.7276 2.41417
9053 2 7.24252 24.1417 2.41417
9055 2 9.65669 24.1417 2.41417
302 4 10.8638 21.7276 1.20709
303 4 13.278 22.9346 0
304 4 12.0709 22.9346 1.20709
332 4 12.0709 24.1417 0
819 4 12.0709 21.7276 2.41417
820 4 13.278 22.9346 2.41417
856 4 12.0709 24.1417 2.41417
8505 2 10.8638 22.9346 0
8506 2 10.8638 21.7276 1.20709
8508 2 12.0709 21.7276 0
8509 2 13.278 22.9346 0
8536 2 10.8638 24.1417 1.20709
8537 2 12.0709 24.1417 0
8538 2 13.278 24.1417 1.20709
9020 2 10.8638 22.9346 2.41417
305 4 15.6921 22.9346 0
306 4 15.6921 21.7276 1.20709
334 4 14.485 24.1417 0
823 4 14.485 21.7276 2.41417
825 4 16.8992 21.7276 2.41417
860 4 16.8992 24.1417 2.41417
8510 2 14.485 21.7276 0
8511 2 15.6921 22.9346 0
8512 2 14.485 22.9346 1.20709
8513 2 16.8992 21.7276 0
8540 2 14.485 24.1417 0
8542 2 15.6921 24.1417 1.20709
9023 2 16.8992 21.7276 2.41417
9063 2 16.8992 24.1417 2.41417
307 4 18.1063 22.9346 0
308 4 19.3134 21.7276 0
309 4 20.5205 22.9346 0
338 4 18.1063 24.1417 1.20709
339 4 19.3134 24.1417 0
341 4 20.5205 24.1417 1.20709
826 4 18.1063 22.9346 2.41417
8514 2 20.5205 22.9346 0
8515 2 20.5205 21.7276 1.20709
8516 2 19.3134 22.9346 1.20709
8545 2 18.1063 24.1417 1.20709
8546 2 19.3134 24.1417 0
8548 2 20.5205 24.1417 1.20709
9024 2 18.1063 22.9346 2.41417
9027 2 19.3134 21.7276 2.41417
9028 2 20.5205 22.9346 2.41417
312 4 24.1417 22.9346 1.20709
343 4 21.7276 24.1417 0
345 4 22.9346 24.1417 1.20709
346 4 24.1417 24.1417 0
828 4 21.7276 21.7276 2.41417
830 4 24.1417 21.7276 2.41417
866 4 24.1417 24.1417 2.41417
8517 2 22.9346 22.9346 0
8518 2 21.7276 22.9346 1.20709
8519 2 24.1417 21.7276 0
8521 2 24.1417 22.9346 1.20709
8550 2 22.9346 24.1417 1.20709
9030 2 24.1417 21.7276 2.41417
310 4 25.3488 22.9346 0
311 4 25.3488 21.7276 1.20709
313 4 27.763 22.9346 0
347 4 26.5559 24.1417 0
832 4 26.5559 21.7276 2.41417
833 4 27.763 22.9346 2.41417
870 4 26.5559 24.1417 2.41417
8520 2 25.3488 21.7276 1.20709
8522 2 27.763 22.9346 0
8552 2 25.3488 24.1417 1.20709
9031 2 25.3488 22.9346 2.41417
9069 2 26.5559 24.1417 2.41417
314 4 28.9701 21.7276 0
315 4 30.1772 22.9346 0
348 4 28.9701 24.1417 0
349 4 30.1772 24.1417 1.20709
834 4 30.1772 22.9346 2.41417
8523 2 28.9701 21.7276 0
9035 2 28.9701 21.7276 2.41417
316 4 31.3843 21.7276 0
317 4 32.5913 22.9346 0
318 4 32.5913 21.7276 1.20709
319 4 31.3843 22.9346 1.20709
320 4 33.7984 21.7276 0
352 4 33.7984 24.1417 0
837 4 31.3843 21.7276 2.41417
838 4 32.5913 22.9346 2.41417
8524 2 32.5913 22.9346 0
8525 2 33.7984 21.7276 0
8556 2 31.3843 24.1417 0
8557 2 32.5913 24.1417 1.20709
9038 2 31.3843 21.7276 2.41417
9076 2 31.3843 24.1417 2.41417
321 4 37.4197 22.9346 0
354 4 35.0055 24.1417 1.20709
841 4 37.4197 22.9346 2.41417
874 4 36.2126 24.1417 2.41417
8526 2 35.0055 21.7276 1.20709
8527 2 37.4197 22.9346 0
9040 2 35.0055 22.9346 2.41417
9042 2 36.2126 21.7276 2.41417
9043 2 37.4197 22.9346 2.41417
9080 2 36.2126 24.1417 2.41417
322 4 1.20709 25.3488 0
357 4 0 26.5559 0
358 4 1.20709 27.763 0
359 4 1.20709 26.5559 1.20709
360 4 0 27.763 1.20709
361 4 2.41417 26.5559 0
362 4 2.41417 27.763 1.20709
844 4 1.20709 25.3488 2.41417
876 4 0 26.5559 2.41417
879 4 2.41417 26.5559 2.41417
8529 2 0 25.3488 1.20709
8531 2 2.41417 25.3488 1.20709
8561 2 0 26.5559 0
8562 2 1.20709 26.5559 1.20709
8563 2 2.41417 26.5559 0
9045 2 1.20709 25.3488 2.41417
9082 2 1.20709 27.763 2.41417
327 4 4.82835 25.3488 1.20709
363 4 4.82835 26.5559 0
364 4 6.03543 26.5559 1.20709
849 4 6.03543 25.3488 2.41417
8530 2 3.62126 25.3488 0
8533 2 6.03543 25.3488 0
8564 2 3.62126 26.5559 1.20709
8565 2 4.82835 26.5559 0
8566 2 6.03543 26.5559 1.20709
8567 2 4.82835 27.763 1.20709
9046 2 3.62126 25.3488 2.41417
9050 2 6.03543 25.3488 2.41417
9084 2 3.62126 27.763 2.41417
9085 2 4.82835 26.5559 2.41417
9086 2 6.03543 27.763 2.41417
331 4 9.65669 25.3488 1.20709
365 4 7.24252 26.5559 0
366 4 8.44961 26.5559 1.20709
367 4 7.24252 27.763 1.20709
851 4 8.44961 25.3488 2.41417
882 4 7.24252 26.5559 2.41417
883 4 8.44961 27.763 2.41417
8534 2 8.44961 25.3488 0
8568 2 8.44961 27.763 0
8569 2 8.44961 26.5559 1.20709
9088 2 8.44961 27.763 2.41417
330 4 10.8638 25.3488 0
333 4 13.278 25.3488 0
368 4 10.8638 26.5559 1.20709
369 4 13.278 27.763 0