ITEM: TIMESTEP
0
ITEM: NUMBER OF ATOMS
50688
ITEM: BOX BOUNDS xy xz yz pp pp pp
-20.3679009 66.0429306 6.130033
-22.2159996 65.355896 0.0
-22.2159996 65.355896 0.0
ITEM: ATOMS id type x y z VoronoiIndex1 VoronoiIndex2 VoronoiIndex3 VoronoiIndex4 VoronoiIndex5 VoronoiIndex6 VoronoiIndex7 VoronoiIndex8 VoronoiIndex9 AtomicVolume
9 1 -7.9070002 -13.0600004 3.3299999 0 0 0 0 12 0 0 0 0 10.855651
23 4 15.4399996 21.0100002 -0.5757 0 0 1 5 6 3 1 0 0 13.6650296
25 2 8.0780001 18.2700005 18.2299996 0 0 3 2 5 2 0 2 0 11.5666771
35 2 21.2800007 14.8100004 -13.5900002 0 0 2 3 4 4 2 0 0 11.6886273
42 2 22.0699997 15.54 -9.1029997 0 0 0 2 8 3 0 0 0 11.6760454
57 5 7.0510001 -5.086 -19.3799992 0 0 0 1 10 2 0 0 0 11.8547726
71 2 3.336 16.5300007 -14.0 0 0 0 2 8 3 0 0 0 11.794179
80 5 -0.4984 20.4200001 -15.96 0 0 0 3 7 3 1 0 0 12.8423262
81 4 15.4600001 -3.741 -9.0559998 0 0 0 0 12 0 0 0 0 10.9144764
82 5 -12.4099999 -15.8500004 -21.2999992 0 0 0 1 10 2 0 0 0 12.3689747
91 2 2.8410002 17.4300003 -10.1199999 0 0 0 1 12 1 0 0 0 12.0543251
101 1 -6.4530001 -19.3799992 -4.3769999 0 0 0 1 10 3 0 0 0 12.0118551
102 2 -19.7999993 -15.5 -3.2049999 0 0 0 1 10 2 0 0 0 11.9624596
105 4 2.95 11.4700003 -16.2399998 0 0 0 2 8 3 0 0 0 11.4592333
110 5 -5.6040001 -18.7000008 2.845 0 0 0 1 12 2 0 0 0 13.2903137
112 2 13.1999998 -4.1199999 15.1300001 0 0 0 4 6 2 0 0 0 11.5374632
128 5 -12.9200002 -12.7700005 7.039 0 0 1 4 5 5 1 0 0 12.7314062
141 5 4.2540002 6.6360002 -9.0290003 0 0 0 2 10 2 0 0 0 13.4968977
147 5 13.4600001 -3.056 10.5200005 0 0 0 2 8 5 0 0 0 13.5107632
157 4 0.385 20.4799996 13.0600004 0 0 0 2 8 4 0 0 0 12.519372
159 4 15.75 -3.303 15.0600004 0 0 0 3 6 4 0 0 0 11.7453509
168 5 5.283 -8.9110004 -15.0100002 0 0 1 0 9 3 0 0 0 11.6182986
171 2 -0.7884 6.197 -9.9799996 0 0 0 0 12 0 0 0 0 11.4320402
174 4 -6.5250001 14.75 11.4300003 0 0 0 0 12 0 0 0 0 11.5740547
184 2 14.7600003 -2.0610001 12.5299998 0 0 0 2 8 2 0 0 0 10.892624
186 5 13.9300004 11.7700005 -15.8800002 0 0 0 1 10 2 0 0 0 12.0321693
196 5 12.0 -8.2969999 -2.072 0 0 0 1 10 2 0 0 0 11.522357
214 2 1.942 14.5600004 -18.0 0 0 0 3 6 4 0 0 0 11.7121964
217 2 -13.7399998 -7.1290002 19.2999992 0 0 0 1 10 2 0 0 0 11.87811
220 2 -17.7299996 -20.1399994 -10.4399996 0 0 0 2 10 0 0 0 0 11.345232
243 4 3.848 0.8424 14.1000004 0 0 0 3 6 5 0 0 0 11.9055252
244 5 13.2100001 -12.8999996 19.1200008 0 0 0 2 10 3 0 0 0 12.7723885
245 1 -7.9250002 3.0510001 -21.5799999 0 0 0 3 6 4 0 0 0 11.7028332
247 2 11.4799996 13.3100004 -4.844 0 0 0 1 10 2 0 0 0 11.7331572
254 2 -7.514 18.2000008 -7.079 0 0 0 0 12 0 0 0 0 12.0462875
275 4 16.7199993 -0.874 11.8599998 0 0 0 2 8 4 0 0 0 11.3118992
288 5 -9.8979998 12.8999996 21.4400006 0 0 1 2 7 3 0 0 0 11.7238684
291 4 -15.3500004 13.4600001 -13.7700005 0 0 0 1 9 3 1 0 0 12.68114
295 4 -2.942 1.6 -9.3430004 0 0 0 1 10 4 0 0 0 12.7551317
299 5 0.2776 18.2299996 -19.5799999 0 0 0 1 10 2 0 0 0 12.0425348
300 2 20.0699997 -8.8570004 1.6160001 0 0 0 3 5 4 1 0 0 11.8597088
313 5 1.095 -14.8900004 3.7219999 0 0 1 1 9 2 2 0 0 12.9362746
314 5 -14.54 -21.4400006 3.4730001 0 0 0 0 12 3 0 0 0 13.5138588
327 4 -0.76 -3.1570001 15.0699997 0 0 0 2 8 6 0 0 0 13.6659508
335 1 -8.2379999 16.9400006 -15.3500004 0 0 0 1 10 2 0 0 0 11.4900637
348 4 -7.8909998 2.006 11.7200003 0 0 0 1 10 2 0 0 0 11.6447535
360 4 13.0900002 -21.6100006 -7.5500002 0 0 1 3 6 6 1 0 0 13.6732664
364 4 -8.0719996 4.2490001 -15.1599999 0 0 0 3 8 3 0 0 0 13.7751656
387 4 17.3899994 -12.0100002 0.8318 0 0 1 0 11 3 0 0 0 12.45817
397 1 -6.764 0.4247 19.0400009 0 0 0 1 10 2 0 0 0 11.6457968
401 4 -14.0699997 13.0500002 11.5600004 0 0 0 1 12 1 0 0 0 12.4692335
410 4 9.368 -4.8920002 7.6560002 0 0 1 1 11 1 0 0 0 12.0497112
412 1 -5.3080001 12.3500004 -7.4710002 0 0 1 0 11 1 0 0 0 11.9308062
415 2 -6.7989998 1.063 -13.0100002 0 0 0 1 10 2 0 0 0 11.7057896
419 2 6.7589998 -10.6599999 -10.8900004 0 0 0 4 6 4 0 0 0 12.2323074
420 5 11.4200001 -10.4399996 -10.3800001 0 0 2 2 5 3 1 0 0 12.2069864
432 5 4.7719999 8.3350001 8.1020002 0 0 1 1 11 2 0 0 0 12.4570017
438 4 -11.2799997 -19.5699997 16.1900005 0 0 0 1 10 2 0 0 0 12.7450667
439 4 -6.5359998 19.9099998 -15.9200002 0 0 0 6 2 6 0 0 0 12.7505532
442 4 6.0819998 16.5599995 -18.4099999 0 0 0 0 12 2 0 0 0 12.6488447
446 4 -17.3899994 5.8119998 3.6630001 0 0 0 3 6 4 0 0 0 12.0552025
453 4 1.878 0.3483 7.7810002 0 0 0 2 8 5 0 0 0 12.6772509
459 4 -9.4350004 0.6455 -21.1900005 0 0 0 1 10 4 0 0 0 12.5634966
475 2 -1.022 21.3199997 11.1000004 0 0 1 3 5 4 2 0 0 13.0373364
477 5 -11.7799998 -4.863 -3.187 0 0 0 3 7 4 1 0 0 13.3980217
485 4 8.1350002 4.1230002 -15.3500004 0 0 0 1 10 3 0 0 0 12.4224577
515 5 1.459 -14.6899996 16.9699994 0 0 0 1 9 4 1 0 0 12.4408112
520 5 7.2600002 -17.2000008 11.3500004 0 0 1 1 8 4 1 0 0 13.5203076
533 4 11.7700005 4.5850001 -4.5370002 0 0 0 0 12 4 0 0 0 13.1255283
537 2 17.6399994 8.3620005 -9.2819996 0 0 0 2 8 1 0 0 0 10.9376116
539 2 -6.2680001 7.527 -21.7600003 0 0 0 2 8 2 0 0 0 11.4694491
540 5 -6.896 -17.7800007 0.6126001 0 0 0 0 12 0 0 0 0 11.0519638
550 4 9.8870002 -10.8299999 12.2100001 0 0 0 1 10 3 0 0 0 12.0137024
562 2 5.4860001 -13.2299996 -21.7000008 0 0 0 3 6 4 0 0 0 11.5295191
564 4 15.79 -1.323 16.6399994 0 0 0 3 6 5 0 0 0 11.4733277
567 4 8.901 -14.3500004 20.8600006 0 0 0 0 12 0 0 0 0 11.4996796
574 5 19.0900002 -16.6499996 -13.0500002 0 0 0 2 8 4 0 0 0 12.3416062
576 5 -15.8900004 6.8610002 -16.9200002 0 0 0 2 10 0 0 0 0 11.6757221
580 2 18.0200005 -16.2800007 -10.9399996 0 0 0 3 6 4 0 0 0 11.8303023
585 4 13.2399998 -9.4110003 -11.6599999 0 0 0 2 10 2 0 0 0 13.0049124
603 5 -8.2030001 -19.5400009 -0.5081 0 0 0 1 10 2 0 0 0 11.3392897
620 4 2.1900001 15.7200003 8.0530005 0 0 0 0 12 0 0 0 0 12.2992172
622 5 3.3929999 -5.619 5.3850002 0 0 0 0 12 2 0 0 0 12.6587773
642 4 -4.1890001 2.1849999 -20.0400009 0 0 0 2 8 5 0 0 0 13.0399294
643 5 16.3400002 -0.2646 -17.4500008 0 0 0 2 8 2 0 0 0 11.468338
650 2 19.3199997 -13.04 17.2999992 0 0 0 0 12 0 0 0 0 11.3098049
653 4 1.848 -17.5200005 3.4790001 0 0 0 1 10 5 0 0 0 13.746666
654 4 2.836 -9.1809998 -0.6029001 0 0 0 2 8 4 0 0 0 12.5511103
656 4 8.2700005 -14.7100001 15.1499996 0 0 0 0 12 2 0 0 0 12.3097716
666 4 -8.6870003 -10.9700004 -0.1611 0 0 0 2 8 4 0 0 0 12.3726206
671 2 20.0100002 -0.8896 17.2700005 0 0 0 0 12 0 0 0 0 10.8798666
673 2 10.9799996 5.3540001 12.5900002 0 0 1 0 11 1 0 0 0 11.4928656
679 4 10.3299999 13.0 17.5900002 0 0 0 0 12 0 0 0 0 11.7328911
683 5 -5.3119998 10.87 18.7600003 0 0 1 1 8 3 1 0 0 12.0602074
687 5 16.2900009 -10.9099998 19.8199997 0 0 0 2 8 2 0 0 0 11.5403061
694 5 -14.8999996 15.9700004 5.2199998 0 0 0 1 10 4 0 0 0 13.001339
697 4 -17.4899998 17.6700001 19.3700009 0 0 0 1 10 5 0 0 0 12.4862318
706 5 -18.2399998 -0.8323 1.634 0 0 1 3 5 5 0 0 0 12.3273964
716 4 2.013 3.691 4.013 0 0 0 2 8 4 0 0 0 12.2236567
717 4 8.6000004 -20.2000008 2.027 0 0 0 1 12 3 0 0 0 13.4134989
728 5 6.5390001 -0.001287 3.717 0 0 1 4 5 3 2 0 0 12.5851021
745 4 3.0769999 -15.6899996 -17.6299992 0 0 0 2 8 4 0 0 0 12.7395544
761 5 -4.0180001 11.7200003 -12.6099997 0 0 0 2 8 4 0 0 0 12.7876864
770 4 -17.0 -19.5799999 18.8600006 0 0 0 0 12 2 0 0 0 11.757349
775 2 -0.8844 -14.6099997 21.4899998 0 0 0 1 10 2 0 0 0 11.9869308
776 4 20.2999992 6.718 5.0170002 0 0 0 2 10 0 0 0 0 11.6723919
781 4 -5.0419998 -20.2999992 -11.4200001 0 0 1 2 7 5 0 0 0 13.0353289
787 2 -18.5400009 -12.2799997 14.75 0 0 0 2 10 0 0 0 0 11.0817785
798 5 -6.8390002 20.6599999 -3.8169999 0 0 0 1 10 4 0 0 0 12.5657835
806 4 -6.3769999 4.1810002 16.6200009 0 0 1 4 5 2 2 1 0 12.6055594
841 5 -10.4600001 21.2700005 -11.4200001 0 0 0 4 4 7 0 0 0 12.599741
843 2 4.4899998 -4.0650001 -8.2700005 0 0 0 4 8 0 0 0 0 11.4342995
864 2 7.165 -4.1030002 0.9613 0 0 1 2 7 3 0 0 0 11.4943009
897 5 7.4770003 -5.1269999 11.0200005 0 0 0 2 8 2 0 0 0 11.770072
917 5 10.9799996 -13.7100001 20.2199993 0 0 0 0 12 0 0 0 0 11.4521227
947 5 -16.2900009 14.8900004 -11.8800002 0 0 0 1 10 2 0 0 0 12.5413533
949 2 15.2399998 3.649 21.1399994 0 0 1 2 7 3 0 0 0 11.2151451
952 2 12.5100003 0.2278 1.113 0 0 0 0 12 2 0 0 0 13.0030746
961 2 0.9263 -20.8400002 -5.1360002 0 0 0 4 4 4 0 0 0 11.0891962
980 2 0.05196 20.1000004 16.9300004 0 0 0 0 12 0 0 0 0 11.2484865
990 4 6.6859999 -14.8299999 -20.3400002 0 0 0 0 12 2 0 0 0 12.3865204
996 5 15.7600003 -9.4370003 15.8500004 0 0 0 1 10 2 0 0 0 11.3998871
999 4 2.7460001 8.9460002 -10.04 0 0 1 1 8 4 1 0 0 13.0939388
1009 5 9.4680004 10.7200003 17.9799996 0 0 0 0 12 0 0 0 0 11.3952904
1023 2 18.7299996 -3.135 -15.9300004 0 0 0 3 7 2 1 0 0 10.9957362
1027 4 -4.316 -11.5200005 17.4400006 0 0 0 4 5 4 1 0 0 12.9102756
1034 4 14.4300003 6.836 -14.1899996 0 0 0 0 12 0 0 0 0 11.7873612
1039 5 11.0299997 10.2399998 -21.0900002 0 0 2 3 4 2 2 0 0 11.8272791
1040 1 9.1540003 -15.0299997 -20.5799999 0 0 0 0 12 0 0 0 0 10.5470257
1053 4 -15.0500002 -0.6582001 0.2579 0 0 0 0 12 2 0 0 0 12.3536148
1063 5 19.75 -20.1000004 -15.29 0 0 0 1 10 2 0 0 0 11.8454858
1067 3 19.5300007 -7.1240001 -19.1399994 0 0 0 2 10 4 0 0 0 13.8011942
1068 5 -3.2579999 4.1560001 -2.5160001 0 0 0 0 12 2 0 0 0 12.4616318
1087 4 -12.4200001 17.0499992 -0.04465 0 0 0 2 8 6 0 0 0 13.4916735
1089 4 -1.637 -8.401 4.1799998 0 0 0 4 8 2 0 0 0 12.4433394
1091 5 0.8306 -17.1100006 8.1239996 0 0 0 2 10 1 0 0 0 11.9874106
1094 5 11.1300001 2.0079999 19.1299992 0 0 0 1 10 2 0 0 0 12.1446867
1101 4 -5.9070002 -17.6100006 9.955 0 0 2 1 8 2 2 0 0 11.943102
1111 4 -11.7600003 -18.7900009 20.5200005 0 0 0 1 10 4 0 0 0 12.929491
1113 4 14.8999996 4.2989998 18.75 0 0 0 1 10 2 0 0 0 11.8020716
1119 4 19.7700005 -7.2820001 20.0499992 0 0 0 3 5 4 1 0 0 12.3616476
1127 2 -4.8000002 14.4799996 -2.995 0 0 0 3 8 3 0 0 0 12.0269594
1129 2 18.3999996 19.5699997 20.1100006 0 0 0 2 10 0 0 0 0 11.3887005
1143 5 -3.461 10.6599999 -0.3765 0 0 0 1 12 1 0 0 0 12.0612459
1147 4 -10.5500002 1.36 -10.6199999 0 0 0 3 8 3 0 0 0 12.3455076
1152 2 -9.7810002 -13.1599999 -7.678 0 0 0 1 10 3 0 0 0 12.2266369
1158 2 4.198 12.9499998 13.0500002 0 0 0 0 12 0 0 0 0 11.4603777
1161 4 11.5799999 -1.791 -3.029 0 0 0 1 12 2 0 0 0 12.767766
1171 5 0.81 -1.4090001 13.8900004 0 0 0 2 8 2 0 0 0 11.1021462
1175 4 7.4640003 16.3899994 15.7799998 0 0 0 1 12 2 0 0 0 12.9174414
1179 2 -20.2399998 -20.4099999 -2.4690001 0 0 0 2 8 2 0 0 0 11.8908082
1185 2 10.5200005 -4.5669999 -21.2800007 0 0 0 0 12 0 0 0 0 10.8765632
1190 2 -7.3390002 -16.3400002 -15.87 0 0 0 3 6 4 0 0 0 11.0996494
1191 4 -12.4200001 20.2700005 -12.6700001 0 0 0 3 6 4 0 0 0 11.7673483
1196 2 14.2100001 21.1900005 -18.8299999 0 0 0 3 6 3 0 0 0 11.2686253
1206 1 -16.2900009 19.3400002 10.2600002 0 0 0 1 10 2 0 0 0 11.4548655
1207 5 12.0500002 17.6299992 18.2999992 0 0 1 1 9 2 0 0 0 11.6318722
1208 4 15.6899996 17.5 -4.7649999 0 0 0 3 6 6 0 0 0 12.9828244
1212 4 10.9099998 -3.4949999 11.1800003 0 0 0 4 4 6 0 0 0 13.2419205
1214 5 18.7700005 4.3130002 15.6899996 0 0 0 1 10 2 0 0 0 11.432725
1216 1 10.6499996 20.9899998 -13.4200001 0 0 2 1 8 2 0 0 0 11.5304308
1217 5 -6.981 10.0 3.1470001 0 0 0 1 10 2 0 0 0 11.6123829
1226 4 11.6599999 18.5100003 -16.0 0 0 0 2 8 5 0 0 0 12.4257393
1232 4 -16.7399998 6.0170002 -8.566 0 0 0 0 12 3 0 0 0 12.9156532
1246 4 10.6400004 10.7100001 -10.6899996 0 0 0 1 10 5 0 0 0 12.8486328
1249 2 -5.9720002 -8.691 21.2199993 0 0 0 2 8 2 0 0 0 11.7023278
1250 2 -5.2259998 10.9200002 6.7080002 0 0 0 0 12 2 0 0 0 12.5710755
1252 4 -13.1400003 -17.6299992 -19.1599999 0 0 0 0 12 2 0 0 0 12.7372961
1258 4 -17.1800003 17.0599995 11.2299996 0 0 0 1 10 4 0 0 0 12.8023215
1261 4 7.4559999 -2.043 -0.44 0 0 0 2 8 4 0 0 0 12.0490503
1269 5 -12.6000004 -18.8600006 -6.553 0 0 0 1 10 3 0 0 0 12.3615379
1270 2 0.8498 5.4770003 0.2668 0 0 0 2 8 2 0 0 0 10.961876
1295 4 -0.5726 -22.1299992 -3.6370001 0 0 1 3 7 4 0 0 0 12.9301424
1305 5 -0.5184 16.5799999 14.4099999 0 0 0 1 10 3 0 0 0 12.35676
1306 5 -3.313 15.8900004 -8.7559996 0 0 0 0 12 2 0 0 0 12.9587994
1318 5 0.3134 -3.2219999 -12.9399996 0 0 0 1 10 2 0 0 0 12.0294018
1325 4 17.9200002 21.3799992 3.908 0 0 0 1 10 2 0 0 0 12.0993137
1328 2 6.217 13.2299996 -5.4629998 0 0 2 1 8 3 0 0 0 12.9276448
1335 5 -2.8239999 -0.655 20.2700005 0 0 0 1 10 2 0 0 0 12.6416531
1337 4 18.0 -13.5900002 -7.6079998 0 0 0 3 6 4 0 0 0 11.8130989
1340 4 15.3699999 14.79 -0.2467 0 0 0 2 8 5 0 0 0 12.9330454
1352 4 -15.6099997 -20.8999996 17.6499996 0 0 0 0 12 3 0 0 0 12.6636353
1357 5 18.5699997 -9.6429997 -5.138 0 0 0 1 12 2 0 0 0 12.6288843
1371 4 18.1399994 8.7889996 -1.54 0 0 0 0 12 0 0 0 0 11.5039673
1374 4 18.2999992 -7.2839999 1.6390001 0 0 0 1 10 3 0 0 0 12.5223494
1386 2 8.6090002 0.9321 4.731 0 0 0 3 6 3 1 0 0 11.2884035
1387 3 -17.0100002 9.9429998 21.0499992 0 0 1 1 9 4 0 0 0 11.9982996
1388 5 14.1599999 -3.3510001 -7.1560001 0 0 0 2 10 0 0 0 0 11.1612797
1393 4 5.612 -6.9450002 5.099 0 0 0 2 10 1 0 0 0 12.3173685
1415 4 3.849 -14.0 -2.0980001 0 0 0 1 10 5 0 0 0 13.1755037
1419 4 14.4899998 -18.3500004 -13.2700005 0 0 0 2 9 1 1 0 0 12.1457396
1431 4 -16.5599995 -8.1440001 2.533 0 0 0 0 12 4 0 0 0 12.8049908
1433 5 3.079 -5.4299999 15.3699999 0 0 1 2 7 5 0 0 0 12.5469485
1444 4 -3.7660001 0.9283 10.8199997 0 0 0 0 12 3 0 0 0 12.9270134
1447 4 5.6900001 -20.3799992 14.87 0 0 0 3 8 4 0 0 0 13.0691233
1450 1 19.3299999 5.1669998 -6.1500001 0 0 0 4 4 5 0 0 0 11.8198242
1452 4 -7.3829999 -9.0790005 -19.5499993 0 0 0 1 10 3 0 0 0 11.9594966
1469 2 5.5760002 -17.5400009 -1.3710001 0 0 1 2 9 1 0 0 0 11.3441277
1471 5 -15.1099997 -20.1399994 -10.3500004 0 0 0 4 6 2 0 0 0 11.8206635
1487 4 4.198 -16.6299992 -8.6870003 0 0 0 2 8 4 0 0 0 12.578372
1504 5 10.8900004 4.797 -16.4699993 0 0 0 3 6 5 0 0 0 12.5882473
1516 2 17.4099999 18.1499996 -2.974 0 0 1 3 7 2 0 0 0 11.4759588
1533 2 9.8940002 0.9258 -5.9239998 0 0 0 0 12 0 0 0 0 11.6197529
1534 4 8.7440005 15.1000004 0.9673 0 0 0 3 7 4 1 0 0 13.0931911
1543 1 -15.5 -16.5599995 5.526 0 0 0 2 10 1 0 0 0 11.3614493
1548 4 13.1800003 -16.5100003 16.5200005 0 0 0 2 9 3 1 0 0 12.6487742
1550 4 -1.773 -14.6300001 -12.8599998 0 0 1 3 5 6 0 0 0 12.4905958
1561 4 -12.9099998 4.5180002 4.2880001 0 0 0 3 6 4 0 0 0 11.6547718
1566 1 9.059 0.81 -8.4499998 0 0 0 1 12 2 0 0 0 12.8450652
1581 2 4.5430002 8.4200001 -4.0170002 0 0 1 2 7 3 0 0 0 11.7116728
1584 2 20.3500004 18.4799996 19.2000008 0 0 0 0 12 0 0 0 0 11.0513554
1585 3 -6.23 -19.4099999 14.8800002 0 0 0 0 12 0 0 0 0 11.8071356
1595 5 3.7920001 0.4875 -12.3699999 0 0 0 3 6 4 0 0 0 12.1740856
1605 5 8.54 -5.85 8.3929997e-04 0 0 0 2 8 3 0 0 0 12.1471396
1618 4 -0.03314 -6.6859999 20.9400006 0 0 0 0 12 3 0 0 0 13.1490917
1622 4 8.7200003 13.9399996 -1.653 0 0 0 0 12 3 0 0 0 13.4389916
1625 4 9.7189999 -7.4390002 8.3059998 0 0 0 1 12 2 0 0 0 12.9880544
1630 4 2.412 -17.0799999 12.5900002 0 0 0 2 8 5 0 0 0 13.3273144
1632 4 0.7736 -5.5209999 -13.2700005 0 0 0 2 8 4 0 0 0 11.9768028
1644 4 6.402 12.0799999 13.8500004 0 0 0 0 12 3 0 0 0 12.9741888
1667 4 -4.1999998 8.1020002 -8.8249998 0 0 0 2 8 4 0 0 0 12.5637818
1672 4 10.3900004 -19.4200001 -20.3600006 0 0 0 2 9 4 1 0 0 13.637271
1687 5 16.1399994 -1.028 14.25 0 0 0 3 6 4 0 0 0 10.9836998
1694 2 18.2000008 -1.163 3.1989999 0 0 1 0 9 3 0 0 0 11.4571514
1699 4 19.2999992 -7.994 8.3570004 0 0 0 1 10 2 0 0 0 11.4642306
1700 5 12.6400004 11.54 20.6200009 0 0 0 1 10 2 0 0 0 11.982316
1705 1 -0.3995 -15.0100002 -0.2599 0 0 0 1 10 2 0 0 0 11.629364
1707 4 17.4899998 4.3610001 -12.1700001 0 0 1 2 7 4 0 0 0 12.3602286
1712 2 15.9700004 -14.4600001 -20.5499993 0 0 1 2 9 1 0 0 0 11.4009075
1714 4 18.1399994 0.2233 16.1200008 0 0 1 1 8 3 1 0 0 11.6520586
1724 2 -2.2260001 0.1179 -12.6000004 0 0 1 3 5 4 0 0 0 11.6372738
1730 5 -2.839 -2.6589999 18.4400006 0 0 0 2 9 3 1 0 0 12.5544644
1733 1 -5.1880002 -15.3500004 19.0300007 0 0 0 0 12 0 0 0 0 11.0966444
1737 4 14.4200001 -20.5 -0.6181 0 0 0 0 12 0 0 0 0 11.2325859
1743 4 -4.1599999 -18.2600002 0.6166 0 0 0 0 12 2 0 0 0 12.5038243
1745 4 -13.1300001 -21.5599995 16.5599995 0 0 0 1 10 2 0 0 0 12.39182
1750 4 1.625 3.5620001 -1.211 0 0 0 3 8 3 0 0 0 12.7474194
1751 4 -0.06005 -12.4600001 -2.9430002 0 0 0 2 8 4 0 0 0 12.6764174
1772 2 -5.934 21.3299999 -20.0300007 0 0 0 0 12 0 0 0 0 10.771286
1773 5 12.7200003 1.276 21.0400009 0 0 2 0 8 4 0 0 0 12.1849699
1796 2 12.9399996 -8.467 -20.7199993 0 0 0 0 12 0 0 0 0 11.4507647
1803 2 16.2000008 -4.5710001 -6.908 0 0 2 0 8 4 0 0 0 11.5607233
1805 4 21.0300007 16.4099999 -18.3199997 0 0 0 0 12 0 0 0 0 11.4787264
1813 4 -13.8599998 -2.382 -8.4440003 0 0 0 0 12 3 0 0 0 12.9994536
1834 4 19.0400009 17.2900009 21.1000004 0 0 0 0 12 3 0 0 0 13.2339707
1837 4 -14.6199999 11.3299999 -18.9400006 0 0 0 0 12 4 0 0 0 13.6687079
1838 2 6.7459998 17.7399998 -2.9070002 0 0 0 1 10 2 0 0 0 11.394886
1847 4 19.3600006 -15.8900004 -18.1299992 0 0 0 2 8 5 0 0 0 11.8882828
1849 5 -1.226 -7.7340002 -12.7100001 0 0 0 3 8 2 0 0 0 11.6562243
1853 2 19.8099995 21.0200005 -12.4899998 0 0 0 1 10 2 0 0 0 11.6080837
1854 4 17.2099991 -7.1079998 8.4709997 0 0 0 0 12 0 0 0 0 11.4783192
1860 2 -7.5370002 -5.5570002 -16.7199993 0 0 0 1 10 2 0 0 0 12.1717806
1865 2 -15.4200001 -8.526 14.6999998 0 0 0 3 6 4 0 0 0 11.4580031
1868 4 -12.6800003 5.8060003 6.7090001 0 0 0 1 10 5 0 0 0 13.1274691
1873 4 16.0799999 -19.4599991 -8.4619999 0 0 1 4 5 5 0 0 0 12.2221222
1880 5 8.96 -19.6299992 20.2800007 0 0 0 1 9 2 1 0 0 11.7501574
1890 4 -10.2700005 -21.0699997 7.7329998 0 0 0 2 8 4 0 0 0 11.6622782
1893 2 11.54 -11.2600002 0.9167 0 0 1 0 11 1 0 0 0 11.1995144
1898 5 -11.8299999 17.0599995 20.9200002 0 0 0 0 12 0 0 0 0 11.1178179
1911 4 17.6100006 -13.4899998 5.8979998 0 0 1 3 5 5 0 0 0 11.922081
1921 4 13.6700001 16.0200005 4.3790002 0 0 0 3 6 4 0 0 0 12.4016705
1925 2 15.3000002 -19.9699994 -15.1400003 0 0 1 2 6 4 1 0 0 12.7768326
1926 4 -2.2179999 7.0570002 -8.0609999 0 0 0 0 12 2 0 0 0 12.0634928
1928 4 -1.317 5.6589999 1.0980001 0 0 0 2 8 5 0 0 0 12.8339758
1934 4 -3.283 16.5499993 -6.323 0 0 2 2 6 2 2 0 0 11.8612032
1935 4 7.066 -2.293 5.4930001 0 0 2 0 8 0 3 1 0 12.7038746
1938 4 -3.55 -3.379 -9.6070004 0 0 1 2 6 3 1 0 0 12.1902857
1943 5 -7.5250001 20.1399994 -18.3099995 0 0 1 3 7 4 0 0 0 12.3342991
1947 5 -5.422 0.8825 17.1200008 0 0 0 3 6 6 0 0 0 12.7758827
1948 4 -3.5940001 -4.8249998 -11.4300003 0 0 0 0 12 2 0 0 0 12.2650833
1954 5 -7.994 -10.6000004 14.2100001 0 0 0 3 8 3 0 0 0 12.3353109
1986 4 -3.965 10.0600004 12.0799999 0 0 0 1 10 3 0 0 0 12.3012095
1993 5 -11.0200005 -8.2320004 -17.1800003 0 0 1 1 8 3 1 0 0 12.4108868
1996 4 -4.7020002 14.9700004 7.0749998 0 0 0 1 10 2 0 0 0 12.3977614
1998 2 -1.538 3.2609999 7.2540002 0 0 0 3 7 2 1 0 0 11.967271
2001 4 10.1999998 -6.1269999 5.7610002 0 0 1 1 8 4 1 0 0 12.5230866
2006 5 -11.7200003 -10.8500004 -20.5400009 0 0 1 2 5 6 0 0 0 12.5983801
2009 4 -10.4399996 -18.2900009 -1.5210001 0 0 0 0 12 2 0 0 0 12.3800764
2020 2 14.6899996 -3.1719999 3.8020001 0 0 0 3 6 5 0 0 0 12.2695084
2022 5 18.1499996 -12.3900004 19.4599991 0 0 0 0 12 2 0 0 0 12.061903
2027 4 -2.8670002 -4.3280001 14.1000004 0 0 1 1 9 3 0 0 0 11.6841707
2028 2 -7.7649999 6.7100001 0.8283 0 0 0 1 10 2 0 0 0 11.7399693
2050 2 -13.2299996 -20.3600006 -15.8800002 0 0 0 1 10 2 0 0 0 11.1567974
2052 5 -13.2100001 19.5799999 3.0090001 0 0 0 0 12 2 0 0 0 12.7154703
2055 4 8.7519999 -4.3800001 -10.2299996 0 0 1 0 11 3 0 0 0 13.0890694
2056 5 16.9400006 11.2399998 9.776 0 0 0 1 10 2 0 0 0 12.3793936
2062 2 8.8730002 15.1599999 -15.4399996 0 0 0 4 4 4 0 0 0 11.0972567
2073 4 -2.4389999 -14.5900002 -19.4300003 0 0 0 1 10 4 0 0 0 12.3286467
2081 5 -15.3800001 -15.0900002 1.537 0 0 0 1 10 3 0 0 0 12.2979527
2082 2 17.4899998 15.5799999 11.5699997 0 0 0 0 12 0 0 0 0 11.6456318
2083 4 -1.017 -19.6200009 -13.6700001 0 0 0 1 10 3 0 0 0 12.8092947
2087 5 -10.75 -8.934 -6.5689998 0 0 0 3 7 4 1 0 0 12.6999455
2089 1 20.2999992 -13.8299999 -18.9300004 0 0 1 3 5 4 0 0 0 11.7922507
2093 5 -2.425 -15.6099997 11.4399996 0 0 1 0 9 3 0 0 0 12.0764809
2095 4 -0.3625 -10.2700005 -20.0 0 0 0 1 10 4 0 0 0 12.7941094
2096 5 -17.5100003 -5.6529999 12.75 0 0 0 4 6 3 0 0 0 12.1425924
2107 5 -16.0100002 15.2100001 -7.5760002 0 0 0 5 4 6 0 0 0 12.9551878
2143 2 6.6960001 2.878 16.7600003 0 0 0 3 9 1 1 0 0 12.7915726
2154 4 17.7900009 14.6899996 -1.6770001 0 0 0 3 8 3 0 0 0 12.7650786
2160 2 12.4200001 8.9960004 2.7490001 0 0 0 3 6 3 0 0 0 11.3488236
2167 5 17.3999996 13.96 9.3219996 0 0 0 2 8 7 0 0 0 14.6042052
2176 5 8.4919997 12.6800003 0.9561 0 0 0 4 5 3 1 0 0 11.6326666
2178 4 -10.3100004 -20.0900002 -5.5630002 0 0 0 0 12 3 0 0 0 13.3461638
2181 4 -8.691 8.264 15.6700001 0 0 0 0 12 2 0 0 0 12.5434942
2185 2 -14.3199997 -20.8099995 -6.889 0 0 1 3 5 3 0 0 0 11.5437842
2187 2 -3.392 9.4659996 18.3199997 0 0 0 2 8 2 0 0 0 11.1259337
2197 2 19.9799996 17.0599995 5.823 0 0 0 2 7 1 1 0 0 11.8689672
2207 5 15.1599999 -9.4090004 -7.7350002 0 0 2 2 4 5 2 0 0 12.3762341
2212 4 -10.4499998 -5.7389999 -17.25 0 0 0 3 6 6 0 0 0 12.880703
2241 4 5.4530001 -5.969 0.8786 0 0 0 2 8 5 0 0 0 13.3677082
2274 1 -6.3260002 -19.8999996 0.6168 0 0 0 3 6 4 0 0 0 11.6576414
2290 4 -3.1849999 -20.8799992 13.0299997 0 0 1 1 9 3 0 0 0 12.0062771
2291 2 -12.3299999 16.3400002 -14.8199997 0 0 0 3 9 1 0 0 0 11.1873608
2295 1 7.896 -2.809 18.2399998 0 0 0 3 6 4 0 0 0 11.9246778
2315 4 16.8799992 0.05003 -21.4699993 0 0 0 3 6 4 0 0 0 11.8490726
2324 1 13.3900004 -10.3599997 10.1300001 0 0 0 3 6 5 0 0 0 12.5438032
2325 4 -15.3299999 -6.2670002 -6.5669999 0 0 1 3 5 5 0 0 0 12.0019608
2333 2 8.4040003 21.0599995 19.7700005 0 0 0 1 10 2 0 0 0 11.6866732
2334 5 -0.8276 8.342 14.6899996 0 0 1 2 7 2 2 0 0 13.2471876
2341 4 21.4400006 8.797 -9.7530003 0 0 0 2 8 3 0 0 0 11.6719389
2342 3 1.686 6.2919998 -15.9799996 0 0 0 1 10 2 0 0 0 11.4638615
2346 4 -15.0299997 -1.961 4.4640003 0 0 0 1 10 5 0 0 0 13.29778
2356 3 19.5799999 -1.975 -9.8549996 0 0 1 2 9 4 0 0 0 13.0069265
2377 4 6.4499998 -20.3799992 21.0699997 0 0 0 0 12 0 0 0 0 11.214365
2388 4 -4.757 6.6560002 -2.326 0 0 0 0 12 4 0 0 0 13.5667763
2389 2 -14.6599999 -15.8599998 -17.5499993 0 0 1 1 8 3 1 0 0 11.9146634
2400 2 -13.2299996 -0.2791 20.1499996 0 0 0 4 5 2 1 0 0 11.4845639
2409 5 -6.2049999 21.0900002 19.7299996 0 0 0 0 12 0 0 0 0 11.5075341
2411 4 18.5200005 -18.8199997 -3.1159999 0 0 1 2 7 3 0 0 0 11.2201414
2414 1 1.67 7.2379999 15.3699999 0 0 0 3 8 2 0 0 0 12.3022671
2428 4 -7.3400002 13.9700004 13.5200005 0 0 0 0 12 0 0 0 0 11.5803232
2437 2 -11.3100004 9.9530002 18.5 0 0 0 3 6 4 0 0 0 11.1812458
2438 1 10.8100004 -10.3500004 -1.197 0 0 0 0 12 0 0 0 0 10.3637619
2440 4 12.2700005 -12.4700003 -1.04 0 0 0 3 6 6 0 0 0 13.0012646
2465 5 -1.662 -10.1499996 8.151 0 0 0 3 6 6 0 0 0 12.2185879
2476 1 12.6499996 -22.1900005 19.3700009 0 0 0 3 6 4 0 0 0 11.7296219
2480 4 13.25 11.25 -20.1299992 0 0 0 3 8 5 0 0 0 13.0688715
2502 4 -6.5669999 -10.8800002 -1.64 0 0 0 2 8 4 0 0 0 12.2045002
2504 2 -8.9799996 -9.6780005 -14.3000002 0 0 0 0 12 0 0 0 0 11.2855406
2509 4 -8.7180004 17.5900002 -21.5400009 0 0 0 1 10 4 0 0 0 12.5326872
2511 5 -5.8309999 6.6209998 -4.8379998 0 0 0 0 12 0 0 0 0 11.2782517
2519 4 8.599 -9.1020002 17.4699993 0 0 1 1 9 3 0 0 0 12.3174086
2520 4 3.514 -19.7000008 -5.9050002 0 0 0 1 10 4 0 0 0 12.4955979
2521 2 5.8400002 5.0120001 13.3800001 0 0 0 2 8 4 0 0 0 11.919057
2524 4 -18.4099999 4.1139998 -2.22 0 0 0 0 12 2 0 0 0 12.7518044
2526 2 -5.777 15.6499996 18.0699997 0 0 0 2 8 1 0 0 0 10.970975
2534 5 -6.5780001 9.0100002 -17.3799992 0 0 0 4 6 5 0 0 0 12.7139864
2535 5 -5.0050001 -5.131 3.95 0 0 0 2 8 6 0 0 0 13.6654234
2565 4 -7.2810001 9.6700001 -22.1900005 0 0 0 1 10 2 0 0 0 11.9465256
2577 3 -0.4059 -3.6559999 10.6099997 0 0 0 0 12 4 0 0 0 13.4720011
2582 2 2.987 13.6400004 -11.6899996 0 0 0 1 10 2 0 0 0 11.7736225
2588 2 21.9200002 13.4099999 -10.4099999 0 0 1 0 7 5 0 0 0 11.5831766
2590 4 -6.6209998 10.6499996 11.4200001 0 0 0 0 12 2 0 0 0 12.1431322
2592 3 -12.79 15.2200003 -21.0 0 0 1 3 7 3 0 0 0 11.4520216
2594 2 4.744 3.0420001 -17.0599995 0 0 2 2 6 2 2 0 0 12.0211554
2595 5 -17.1000004 -15.8000002 3.5799999 0 0 0 1 10 4 0 0 0 12.1697254
2600 1 12.2399998 17.9500008 10.3500004 0 0 0 3 6 2 2 0 0 11.2946072
2608 5 4.4060001 -10.5600004 10.2700005 0 0 0 2 8 4 0 0 0 12.3828812
2613 5 -10.2799997 -10.3299999 20.5 0 0 0 3 8 4 0 0 0 13.163126
2615 2 9.3599997 -21.0200005 6.7290001 0 0 0 4 6 3 0 0 0 11.532568
2623 3 -15.4600001 1.8070001 -20.3899994 0 0 0 3 8 3 0 0 0 12.7289353
2644 2 -5.731 21.25 0.8421 0 0 0 2 8 4 0 0 0 12.0645676
2648 2 3.0550001 -5.7589998 -14.0299997 0 0 0 0 12 0 0 0 0 11.1626787
2651 4 15.3000002 -20.7099991 10.0200005 0 0 0 0 12 3 0 0 0 12.7573157
2659 4 17.7700005 -3.395 -8.5860005 0 0 1 0 11 1 0 0 0 12.3146839
2672 2 -8.79 -14.8599998 11.2100001 0 0 0 3 6 3 0 0 0 11.5079041
2677 4 21.2999992 19.0699997 6.3150001 0 0 1 0 9 3 0 0 0 11.7691059
2680 4 17.8899994 -7.395 18.7000008 0 0 0 4 6 2 0 0 0 11.3678856
2692 4 -14.9300004 -7.881 -4.7919998 0 0 0 3 6 4 0 0 0 11.1908798
2697 1 -14.4099999 18.0300007 -2.962 0 0 0 3 6 4 0 0 0 12.0251856
2706 4 14.8800002 3.7790001 -12.3999996 0 0 0 1 10 2 0 0 0 12.6454926
2715 4 7.4819999 -5.3860002 18.2299996 0 0 1 1 8 5 1 0 0 13.220624
2719 4 2.287 -8.7320004 -11.2399998 0 0 0 2 7 4 1 0 0 13.3445225
2741 5 13.5299998 13.0100002 1.37 0 0 0 2 8 2 0 0 0 11.5876408
2771 5 8.7550001 -18.4799996 10.2600002 0 0 0 1 10 2 0 0 0 11.8986368
2773 2 10.5500002 -18.0 -15.5 0 0 1 3 5 5 0 0 0 12.1186495
2784 5 -1.145 -20.9099998 2.148 0 0 1 1 9 3 0 0 0 11.864789
2789 5 -18.9300004 -19.9899998 -22.1299992 0 0 1 2 7 4 0 0 0 11.9503022
2803 5 -8.6750002 -14.9700004 -8.8140002 0 0 0 1 10 2 0 0 0 12.8677254
2805 4 14.8199997 11.2100001 -2.6199999 0 0 0 1 10 4 0 0 0 13.1824341
2813 4 -7.4159999 -7.2810001 -10.2100001 0 0 0 1 10 4 0 0 0 12.7981396
2823 4 2.6300001 -22.0900002 20.0 0 0 1 1 9 3 0 0 0 12.0163288
2830 4 -3.819 21.4500008 11.0600004 0 0 1 3 6 3 1 0 0 12.5471754
2840 2 -4.6300001 18.2000008 3.4089999 0 0 1 2 6 3 1 0 0 11.6883278
2848 4 -2.797 -8.1120005 6.6160002 0 0 0 1 10 3 0 0 0 12.0974865
2850 4 -3.0020001 3.7390001 10.96 0 0 0 0 12 0 0 0 0 11.1647396
2860 1 4.4429999 -1.099 -18.4500008 0 0 0 2 8 2 0 0 0 11.8113728
2864 4 -4.1880002 17.0499992 21.0900002 0 0 1 1 9 2 0 0 0 11.4958496
2871 5 -7.625 15.1800003 -13.2799997 0 0 2 2 7 3 1 0 0 13.0276957
2878 2 2.289 -7.5180002 8.8039999 0 0 1 3 7 3 0 0 0 11.8021984
2900 4 3.799 4.1199999 -21.4599991 0 0 0 2 10 1 0 0 0 11.8605728
2906 4 -15.7200003 17.7399998 -20.3899994 0 0 0 3 8 4 0 0 0 12.3828831
2911 4 2.56 18.3799992 -12.3999996 0 0 0 0 12 2 0 0 0 11.9434576
2929 4 -12.2200003 -13.6700001 -14.6300001 0 0 0 2 8 5 0 0 0 12.7980137
2933 4 -17.0300007 -22.1700001 -17.5 0 0 0 1 12 1 0 0 0 13.5019789
2942 4 -2.0420001 -19.0400009 14.5299998 0 0 2 2 5 3 1 0 0 12.1292105
2961 4 2.3380001 -10.8199997 -9.6120005 0 0 0 2 8 4 0 0 0 12.0680113
2963 2 -19.4300003 -15.0600004 10.4099999 0 0 0 0 12 0 0 0 0 11.4663916
2993 4 15.8599998 21.25 -17.0300007 0 0 0 1 10 4 0 0 0 12.6554213
2994 4 -4.1149998 -9.5530005 -0.8701 0 0 0 0 12 3 0 0 0 12.7185297
2995 2 8.8929996 -2.48 14.8900004 0 0 0 2 8 3 0 0 0 11.5594635
2997 2 -15.2799997 -8.1389999 -21.4699993 0 0 0 2 10 1 0 0 0 11.8781996
2999 2 19.6000004 20.3700009 0.4227 0 0 1 2 6 3 1 0 0 11.2923975
3019 4 19.9099998 16.7399998 -8.6099997 0 0 0 2 10 3 0 0 0 13.3778057
3020 5 16.9899998 5.9640002 -19.0799999 0 0 0 3 6 5 0 0 0 12.4770174
3021 5 -2.0929999 -10.6499996 0.6408 0 0 1 2 7 5 0 0 0 12.3820171
3024 5 -1.911 7.2620001 -21.1800003 0 0 0 3 6 6 0 0 0 12.4734297
3048 4 4.2740002 10.6599999 14.3000002 0 0 0 0 12 3 0 0 0 13.1202869
3056 4 14.7100001 -15.6700001 -8.3909998 0 0 0 2 10 3 0 0 0 12.5480232
3064 2 18.4200001 -14.6899996 -20.5100003 0 0 0 2 10 1 0 0 0 11.984995
3066 2 -16.8299999 5.4109998 -12.9300004 0 0 0 0 12 0 0 0 0 11.6127901
3070 4 14.7600003 4.4380002 14.6400004 0 0 0 4 10 0 0 0 0 12.1389198
3072 4 -11.96 -4.6799999 -18.7399998 0 0 0 1 10 4 0 0 0 12.4238854
3083 4 -11.75 -10.25 -9.1070004 0 0 0 2 8 3 0 0 0 12.6706085
3110 2 6.882 16.5200005 1.75 0 0 0 1 10 2 0 0 0 12.0055199
3119 5 14.9700004 10.9300004 13.8999996 0 0 0 0 12 2 0 0 0 12.3894882
3126 2 -12.6599999 -0.8619 17.9099998 0 0 1 3 6 6 1 0 0 13.1009111
3129 2 3.02 14.7299996 -7.3940001 0 0 0 2 8 2 0 0 0 11.290371
3137 2 5.355 -3.2969999 -18.9599992 0 0 0 1 10 2 0 0 0 12.0626955
3142 2 -7.3779998 13.3299999 -17.0200005 0 0 0 0 12 2 0 0 0 12.2399941
3157 5 -16.6800003 15.8800002 -14.1700001 0 0 0 1 10 2 0 0 0 12.7778549
3164 2 19.3600006 -15.75 0.1782 0 0 0 2 8 4 0 0 0 12.1905623
3169 5 -1.419 18.4699993 7.8299999 0 0 0 2 8 2 0 0 0 11.5580035
3174 4 -3.5869999 -3.876 16.3500004 0 0 0 4 7 1 1 0 0 12.1090126
3190 2 1.673 13.3400002 8.6820002 0 0 0 2 10 0 0 0 0 11.2071734
3193 2 18.2700005 2.4270001 8.7159996 0 0 0 1 10 2 0 0 0 11.7738056
3198 4 7.1700001 6.7820001 -22.1299992 0 0 0 2 8 4 0 0 0 12.5163431
3219 4 -3.089 7.0050001 18.9599992 0 0 0 3 6 5 0 0 0 11.7745247
3231 5 13.2200003 18.7700005 3.3039999 0 0 0 2 10 2 0 0 0 12.9179898
3238 5 5.0749998 -21.9400006 19.2099991 0 0 0 1 10 5 0 0 0 12.9800988
3240 1 -11.3800001 20.4899998 -3.4500001 0 0 0 0 12 0 0 0 0 10.8923846
3242 2 -0.4143 0.2851 12.5500002 0 0 0 2 10 0 0 0 0 11.1687088
3248 4 -16.4699993 -6.0739999 6.8860002 0 0 0 0 12 3 0 0 0 13.0353851
3253 5 9.4799996 4.1040001 10.5699997 0 0 1 1 9 4 0 0 0 13.3590641
3257 4 4.1030002 -15.2100001 -20.8600006 0 0 0 2 8 4 0 0 0 12.0430021
3260 4 -19.4200001 -16.7700005 3.893 0 0 0 2 10 0 0 0 0 11.2027741
3274 2 -0.3988 15.3800001 16.6399994 0 0 2 2 6 4 0 0 0 11.4734726
3278 4 17.3999996 -8.507 -18.5200005 0 0 0 0 12 0 0 0 0 11.7774153
3282 5 6.744 14.1999998 20.2099991 0 0 2 0 8 4 0 0 0 12.08253
3283 4 -13.5 17.25 -22.0 0 0 0 1 10 2 0 0 0 11.8565264
3298 5 -3.043 -0.3618 8.5380001 0 0 0 0 12 0 0 0 0 11.5590801
3303 5 -4.072 -8.3929997 14.3900004 0 0 0 1 10 2 0 0 0 11.6104489
3313 2 -0.523 -9.2130003 6.3119998 0 0 1 4 5 3 0 0 0 11.7744446
3317 5 15.5699997 4.2329998 1.278 0 0 0 0 12 0 0 0 0 11.3838225
3323 5 13.3999996 14.1499996 -16.3700009 0 0 0 2 10 1 0 0 0 12.0794001
3338 5 1.905 -5.8520002 -19.0699997 0 0 1 3 7 2 0 0 0 11.6715489
3344 4 -15.9200002 7.5310002 -0.9478 0 0 0 1 10 2 0 0 0 11.881631