ITEM: TIMESTEP
0
ITEM: NUMBER OF ATOMS
50688
ITEM: BOX BOUNDS xy xz yz pp pp pp
-40.1340523 46.6168976 6.4828449
-43.8030052 43.8030052 0.0
-43.7915344 43.7915344 0.0
ITEM: ATOMS id type x y z VoronoiIndex1 VoronoiIndex2 VoronoiIndex3 VoronoiIndex4 VoronoiIndex5 VoronoiIndex6 VoronoiIndex7 VoronoiIndex8 VoronoiIndex9 AtomicVolume
2 2 -12.5299998 -19.8600006 -10.0 0 0 1 1 9 3 0 0 0 12.1254168
4 2 -29.0799999 -20.7299996 -19.4799996 0 0 0 0 12 0 0 0 0 11.2278967
23 2 -15.0699997 -31.8600006 -14.0500002 0 0 0 1 9 2 1 0 0 11.8369599
32 5 -36.619999 -21.7199993 -35.6599999 0 0 1 2 7 3 2 0 0 13.1464691
33 1 -12.9200002 -5.5510001 -27.0200005 0 0 0 0 12 0 0 0 0 10.995739
39 4 -21.2600002 -34.2400017 -41.7000008 0 0 0 0 12 3 0 0 0 13.2541332
46 4 -28.6499996 -11.7600003 -43.0 0 0 0 1 10 2 0 0 0 11.901537
68 4 -12.6400004 -9.7749996 -9.8389998 0 0 0 0 12 2 0 0 0 12.191576
88 5 -30.8199997 -30.7999993 -0.4606 0 0 0 1 10 2 0 0 0 11.872035
93 2 -33.2900009 -19.1800003 -25.5400009 0 0 0 4 8 1 0 0 0 11.4831295
97 5 -21.6499996 -8.6330004 -0.3998 0 0 1 2 9 3 0 0 0 12.7260056
109 4 -32.1800003 -9.922 -25.9799996 0 0 0 1 10 4 0 0 0 12.7001848
119 4 -33.0600014 -22.1599999 -19.3099995 0 0 0 0 12 2 0 0 0 12.6303873
141 4 -20.1200008 -10.8999996 -40.1300011 0 0 0 3 8 4 0 0 0 12.7172098
211 2 -35.5099983 -24.5100003 -37.4399987 0 0 2 1 7 3 1 0 0 11.6617527
227 4 -16.6599999 -6.566 -28.8099995 0 0 0 2 10 3 0 0 0 13.6087437
237 2 -12.1099997 -38.2400017 -34.3199997 0 0 0 1 10 2 0 0 0 11.5630083
265 5 -33.5299988 -21.8600006 -25.4200001 0 0 0 5 6 3 0 0 0 12.8212595
275 5 -33.869999 -21.1900005 -32.2099991 0 0 0 2 10 2 0 0 0 12.619833
281 4 -30.5200005 -43.4900017 -41.3199997 0 0 0 1 10 3 0 0 0 12.1558085
286 3 -12.4600001 -33.3600006 -23.1000004 0 0 0 1 10 4 0 0 0 12.3836804
290 4 -37.8499986 -42.6899987 -3.1170001 0 0 0 4 6 4 0 0 0 12.0896692
293 5 -19.2099991 -8.5539999 -43.619999 0 0 0 3 6 4 0 0 0 13.2550602
297 5 -19.1499996 -8.1079998 -20.5200005 0 0 0 4 6 4 0 0 0 11.7067309
321 2 -38.3199997 -20.0799999 -22.0100002 0 0 0 0 12 0 0 0 0 10.6382046
326 4 -23.3400002 -23.3400002 -9.8039999 0 0 1 3 5 5 0 0 0 13.0320673
329 2 -37.9099998 -25.7199993 -8.2010002 0 0 0 3 5 4 0 0 0 11.6339665
338 5 -23.9500008 -33.6599999 -30.2099991 0 0 0 3 6 4 0 0 0 11.3901396
349 4 -22.5900002 -41.9000016 -16.3799992 0 0 0 3 10 2 0 0 0 12.9506532
350 4 -33.0600014 -14.3400002 -37.5 0 0 0 2 8 4 0 0 0 12.4831028
387 3 -15.87 -23.3199997 -33.2400017 0 0 0 1 10 3 0 0 0 12.6179943
403 4 -33.5600014 -33.0999985 -15.0699997 0 0 0 4 6 2 0 0 0 11.7513123
414 4 -11.4700003 -1.056 -7.75 0 0 0 0 12 2 0 0 0 12.1881533
415 4 -13.25 -3.0769999 -27.3199997 0 0 0 1 10 4 0 0 0 12.5933724
423 2 -28.4500008 -13.1700001 -26.0599995 0 0 1 0 9 3 0 0 0 11.9105016
424 3 -20.1599999 -37.5 -30.3799992 0 0 0 3 6 5 0 0 0 12.162859
458 1 -34.5200005 -27.9400006 -38.9300004 0 0 0 0 12 0 0 0 0 10.2127676
461 2 -20.8199997 -0.7114 -6.5809999 0 0 1 3 5 3 0 0 0 11.6213026
463 3 -36.5800019 -3.829 -14.1099997 0 0 0 0 12 2 0 0 0 12.6192112
477 2 -17.9500008 -18.7000008 -26.3500004 0 0 0 1 10 2 0 0 0 11.99512
478 5 -12.4200001 -9.8579998 -32.5099983 0 0 0 2 8 5 0 0 0 12.4231186
483 4 -9.6870003 -6.639 -30.75 0 0 0 1 10 2 0 0 0 11.7209234
485 4 -14.8599998 -17.1499996 -4.329 0 0 0 2 10 2 0 0 0 12.328392
495 4 -32.0200005 -25.1200008 -1.647 0 0 0 1 10 3 0 0 0 11.8817884
508 4 -20.9599992 -23.4099999 -14.3800001 0 0 1 2 9 4 0 0 0 12.7476635
511 4 -19.6800003 -24.3400002 -36.1199989 0 0 1 2 6 5 1 0 0 12.3579054
514 2 -14.0699997 -25.2099991 -39.5299988 0 0 0 2 8 5 0 0 0 12.2888794
537 5 -19.6499996 -19.3799992 -13.9799996 0 0 0 2 8 4 0 0 0 11.4196739
544 3 -30.6299992 -12.7200003 -39.4700012 0 0 0 2 8 4 0 0 0 12.1452236
546 2 -15.7799998 -12.9499998 -33.6399994 0 0 0 2 8 3 0 0 0 12.2399969
553 4 -31.3999996 -27.4099999 -5.2810001 0 0 0 1 10 3 0 0 0 12.0087652
554 5 -17.6900006 -39.2999992 -18.3600006 0 0 0 1 10 2 0 0 0 11.6918612
574 4 -29.9300004 -23.7199993 -16.5400009 0 0 1 1 9 4 0 0 0 13.2161999
579 5 -18.1499996 -26.4300003 -25.2000008 0 0 0 3 6 3 0 0 0 11.9919176
621 2 -27.5499993 -32.5 -6.9530002 0 0 0 2 8 2 0 0 0 11.7271958
639 5 -35.9099998 -11.6300001 -28.6599999 0 0 0 3 8 4 0 0 0 13.6051684
644 2 -14.4099999 -8.4729996 -20.6900006 0 0 0 0 12 0 0 0 0 11.3440476
670 4 -24.8799992 -19.2099991 -40.6699982 0 0 0 1 10 2 0 0 0 11.7613535
690 2 -17.6100006 -32.8899994 -36.7200012 0 0 0 3 7 1 0 0 0 11.3920202
691 5 -37.4300003 -9.7480002 -40.5699997 0 0 1 1 11 1 0 0 0 12.7726994
701 5 -16.4400006 -32.2599983 -2.885 0 0 0 4 4 5 0 0 0 11.9283876
718 4 -20.8199997 -13.8999996 -30.8199997 0 0 0 1 10 4 0 0 0 12.6156531
733 4 -16.2000008 -20.1100006 -25.4799996 0 0 0 2 8 5 0 0 0 12.5088377
740 2 -32.8800012 -37.3100014 -42.1199989 0 0 0 0 12 0 0 0 0 11.355875
766 4 -28.7299996 -11.8400002 -12.8900004 0 0 1 2 7 4 0 0 0 11.4879608
773 2 -13.0600004 -26.2800007 -30.3899994 0 0 0 1 10 2 0 0 0 11.1952906
800 2 -35.869999 -37.2999992 -19.5100003 0 0 0 1 10 2 0 0 0 11.7287045
824 5 -25.1599999 -22.4300003 -2.03 0 0 0 1 9 3 0 0 0 12.0976486
833 4 -37.0800018 -18.9799996 -36.0999985 0 0 0 4 6 2 0 0 0 11.9204856
839 2 -23.5200005 -41.2799988 -2.2560001 0 0 0 2 10 3 0 0 0 12.6057501
853 4 -31.7299996 -8.5270005 -28.4699993 0 0 0 2 8 4 0 0 0 12.4369812
857 5 -27.6499996 -14.6199999 -17.2099991 0 0 0 1 10 3 0 0 0 12.3089447
858 4 -23.7099991 -10.0100002 -4.1209998 0 0 0 1 10 4 0 0 0 13.172327
907 5 -23.4099999 -27.3700009 -43.4199982 0 0 0 1 10 4 0 0 0 12.9422322
912 5 -20.5200005 -42.9399986 -39.3499985 0 0 0 0 12 0 0 0 0 11.3479643
913 1 -11.8800002 -10.5500002 -23.7399998 0 0 0 0 12 0 0 0 0 11.2827349
918 4 -13.54 -18.8400002 -34.0499992 0 0 0 2 8 5 0 0 0 13.282835
927 5 -15.3199997 -25.0900002 -29.2900009 0 0 0 0 12 3 0 0 0 12.938695
934 4 -21.1399994 -7.7989998 -26.8199997 0 0 0 0 12 0 0 0 0 11.6169482
935 2 -26.5100003 -5.547 -25.9799996 0 0 0 2 8 1 0 0 0 11.7562218
939 2 -37.5400009 -36.3499985 -30.9599992 0 0 0 2 8 3 0 0 0 11.533557
942 2 -37.6100006 -9.8649998 -15.1800003 0 0 0 3 8 2 0 0 0 11.5887556
949 2 -23.6900006 -5.3000002 -32.2099991 0 0 0 3 7 4 1 0 0 12.5968628
959 4 -19.7000008 -24.9300004 -9.1800003 0 0 0 0 12 3 0 0 0 12.8580428
961 2 -15.6899996 -40.5999985 -41.7400017 0 0 0 0 12 0 0 0 0 11.0284233
969 2 -31.6800003 -9.6490002 -11.9899998 0 0 0 3 6 4 0 0 0 11.3605766
990 5 -23.4799996 -24.6800003 -42.3800011 0 0 1 2 7 4 0 0 0 12.6374159
1015 5 -37.7999993 -39.2700005 -13.7600003 0 0 0 3 6 6 0 0 0 12.2945585
1033 2 -22.2900009 -33.9500008 -10.7700005 0 0 0 2 8 2 0 0 0 11.7970486
1051 4 -15.4300003 -15.5200005 -18.4799996 0 0 1 2 7 5 0 0 0 12.2719221
1075 4 -34.3300018 -1.826 -34.5400009 0 0 1 4 5 3 0 0 0 12.2266102
1086 1 -14.9499998 -38.8400002 -24.0900002 0 0 0 1 10 2 0 0 0 10.8954916
1089 3 -26.3799992 -33.1699982 -38.0400009 0 0 0 3 8 3 0 0 0 11.778224
1110 2 -23.1000004 -21.4400006 -5.5840001 0 0 0 2 8 1 2 0 0 11.9945202
1111 5 -34.5699997 -5.626 -6.066 0 0 0 0 12 0 0 0 0 11.5245705
1122 4 -18.5100003 -23.9599992 -15.4899998 0 0 0 1 10 2 0 0 0 12.1206083
1138 4 -32.0200005 -28.9699994 -0.7379 0 0 0 0 12 2 0 0 0 11.7029581
1152 1 -30.0499992 -32.9599992 -0.0984 0 0 0 0 12 0 0 0 0 10.5068684
1163 2 -33.2299996 -19.2099991 -12.0 0 0 0 1 10 3 0 0 0 12.5470228
1166 5 -22.5799999 -28.7299996 -9.5249996 0 0 0 2 8 4 0 0 0 12.4275799
1178 1 -23.6399994 -34.2099991 -6.0170002 0 0 3 2 4 4 1 0 0 11.9639636
1209 2 -11.8800002 -5.8870002 -9.7559996 0 0 0 1 10 2 0 0 0 11.4830971
1211 5 -26.4099999 -23.0699997 -20.8099995 0 0 0 0 12 0 0 0 0 11.5200491
1219 5 -24.6399994 -32.9099998 -39.619999 0 0 0 1 10 2 0 0 0 11.7954636
1237 2 -38.8600006 -41.869999 -8.6169997 0 0 1 2 7 1 0 0 0 10.6469164
1238 4 -35.6599999 -32.0600014 -39.0499992 0 0 0 1 10 5 0 0 0 13.2806502
1239 2 -18.7000008 -10.29 -19.4500008 0 0 0 0 12 0 0 0 0 10.9471866
1251 4 -36.7099991 -31.7399998 -7.6919999 0 0 0 0 12 3 0 0 0 13.1274366
1256 4 -13.9499998 -5.942 -8.5380001 0 0 0 0 12 3 0 0 0 13.6964503
1259 2 -34.6699982 -43.5200005 -15.7799998 0 0 0 0 12 0 0 0 0 10.9459896
1262 4 -28.3199997 -22.1800003 -14.75 0 0 0 4 8 1 0 0 0 12.8134699
1280 4 -35.7099991 -27.6399994 -32.3100014 0 0 0 0 12 2 0 0 0 12.3350487
1298 4 -38.0400009 -19.8400002 -42.5 0 0 0 1 10 4 0 0 0 13.1300106
1303 4 -12.2799997 -20.4500008 -35.6100006 0 0 0 0 12 0 0 0 0 11.3686247
1304 5 -10.4899998 -18.5699997 -15.5900002 0 0 0 1 10 2 0 0 0 12.2246599
1315 2 -36.4099999 -34.1500015 -42.9000016 0 0 0 0 12 0 0 0 0 11.203948
1319 2 -19.4899998 -28.5100003 -1.1900001 0 0 0 3 6 4 0 0 0 11.165473
1337 4 -14.2799997 -19.8600006 -36.7900009 0 0 0 1 10 2 0 0 0 11.7567854
1340 2 -26.1299992 -24.0300007 -38.9900018 0 0 0 3 8 2 0 0 0 12.4958916
1342 2 -35.8199997 -32.0099983 -32.7000008 0 0 0 4 8 3 0 0 0 12.1099424
1343 2 -23.0400009 -4.559 -34.8899994 0 0 0 2 8 4 0 0 0 12.0957499
1352 5 -10.8900004 -15.3299999 -42.4199982 0 0 1 0 11 1 0 0 0 11.8613148
1372 2 -16.5200005 -23.1700001 -28.6000004 0 0 1 2 7 4 0 0 0 12.1900301
1399 4 -36.4199982 -17.3799992 -2.2609999 0 0 0 3 6 4 0 0 0 11.4127655
1407 5 -34.1599999 -6.5349999 -24.8199997 0 0 0 0 12 0 0 0 0 11.0132198
1408 1 -19.5100003 -34.7400017 -8.073 0 0 0 3 8 2 0 0 0 11.0063353
1414 2 -29.9699994 -19.2000008 -30.8400002 0 0 0 1 10 2 0 0 0 11.314908
1419 2 -32.3600006 -43.7000008 -15.4700003 0 0 1 0 9 3 0 0 0 11.9420624
1421 2 -16.1599999 -36.3800011 -33.1599999 0 0 0 2 8 1 2 0 0 11.8521472
1437 4 -36.8199997 -19.7800007 -20.2399998 0 0 0 3 7 4 1 0 0 12.560381
1495 5 -14.29 -23.1900005 -6.89 0 0 0 1 10 3 0 0 0 13.3233223
1505 2 -25.1900005 -19.1399994 -43.1899986 0 0 0 2 8 2 0 0 0 11.3082829
1521 5 -14.4300003 -24.7299996 -3.086 0 0 0 4 8 1 0 0 0 12.3909807
1526 4 -15.6400004 -8.9709998 -35.1500015 0 0 0 1 10 4 0 0 0 12.4342499
1527 5 -15.9399996 -40.6500016 -35.5999985 0 0 3 1 6 3 1 1 0 12.2868166
1529 2 -12.8400002 -36.9500008 -26.4799996 0 0 0 3 6 3 0 0 0 11.9151068
1539 5 -29.6499996 -1.206 -30.3299999 0 0 0 3 6 5 0 0 0 12.6307125
1552 4 -33.1899986 -40.3600006 -29.8199997 0 0 0 3 8 2 0 0 0 11.8191643
1555 2 -12.8199997 -19.1599999 -41.9099998 0 0 0 1 10 2 0 0 0 11.4772692
1585 4 -33.6500016 -27.5499993 -6.3990002 0 0 0 1 10 3 0 0 0 12.3668118
1593 2 -22.8099995 -3.7490001 -29.1299992 0 0 0 1 10 2 0 0 0 11.4736357
1595 4 -36.4300003 -17.1200008 -28.6800003 0 0 1 2 7 2 2 0 0 12.6551543
1611 5 -15.0100002 -7.909 -0.23 0 0 1 0 11 1 0 0 0 11.1426039
1617 4 -17.8500004 -2.4949999 -38.2799988 0 0 0 2 10 1 0 0 0 11.7894449
1625 2 -36.2599983 -34.9599992 -29.4300003 0 0 1 2 6 2 1 0 0 11.4009781
1626 2 -16.6700001 -35.7900009 -27.8600006 0 0 0 0 12 0 0 0 0 11.0801048
1658 4 -35.8800012 -14.8800002 -6.3179999 0 0 0 0 12 2 0 0 0 12.0375967
1660 4 -31.75 -5.4879999 -25.6100006 0 0 0 0 12 2 0 0 0 11.9594308
1670 2 -22.4899998 -22.7600003 -24.3700009 0 0 1 2 7 3 2 0 0 12.4141894
1683 4 -26.5499993 -15.7799998 -38.8199997 0 0 0 1 10 2 0 0 0 12.1209269
1687 2 -20.75 -29.6200009 -30.75 0 0 0 4 4 4 0 0 0 11.5826044
1707 4 -14.9399996 -30.3199997 -3.296 0 0 1 0 9 3 0 0 0 12.0103283
1727 5 -17.8199997 -9.6549998 -15.6700001 0 0 0 1 10 2 0 0 0 11.4237013
1741 3 -21.2600002 -36.8600006 -36.8899994 0 0 0 2 8 4 0 0 0 12.5518866
1749 5 -33.7999993 -24.6200009 -29.8199997 0 0 1 3 6 4 1 0 0 12.5407534
1755 2 -35.7599983 -9.092 -20.8700008 0 0 0 3 6 4 0 0 0 11.8552618
1759 1 -15.3299999 -20.7800007 -6.7199998 0 0 0 1 10 2 0 0 0 12.2596016
1771 5 -16.8299999 -13.5500002 -14.3299999 0 0 1 1 9 3 0 0 0 12.0662861
1772 2 -16.4599991 -10.4799996 -4.8150001 0 0 1 2 7 2 0 0 0 12.1951361
1796 4 -25.1800003 -4.2529998 -36.4799996 0 0 0 1 10 3 0 0 0 12.2782889
1798 5 -26.9699994 -21.4400006 -28.3799992 0 0 1 3 5 4 0 0 0 12.2667599
1804 5 -33.6699982 -14.6499996 -32.4300003 0 0 0 3 6 6 0 0 0 12.5288859
1810 2 -24.4099999 -39.6399994 -31.5900002 0 0 0 0 12 0 0 0 0 11.724865
1826 4 -39.619999 -39.4900017 -11.9499998 0 0 0 2 8 5 0 0 0 12.5724354
1835 2 -12.5100003 -3.0739999 -15.7200003 0 0 0 3 6 4 0 0 0 11.6770439
1844 2 -27.3299999 -41.9799996 -29.4799996 0 0 1 2 7 2 0 0 0 12.4266901
1850 4 -25.9899998 -27.3500004 -19.4500008 0 0 0 2 8 4 0 0 0 12.9649372
1876 4 -31.2099991 -28.7999993 -35.7799988 0 0 0 0 12 3 0 0 0 13.2761469
1893 4 -26.75 -7.264 -20.0300007 0 0 0 0 12 4 0 0 0 13.2127733
1908 2 -34.2700005 -8.9139996 -24.7600003 0 0 0 0 12 0 0 0 0 11.1311007
1914 2 -26.6200009 -6.4699998 -35.9900018 0 0 0 0 12 0 0 0 0 11.2785549
1927 2 -35.7099991 -27.8700008 -35.1100006 0 0 1 1 9 4 0 0 0 12.3901529
1928 2 -30.9899998 -11.9799996 -12.1099997 0 0 0 4 4 7 0 0 0 11.9030744
1934 3 -25.5900002 -20.3299999 -21.5699997 0 0 0 0 12 2 0 0 0 12.5986624
1937 4 -32.7700005 -41.2799988 -24.5699997 0 0 0 2 8 4 0 0 0 12.4127417
1955 5 -20.1200008 -7.698 -8.6180001 0 0 0 2 8 3 0 0 0 12.5916558
1958 5 -28.4599991 -1.0140001 -11.1999998 0 0 0 0 12 0 0 0 0 11.202241
1960 4 -25.5100003 -35.2900009 -15.9899998 0 0 0 1 9 2 1 0 0 12.2514916
1967 4 -13.7399998 -9.6750002 -30.2000008 0 0 0 1 10 2 0 0 0 11.9365178
1980 2 -10.8400002 -13.9799996 -39.0499992 0 0 1 1 9 1 0 0 0 11.7246723
2006 4 -19.4799996 -40.3800011 -38.3400002 0 0 0 2 8 6 0 0 0 13.3589192
2013 4 -13.1999998 -13.5900002 -1.768 0 0 0 2 8 7 0 0 0 13.4400625
2021 5 -35.3100014 -20.2900009 -41.9599992 0 0 0 1 10 4 0 0 0 13.3089924
2034 4 -27.1000004 -30.5599995 -39.4900017 0 0 0 4 5 5 1 0 0 12.6397953
2062 4 -27.7999993 -33.3100014 -21.25 0 0 0 1 10 2 0 0 0 11.5736399
2085 4 -12.9399996 -38.9199982 -28.1000004 0 0 0 2 10 4 0 0 0 13.7539902
2108 1 -22.75 -15.79 -0.357 0 0 0 2 10 0 0 0 0 11.0468044
2113 1 -35.7000008 -3.845 -31.1700001 0 0 0 2 10 0 0 0 0 11.3330698
2133 1 -14.7799998 -42.5800019 -42.5800019 0 0 0 0 12 0 0 0 0 10.6451025
2147 4 -36.6300011 -14.0600004 -19.75 0 0 0 1 10 4 0 0 0 12.4688273
2149 4 -13.0600004 -28.75 -37.0699997 0 0 0 2 8 4 0 0 0 12.2084704
2161 2 -12.7700005 -33.4000015 -8.375 0 0 0 3 8 3 0 0 0 11.7168885
2195 2 -21.4300003 -36.0299988 -15.1000004 0 0 0 2 6 3 0 1 0 11.29282
2208 4 -37.0999985 -27.9200002 -39.2200012 0 0 1 1 9 3 0 0 0 12.2443667
2216 5 -14.8199997 -17.9799996 -29.3299999 0 0 0 0 12 2 0 0 0 12.4154434
2229 4 -27.7800007 -36.1899986 -25.3999996 0 0 0 2 8 4 0 0 0 12.871421
2232 5 -37.2000008 -26.9799996 -10.2600002 0 0 0 0 12 2 0 0 0 12.1603108
2234 5 -30.0200005 -22.6599999 -33.3100014 0 0 0 3 6 5 0 0 0 12.5319681
2238 4 -26.4300003 -11.9499998 -14.1800003 0 0 0 0 12 0 0 0 0 11.6022101
2243 2 -14.5900002 -25.6299992 -15.6899996 0 0 1 0 11 1 0 0 0 11.4133158
2246 4 -27.2900009 -7.3520002 -4.836 0 0 0 0 12 2 0 0 0 12.4379931
2247 2 -16.5200005 -25.5499993 -18.9699994 0 0 0 2 8 2 0 0 0 10.8737888
2256 4 -15.3000002 -15.7200003 -41.7400017 0 0 0 0 12 4 0 0 0 13.9035654
2266 2 -9.8199997 -3.6440001 -25.1800003 0 0 0 3 6 4 0 0 0 11.6687775
2270 5 -22.2399998 -20.5900002 -35.2700005 0 0 1 1 9 3 0 0 0 12.936556
2272 4 -21.1900005 -24.1100006 -39.1899986 0 0 0 1 10 2 0 0 0 12.2381792
2277 5 -11.4600001 -28.0 -42.0800018 0 0 1 1 9 2 2 0 0 11.7217675
2278 4 -38.3699989 -35.6399994 -37.5200005 0 0 0 2 8 3 0 0 0 12.4137364
2282 4 -29.2900009 -37.4900017 -6.02 0 0 0 2 8 4 0 0 0 12.408164
2287 4 -27.0499992 -6.862 -15.5900002 0 0 0 1 10 3 0 0 0 12.4002066
2288 4 -17.8099995 -2.3080001 -22.3899994 0 0 0 1 10 2 0 0 0 12.8591186
2294 4 -27.6299992 -5.1789999 -37.8300019 0 0 0 0 12 2 0 0 0 11.8640796
2295 5 -21.0799999 -26.6499996 -39.6500016 0 0 0 1 12 2 0 0 0 12.1990433
2298 4 -19.4300003 -21.5 -15.2399998 0 0 0 3 8 3 0 0 0 12.0807085
2309 4 -16.0499992 -11.0100002 -24.2399998 0 0 0 2 9 1 1 1 0 12.8726158
2315 2 -36.7700005 -38.8899994 -21.1100006 0 0 0 0 12 0 0 0 0 11.8307572
2322 1 -24.8199997 -13.8000002 -11.3800001 0 0 1 3 4 3 1 0 0 11.1130123
2346 5 -11.8999996 -20.1800003 -38.1399994 0 0 0 1 10 2 0 0 0 11.8628702
2347 4 -30.2199993 -1.984 -1.194 0 0 0 3 6 4 0 0 0 12.0882816
2388 4 -21.0799999 -30.0400009 -8.1269999 0 0 0 1 10 4 0 0 0 12.9130546
2394 2 -20.7299996 -6.052 -6.8800002 0 0 1 3 5 5 0 0 0 11.5982027
2412 5 -31.8299999 -37.25 -9.5019999 0 0 2 0 8 2 2 0 0 12.0468082
2414 1 -14.8100004 -38.0900002 -7.896 0 0 0 0 12 0 0 0 0 11.0575352
2446 5 -10.8500004 -10.6300001 -18.9099998 0 0 0 1 10 2 0 0 0 11.5691214
2457 1 -33.9700012 -40.6599999 -12.7600003 0 0 0 1 10 2 0 0 0 11.7520132
2464 4 -17.75 -34.9599992 -14.4700003 0 0 0 0 12 0 0 0 0 10.8979006
2479 4 -12.4300003 -3.5639999 -8.3369999 0 0 0 0 12 2 0 0 0 12.3894854
2507 2 -26.3899994 -39.9599992 -32.9300004 0 0 1 1 9 3 0 0 0 12.8449708
2509 4 -17.8899994 -11.4799996 -41.25 0 0 0 4 4 5 0 0 0 12.3712158
2515 4 -17.4400006 -0.3852 -10.0299997 0 0 0 3 8 4 0 0 0 12.4094763
2529 4 -35.3199997 -15.5799999 -37.5699997 0 0 0 2 10 1 0 0 0 11.4541531
2536 5 -18.6499996 -3.603 -26.2000008 0 0 0 1 10 2 0 0 0 12.4187908
2545 2 -17.9300004 -20.7199993 -37.8199997 0 0 0 0 12 0 0 0 0 10.921198
2570 2 -19.6299992 -28.4799996 -38.3100014 0 0 0 0 12 0 0 0 0 11.3472252
2574 4 -28.8400002 -1.04 -26.2800007 0 0 0 3 6 6 0 0 0 12.2190838
2585 3 -31.5300007 -4.9629998 -3.3599999 0 0 1 2 7 5 0 0 0 12.6245213
2593 4 -17.6800003 -29.6299992 -39.2099991 0 0 0 1 10 3 0 0 0 11.9928894
2597 5 -36.9199982 -32.9199982 -21.2299996 0 0 0 0 12 0 0 0 0 11.2877455
2614 4 -27.9799996 -15.0500002 -3.046 0 0 0 4 6 3 0 0 0 12.1828423
2634 2 -21.9099998 -31.9599992 -9.5080004 0 0 0 3 6 5 0 0 0 12.0896406
2635 2 -28.4099999 -19.0400009 -4.1880002 0 0 0 2 10 0 0 0 0 11.1521902
2646 5 -14.4700003 -29.8099995 -10.5500002 0 0 0 0 12 2 0 0 0 12.2018871
2649 4 -37.9399986 -40.5999985 -4.6009999 0 0 0 2 10 1 0 0 0 12.8278361
2659 2 -28.4500008 -22.7700005 -24.8400002 0 0 0 3 6 4 0 0 0 11.3551502
2665 5 -20.6700001 -19.5599995 -41.5900002 0 0 1 3 6 4 1 0 0 13.0246315
2667 4 -34.5400009 -22.9500008 -13.1800003 0 0 0 3 8 4 0 0 0 12.6318789
2690 4 -20.0599995 -2.214 -4.751 0 0 0 3 8 1 0 0 0 11.6485462
2694 4 -18.2900009 -32.7400017 -32.75 0 0 0 1 10 3 0 0 0 12.8937712
2713 2 -26.8899994 -20.1800003 -41.9199982 0 0 0 4 6 4 0 0 0 12.5306454
2717 2 -23.3799992 -25.0900002 -39.6399994 0 0 0 2 10 1 0 0 0 12.3007374
2731 4 -34.3499985 -35.1100006 -18.2600002 0 0 0 2 9 3 1 0 0 13.6199475
2749 4 -11.87 -16.0900002 -38.0499992 0 0 0 6 6 4 0 0 0 13.1152649
2764 2 -24.3899994 -34.75 -2.069 0 0 0 0 12 0 0 0 0 11.3614855
2766 4 -23.3899994 -23.5799999 -26.5499993 0 0 0 3 6 4 0 0 0 11.2894659
2769 4 -19.0499992 -30.5900002 -15.1099997 0 0 1 1 8 3 1 0 0 12.3762102
2778 4 -15.6099997 -29.4200001 -17.3500004 0 0 1 1 8 3 1 0 0 12.8320284
2800 5 -29.5900002 -43.0999985 -8.2700005 0 0 0 3 6 5 0 0 0 10.8925124
2802 5 -28.9500008 -26.4300003 -13.2100001 0 0 0 2 10 2 0 0 0 12.6154623
2818 4 -31.3899994 -15.1599999 -17.8400002 0 0 0 4 7 2 0 0 0 11.9651986
2823 2 -19.6599999 -29.9599992 -17.3500004 0 0 1 2 6 2 1 0 0 10.8435202
2825 5 -16.8099995 -9.2410002 -20.25 0 0 0 1 10 2 0 0 0 11.2815304
2832 4 -25.7999993 -1.658 -1.2690001 0 0 0 2 8 6 0 0 0 13.217536
2834 5 -21.7000008 -31.9799996 -12.0799999 0 0 0 4 6 4 0 0 0 12.2109137
2836 4 -21.3099995 -14.1499996 -26.4300003 0 0 0 3 8 4 0 0 0 12.7102185
2839 5 -28.3199997 -16.1700001 -0.6744 0 0 1 3 5 5 0 0 0 11.9647132
2863 5 -24.4099999 -35.1399994 -38.1800003 0 0 0 0 12 3 0 0 0 13.2495661
2878 2 -14.29 -18.0300007 -14.5100003 0 0 0 3 6 3 0 0 0 11.8194924
2884 2 -16.7099991 -32.75 -19.0 0 0 0 0 12 0 0 0 0 11.2841692
2910 4 -24.9799996 -0.8032 -23.8500004 0 0 0 2 10 3 0 0 0 13.3757668
2954 5 -19.9099998 -35.4199982 -38.8300019 0 0 0 0 12 2 0 0 0 12.3684902
2956 2 -18.1100006 -32.1899986 -28.3999996 0 0 2 1 8 1 2 0 0 11.9446784
2963 4 -31.5200005 -6.6630001 -41.0099983 0 0 0 1 10 4 0 0 0 13.0086117
2973 4 -36.75 -19.25 -29.4500008 0 0 0 3 6 4 0 0 0 11.833725
2979 4 -25.75 -32.6899987 -0.9011 0 0 0 0 12 3 0 0 0 12.7450695
2992 4 -34.5699997 -2.3369999 -37.2099991 0 0 1 3 5 5 2 0 0 13.4523592
2998 2 -34.0999985 -37.8400002 -9.283 0 0 1 2 6 3 1 0 0 11.4713669
3012 4 -37.5299988 -28.8500004 -3.919 0 0 0 1 10 5 0 0 0 13.1111755
3014 5 -14.4200001 -2.975 -30.2600002 0 0 0 2 8 5 0 0 0 13.0590591
3025 5 -13.7100001 -9.2250004 -36.4799996 0 0 0 2 10 2 0 0 0 12.3272572
3032 4 -36.8499986 -35.1100006 -17.8600006 0 0 0 1 10 2 0 0 0 12.258524
3049 4 -30.8199997 -13.4799996 -36.7400017 0 0 0 2 8 4 0 0 0 12.45679
3056 5 -12.4399996 -32.4300003 -12.8199997 0 0 0 4 4 6 0 0 0 12.0382242
3059 4 -25.4500008 -30.0300007 -15.0500002 0 0 0 2 12 1 0 0 0 13.3021717
3072 4 -20.2199993 -13.79 -33.3400002 0 0 0 1 10 4 0 0 0 12.7770729
3076 2 -30.6800003 -10.3999996 -43.2900009 0 0 0 0 12 3 0 0 0 12.7549382
3095 4 -25.6100006 -16.0599995 -21.0200005 0 0 0 3 6 2 2 0 0 11.9145948
3096 2 -33.5200005 -31.4599991 -41.0499992 0 0 0 2 8 2 2 0 0 12.6366797
3100 2 -17.8199997 -43.3100014 -17.5499993 0 0 0 0 12 2 0 0 0 12.5859814
3104 1 -19.8600006 -9.9239998 -37.5699997 0 0 0 2 8 4 0 0 0 11.8613998
3117 2 -26.5 -3.118 -17.9799996 0 0 0 3 8 2 0 0 0 12.2595635
3134 5 -32.6899987 -16.6299992 -41.4500008 0 0 0 3 7 3 1 0 0 12.3369227
3146 4 -12.1999998 -19.1700001 -14.29 0 0 0 0 12 2 0 0 0 12.311595
3159 5 -32.5400009 -34.5999985 -21.3199997 0 0 0 3 5 3 1 0 0 11.6492319
3188 5 -13.9200002 -22.6299992 -21.9799996 0 0 0 3 6 4 0 0 0 11.755764
3193 5 -31.8799992 -35.3899994 -3.763 0 0 0 0 12 0 0 0 0 10.8319884
3200 2 -11.6999998 -2.7660001 -29.5400009 0 0 0 0 12 0 0 0 0 10.6700993
3201 4 -12.4700003 -29.5100003 -26.2600002 0 0 0 1 10 2 0 0 0 11.876999
3202 5 -22.7299996 -35.9099998 -12.3599997 0 0 0 3 6 6 0 0 0 12.5645666
3218 2 -28.0499992 -2.96 -9.7650004 0 0 0 3 6 4 0 0 0 11.8977976
3224 4 -15.4099999 -30.6100006 -0.8439 0 0 1 3 4 4 1 0 0 12.0782518
3234 4 -22.2399998 -25.3299999 -0.8528 0 0 0 2 10 1 0 0 0 11.6526327
3240 5 -27.1700001 -20.5300007 -39.2400017 0 0 0 3 6 5 0 0 0 12.1628866
3246 4 -15.3800001 -15.4700003 -24.9899998 0 0 0 3 8 4 0 0 0 12.994732
3247 5 -32.8800012 -7.6279998 -6.5739999 0 0 0 3 7 4 1 0 0 12.4838515
3262 5 -13.3599997 -38.5299988 -36.4900017 0 0 1 1 8 3 1 0 0 11.6458798
3263 5 -15.9899998 -27.8199997 -32.5200005 0 0 0 2 9 3 1 0 0 13.641326
3268 4 -23.1700001 -3.276 -15.4399996 0 0 0 4 7 3 1 0 0 12.3925057
3294 4 -19.6000004 -43.75 -4.1570001 0 0 1 2 7 2 2 0 0 12.2995634
3308 5 -12.3900004 -13.5799999 -15.1700001 0 0 1 5 5 3 0 0 0 12.5968495
3320 2 -24.5200005 -36.9799996 -40.4099999 0 0 0 0 12 0 0 0 0 11.6041756
3321 4 -27.8700008 -42.3899994 -19.8500004 0 0 0 1 10 2 0 0 0 12.6780958
3328 5 -16.4300003 -42.8800012 -8.5629998 0 0 0 0 12 2 0 0 0 12.1145849
3334 4 -38.4500008 -27.8400002 -28.2700005 0 0 2 3 5 5 1 0 0 12.7066241
3335 2 -11.5 -9.5880003 -14.4300003 0 0 0 1 10 2 0 0 0 11.909893
3336 4 -22.1900005 -13.79 -28.7700005 0 0 0 1 10 2 0 0 0 11.8141537
3340 4 -26.2800007 -28.7000008 -41.1100006 0 0 1 2 7 4 0 0 0 12.2054014
3373 2 -16.5400009 -17.8600006 -24.3400002 0 0 1 3 7 2 2 0 0 12.2919636
3376 5 -19.6800003 -38.5400009 -25.1599999 0 0 0 3 8 2 0 0 0 12.0842686
3378 1 -16.6900006 -2.7490001 -40.2900009 0 0 0 2 8 0 0 0 0 10.7422257
3390 4 -15.6499996 -11.9399996 -12.3699999 0 0 0 1 10 4 0 0 0 12.9956722
3403 2 -34.1300011 -41.5800019 -9.0080004 0 0 0 0 12 0 0 0 0 11.1276083
3405 5 -34.6899987 -1.824 -17.6299992 0 0 1 3 4 5 1 0 0 12.92548
3415 2 -25.8199997 -39.2400017 -18.8299999 0 0 1 0 9 3 0 0 0 11.2292204
3431 2 -12.7399998 -24.0 -19.7399998 0 0 1 4 3 4 2 0 0 11.992938
3466 2 -30.4099999 -22.6000004 -35.8499986 0 0 0 1 10 2 0 0 0 12.1333008
3481 4 -17.0 -28.3299999 -26.1100006 0 0 0 1 10 4 0 0 0 12.8407002
3494 4 -17.9599992 -40.0200005 -42.5900002 0 0 0 1 10 3 0 0 0 12.5220175
3508 4 -14.0600004 -25.3099995 -5.3439999 0 0 0 1 10 2 0 0 0 12.6895542
3511 5 -24.9099998 -16.9200002 -36.5099983 0 0 0 0 12 5 0 0 0 14.7031336
3524 5 -27.0300007 -27.7999993 -31.1700001 0 0 1 4 3 4 2 0 0 12.2710924
3534 4 -14.1300001 -9.5089998 -41.9700012 0 0 1 3 7 4 0 0 0 12.5501404
3565 4 -29.7999993 -36.5900002 -18.8400002 0 0 0 0 12 0 0 0 0 11.4990464
3594 4 -13.1400003 -30.1499996 -13.1499996 0 0 0 2 8 5 0 0 0 12.5121479
3623 5 -12.3299999 -25.5799999 -12.5500002 0 0 0 1 10 2 0 0 0 11.7650833
3645 4 -18.2099991 -7.1999998 -16.25 0 0 0 3 6 5 0 0 0 12.2629042
3647 4 -20.3299999 -26.4599991 -24.0400009 0 0 1 0 9 3 0 0 0 12.6004706
3671 5 -9.7729998 -4.4260001 -9.0860004 0 0 0 1 10 3 0 0 0 12.0172453
3691 4 -33.0600014 -23.1399994 -6.2100001 0 0 0 1 10 3 0 0 0 11.9974012
3726 2 -31.5300007 -19.5799999 -6.4559999 0 0 0 4 6 2 0 0 0 11.7369681
3729 2 -18.4500008 -17.25 -6.5970001 0 0 0 2 10 2 0 0 0 11.8130417
3747 2 -36.4099999 -18.9300004 -9.698 0 0 1 0 9 3 0 0 0 11.6724034
3750 5 -26.0599995 -26.6299992 -12.87 0 0 0 2 9 3 1 0 0 12.7389193
3753 5 -15.04 -26.6100006 -27.4599991 0 0 0 1 10 2 0 0 0 11.7559109
3761 4 -18.0699997 -6.868 -9.6129999 0 0 0 1 12 1 0 0 0 11.8819476
3771 4 -25.8600006 -31.8600006 -12.8199997 0 0 0 0 12 2 0 0 0 13.1932831
3779 2 -24.5300007 -15.8000002 -8.4020004 0 0 0 2 8 2 0 0 0 11.5567942
3789 5 -34.5600014 -29.0499992 -13.4700003 0 0 1 3 5 4 2 0 0 12.2287912
3825 1 -24.3700009 -32.5699997 -10.7600003 0 0 1 2 7 3 0 0 0 11.1651383
3829 2 -25.3299999 -24.0900002 -41.1699982 0 0 0 3 8 1 0 0 0 11.8802386
3838 5 -38.9900018 -34.9599992 -42.5800019 0 0 0 2 12 0 0 0 0 12.6136866
3843 2 -35.7999993 -16.4899998 -13.5699997 0 0 0 0 12 0 0 0 0 10.8142987
3845 5 -15.9899998 -25.1800003 -11.1400003 0 0 0 0 12 0 0 0 0 11.02143
3850 5 -38.7099991 -40.0400009 -27.0699997 0 0 0 2 8 4 0 0 0 12.3097086
3853 1 -12.3900004 -41.7700005 -16.4099999 0 0 0 2 8 3 0 0 0 11.6264067
3855 2 -10.3900004 -18.1200008 -9.5760002 0 0 1 3 7 2 0 0 0 11.894207
3865 5 -20.2000008 -39.4500008 -31.4400006 0 0 0 3 8 2 0 0 0 12.0079689
3881 2 -30.6100006 -27.7800007 -11.6499996 0 0 1 2 7 4 0 0 0 12.2246885
3889 2 -12.9499998 -21.8899994 -13.7799998 0 0 0 2 10 1 0 0 0 12.004137
3890 4 -13.6499996 -27.7299996 -16.8299999 0 0 0 1 10 4 0 0 0 12.7972193
3898 4 -19.9200002 -32.5400009 -16.9099998 0 0 0 2 10 2 0 0 0 12.2133284
3902 4 -30.0900002 -19.4200001 -17.1900005 0 0 0 1 10 3 0 0 0 11.8219862
3908 5 -15.1000004 -37.4300003 -25.9500008 0 0 0 0 12 4 0 0 0 13.094964
3909 4 -11.6199999 -12.2600002 -28.0900002 0 0 0 1 10 2 0 0 0 12.1882439
3923 5 -32.1500015 -2.869 -12.3900004 0 0 2 2 6 2 2 0 0 12.0504103
3945 5 -18.7900009 -36.5099983 -22.1900005 0 0 0 4 4 6 0 0 0 12.7477684
3953 4 -37.0800018 -12.54 -33.6300011 0 0 0 3 6 4 0 0 0 11.285594
3970 5 -13.8000002 -16.3899994 -6.5520001 0 0 0 1 10 2 0 0 0 11.4137402
3975 2 -36.4599991 -21.0 -13.6400004 0 0 0 2 8 4 0 0 0 11.4653473
3981 5 -14.1599999 -34.0400009 -13.0600004 0 0 1 0 9 3 0 0 0 11.1072359
4008 4 -33.4099999 -33.9300004 -12.3999996 0 0 1 1 9 3 2 0 0 12.7257414
4021 2 -24.1599999 -42.7799988 -22.9400006 0 0 1 2 7 2 0 0 0 11.4290095
4052 3 -19.5499993 -7.4120002 -36.4300003 0 0 1 3 4 5 1 0 0 12.4822703
4075 4 -12.1300001 -16.5799999 -32.7299996 0 0 0 2 8 6 0 0 0 13.1445837
4083 4 -10.7299996 -0.6806 -43.2299996 0 0 0 0 12 0 0 0 0 11.8389722
4094 3 -24.4099999 -20.9099998 -15.4399996 0 0 0 2 8 4 0 0 0 11.9906484
4121 4 -30.4300003 -27.8999996 -40.1199989 0 0 0 0 12 3 0 0 0 13.2587013
4123 5 -19.8600006 -35.5999985 -10.96 0 0 0 3 7 2 1 0 0 11.6803341
4132 2 -32.5900002 -9.9110004 -23.3999996 0 0 0 0 12 0 0 0 0 11.5528889
4147 4 -16.2299996 -24.2800007 -16.6800003 0 0 0 1 12 2 0 0 0 12.6352215
4153 4 -10.87 -19.9400006 -17.7000008 0 0 0 1 10 5 0 0 0 13.3725052
4158 5 -27.2099991 -29.1499996 -20.8299999 0 0 0 3 6 1 1 0 0 11.1947699
4164 5 -14.6199999 -38.3100014 -38.4900017 0 0 0 2 8 2 0 0 0 11.4201775
4166 5 -18.3099995 -43.1399994 -6.6170001 0 0 0 1 9 2 1 0 0 11.7497187
4170 2 -12.8800002 -4.8130002 -29.2000008 0 0 0 0 12 0 0 0 0 11.2852078
4175 2 -31.8899994 -28.5400009 -29.1900005 0 0 0 4 6 4 0 0 0 12.5097914
4185 4 -19.1100006 -30.8999996 -36.9000016 0 0 0 2 10 2 2 0 0 13.1792402
4196 4 -17.1900005 -24.2099991 -31.0599995 0 0 0 0 12 0 0 0 0 11.3834696
4218 4 -34.7700005 -24.2800007 -27.2000008 0 0 0 3 8 1 0 0 0 11.8575344
4233 4 -24.2399998 -15.1199999 -13.3299999 0 0 0 4 4 3 2 0 0 12.8057814
4234 4 -21.7700005 -34.9399986 -0.6806 0 0 0 0 12 4 0 0 0 13.6908226
4240 4 -37.7200012 -30.6499996 -21.8099995 0 0 1 0 13 1 0 0 0 12.3534632
4256 5 -25.5300007 -41.6899987 -20.0900002 0 0 1 3 4 7 1 0 0 13.589571
4279 4 -28.5400009 -37.6399994 -14.8000002 0 0 0 0 12 3 0 0 0 13.3402367
4288 4 -35.0499992 -35.1899986 -35.0800018 0 0 1 0 11 1 0 0 0 11.7632227
4291 2 -20.6499996 -40.7999993 -42.8400002 0 0 0 2 10 1 0 0 0 11.3523321
4309 2 -30.0 -4.1700001 -5.5510001 0 0 0 0 12 0 0 0 0 11.2420683
4329 5 -33.25 -16.9300004 -37.0099983 0 0 0 3 6 2 2 0 0 12.1582108
4363 4 -34.4700012 -18.3400002 -21.8899994 0 0 0 2 8 4 0 0 0 11.7526884
4375 5 -19.1900005 -43.0800018 -11.7399998 0 0 1 0 11 2 0 0 0 11.7705317
4409 4 -33.4599991 -19.0699997 -33.7999993 0 0 0 3 10 1 0 0 0 12.5666533
4415 5 -16.5200005 -36.0900002 -15.96 0 0 0 2 8 4 0 0 0 11.9272242
4429 4 -31.5900002 -21.5100003 -40.6899987 0 0 0 3 8 3 0 0 0 12.1394968
4437 4 -19.8799992 -20.3099995 -34.2000008 0 0 0 1 10 2 0 0 0 12.1245089
4438 4 -15.6599999 -0.6115 -15.5100003 0 0 0 0 12 0 0 0 0 11.279727
4441 2 -32.5400009 -21.7000008 -21.8099995 0 0 1 2 8 1 1 1 0 12.073678
4458 4 -20.9500008 -31.0799999 -41.5999985 0 0 1 2 7 4 2 0 0 13.1939554
4461 2 -21.5699997 -17.2099991 -16.7099991 0 0 0 0 12 0 0 0 0 10.6079369
4527 4 -20.7800007 -32.8499986 -2.128 0 0 0 1 10 4 0 0 0 12.1564922
4545 4 -21.0699997 -24.2199993 -22.8700008 0 0 0 3 5 5 1 0 0 12.2845364
4564 2 -35.4300003 -3.904 -35.3300018 0 0 0 3 7 1 0 0 0 11.3230877
4565 5 -13.2100001 -39.3899994 -25.6800003 0 0 0 1 10 2 0 0 0 11.8597822
4573 2 -21.2900009 -5.7270003 -35.7999993 0 0 0 1 10 2 0 0 0 12.4122076
4579 4 -30.7600003 -20.6000004 -37.2099991 0 0 0 4 6 5 0 0 0 12.5679827
4600 4 -22.2000008 -18.3500004 -26.8799992 0 0 0 0 12 2 0 0 0 12.7798367
4606 2 -25.1000004 -1.619 -37.8499986 0 0 1 3 5 5 0 0 0 12.2495899
4615 2 -35.0499992 -20.0200005 -36.9599992 0 0 0 3 6 4 0 0 0 11.5492125
4624 4 -27.8500004 -36.2000008 -16.9099998 0 0 0 1 10 4 0 0 0 13.2103901
4645 2 -24.6200009 -2.7609999 -27.8799992 0 0 0 0 12 0 0 0 0 11.2784233
4649 1 -25.0200005 -39.5499993 -3.0799999 0 0 0 4 6 2 0 0 0 10.7900896
4655 4 -26.5400009 -6.1770001 -40.4300003 0 0 0 0 12 2 0 0 0 11.9702282
4657 4 -29.4300003 -12.7200003 -16.9400006 0 0 0 2 8 5 0 0 0 12.7808056
4665 5 -31.4200001 -26.9599992 -33.0 0 0 1 2 9 2 2 0 0 13.2404289