ITEM: TIMESTEP
0
ITEM: NUMBER OF ATOMS
50688
ITEM: BOX BOUNDS xy xz yz pp pp pp
-20.3673 72.5241089 12.6118078
-22.2210007 65.3610001 0.0
-22.2210007 65.3610001 0.0
ITEM: ATOMS id type x y z VoronoiIndex1 VoronoiIndex2 VoronoiIndex3 VoronoiIndex4 VoronoiIndex5 VoronoiIndex6 VoronoiIndex7 VoronoiIndex8 VoronoiIndex9 AtomicVolume
7 2 -14.0600004 -13.6099997 -3.0669999 0 0 0 1 10 2 0 0 0 11.9587766
21 2 -15.3299999 1.54 15.1700001 0 0 0 2 8 1 0 0 0 11.4966679
26 5 -18.1499996 -17.0100002 -9.0109997 0 0 0 1 10 4 0 0 0 12.7702618
28 2 3.016 6.0929999 -10.9799996 0 0 0 2 10 2 0 0 0 12.2561131
36 2 8.7869997 -14.6099997 -19.3600006 0 0 0 2 10 0 0 0 0 11.607625
38 5 5.2740002 -11.5100003 16.8099995 0 0 0 1 10 3 0 0 0 12.7991543
42 2 8.2200003 -3.4660001 -21.6800003 0 0 0 0 12 0 0 0 0 10.7319308
43 5 -1.653 12.54 10.6199999 0 0 0 3 6 5 0 0 0 12.4247265
50 2 10.4899998 -3.4360001 -22.1100006 0 0 1 2 6 2 1 0 0 11.6424971
61 4 -14.3699999 -8.1639996 -3.9170002 0 0 0 0 12 2 0 0 0 13.0913324
98 2 -0.07513 -8.4820004 18.8799992 0 0 0 0 12 0 0 0 0 10.3885832
128 5 -13.5500002 6.7800002 -10.6999998 0 0 0 1 10 2 0 0 0 12.3680067
146 4 1.74 9.1999998 -11.5799999 0 0 0 4 7 3 1 0 0 12.862815
150 2 -15.3299999 6.56 8.5839997 0 0 0 2 8 1 0 0 0 10.6608248
171 2 3.5669999 -0.7515 -2.9130002 0 0 0 2 10 1 0 0 0 11.8599912
176 5 7.928 -20.6000004 11.6599999 0 0 0 2 8 4 0 0 0 11.9969102
177 5 14.4600001 14.6400004 -19.9899998 0 0 0 0 12 2 0 0 0 12.1141472
181 5 -10.0299997 -11.2100001 5.7659998 0 0 0 0 12 0 0 0 0 11.0630531
191 5 -13.5699997 5.921 -13.4200001 0 0 0 3 8 3 0 0 0 12.7021561
203 5 21.4500008 -4.2340002 -2.8050001 0 0 0 3 6 5 0 0 0 12.0410995
216 2 13.4499998 16.1900005 11.2299996 0 0 0 1 10 2 0 0 0 11.9973508
219 4 8.415 -2.783 15.8999996 0 0 3 0 7 2 2 1 0 12.0069332
220 2 -4.8060003 17.5900002 -6.0469999 0 0 0 3 6 4 0 0 0 11.4898243
231 4 -16.3299999 2.5409999 7.125 0 0 1 4 6 3 1 0 0 12.1687832
240 2 0.5723 10.79 6.1230002 0 0 0 3 8 3 0 0 0 11.7685271
241 2 22.6499996 12.5699997 -2.1370001 0 0 0 1 12 2 0 0 0 13.7865
243 4 8.1520004 17.6299992 -2.4089999 0 0 1 1 9 3 0 0 0 12.4409886
244 5 -10.5500002 -12.5600004 -20.75 0 0 0 1 10 3 0 0 0 13.130126
245 1 14.6800003 -17.6599999 5.672 0 0 0 4 4 5 0 0 0 11.7436972
249 4 -9.2019997 -6.1230002 18.8099995 0 0 0 0 12 3 0 0 0 12.8664456
262 2 -0.739 3.1170001 9.3710003 0 0 0 3 6 5 0 0 0 12.522975
263 1 -10.3999996 -2.546 -15.96 0 0 0 3 8 2 0 0 0 12.2410813
266 5 15.2399998 -18.0499992 16.6100006 0 0 1 2 7 4 0 0 0 12.1515036
277 4 -16.4699993 -0.7686 -7.2709999 0 0 0 1 10 2 0 0 0 11.99998
283 5 -3.8150001 10.4200001 -11.0299997 0 0 0 0 12 0 0 0 0 11.160636
295 4 25.9699994 21.4099999 3.927 0 0 3 4 5 2 2 1 0 13.8217697
298 4 -5.3010001 17.3600006 3.2809999 0 0 0 0 12 2 0 0 0 12.4391775
301 1 -12.1099997 19.4300003 20.1399994 0 0 0 2 8 2 0 0 0 10.8773174
311 5 -11.9200002 14.25 -4.349 0 0 0 3 7 4 1 0 0 12.9752388
318 5 -5.6020003 -14.3599997 -6.1300001 0 0 1 3 7 2 0 0 0 12.38939
322 4 -11.9700004 -8.4650002 3.286 0 0 0 0 12 2 0 0 0 12.2734156
336 4 -13.3999996 -16.3500004 -2.3350001 0 0 0 2 8 4 0 0 0 12.497613
362 5 -12.0299997 -9.6870003 -3.954 0 0 0 1 10 3 0 0 0 12.911604
370 5 -18.3600006 -16.9099998 -11.4799996 0 0 0 0 12 2 0 0 0 12.5207768
372 5 7.8109999 -19.8700008 3.853 0 0 0 2 8 2 0 0 0 11.1184664
377 5 -4.4910002 15.8999996 -1.128 0 0 0 1 10 4 0 0 0 13.334384
398 1 -4.8800002 0.5493 -1.492 0 0 0 1 10 2 0 0 0 11.4463845
409 2 20.9500008 -3.856 -17.4500008 0 0 0 0 12 0 0 0 0 11.4057636
416 2 -11.6499996 -21.2199993 -11.5200005 0 0 0 4 6 4 0 0 0 12.0873327
428 4 19.5200005 -6.5840001 4.862 0 0 1 2 6 3 1 0 0 11.8744688
431 2 -4.8779998 19.9300004 -19.6700001 0 0 0 3 6 4 0 0 0 11.938347
442 4 -0.5453 -20.7000008 -12.2399998 0 0 0 1 12 2 0 0 0 13.1663313
452 4 -16.25 -21.8899994 -20.3700009 0 0 0 0 12 0 0 0 0 11.215229
482 4 3.7490001 -0.3265 -19.5 0 0 0 3 6 4 2 0 0 12.7643776
506 4 -5.6399999 -0.1755 16.7199993 0 0 0 1 10 2 0 0 0 12.1819391
527 5 7.6950002 -5.1729999 4.4569998 0 0 0 4 4 6 0 0 0 11.7510987
531 5 18.9699994 6.428 12.4300003 0 0 0 1 10 2 0 0 0 11.7006712
537 2 2.6570001 17.2700005 4.868 0 0 1 3 7 4 0 0 0 12.474309
539 2 -2.1930001 -21.7199993 -16.2800007 0 0 1 3 5 4 0 0 0 11.6457205
548 4 -2.9630002 -8.1120005 1.3530001 0 0 1 0 9 3 0 0 0 11.9879952
553 4 7.0879998 4.836 -21.3500004 0 0 1 2 5 5 0 0 0 11.4789486
559 4 13.25 6.7340002 -21.9500008 0 0 0 2 8 5 0 0 0 13.3215017
561 4 5.843 15.1000004 -5.9889998 0 0 0 2 10 4 0 0 0 13.4424696
564 4 -5.5840001 4.2160001 -12.0100002 0 0 0 3 7 3 1 0 0 12.1130247
569 2 6.4590001 -3.3080001 4.4899998 0 0 0 3 6 4 0 0 0 11.7225304
570 4 -18.9699994 -20.4200001 -5.87 0 0 1 3 7 2 0 0 0 11.6611195
571 5 -15.3800001 4.7919998 7.243 0 0 0 3 6 4 0 0 0 11.8206158
587 5 19.6599999 17.1399994 16.0300007 0 0 0 2 8 2 0 0 0 11.2301388
597 2 -3.5539999 -17.2399998 -13.4499998 0 0 0 2 8 3 0 0 0 11.4138889
613 5 13.8900004 -5.2360001 -1.509 0 0 0 5 2 6 0 0 0 11.6758833
618 2 -1.589 6.3189998 -12.5299998 0 0 0 1 10 2 0 0 0 11.7168017
623 4 17.6299992 17.7900009 5.1750002 0 0 0 1 10 5 0 0 0 13.5030489
638 5 -14.8000002 -8.7580004 9.3669996 0 0 0 2 7 3 1 0 0 11.6999855
643 5 -12.9899998 3.9820002 1.8120001 0 0 1 1 9 2 0 0 0 11.7682514
645 5 -11.0100002 16.7999993 5.547 0 0 1 3 5 3 2 0 0 12.0377827
649 4 16.6399994 -18.9500008 8.9130002 0 0 0 0 12 2 0 0 0 12.3747053
654 4 1.4040001 -16.8799992 1.275 0 0 0 2 8 4 0 0 0 12.7212229
657 4 20.0400009 -10.8199997 15.9799996 0 0 1 2 9 3 0 0 0 12.7212601
671 2 0.1744 -9.7600003 9.2460003 0 0 0 0 12 0 0 0 0 11.4678984
672 2 22.9500008 20.9099998 -17.1800003 0 0 0 1 10 2 0 0 0 11.4245062
681 2 -14.0100002 21.0799999 -9.2860003 0 0 1 3 5 4 0 0 0 11.2558289
699 5 15.9700004 3.1989999 3.458 0 0 0 2 8 4 0 0 0 12.5165568
701 4 20.7299996 -0.8693 19.9599992 0 0 0 1 10 4 0 0 0 12.6600981
726 5 17.3799992 -8.217 8.6459999 0 0 0 0 12 2 0 0 0 12.4268122
727 5 -8.8979998 -20.8299999 21.2000008 0 0 0 3 7 3 1 0 0 12.8552724
729 1 -1.2690001 -21.75 9.5450001 0 0 0 2 8 1 0 0 0 11.0232496
741 4 4.5089998 15.9700004 2.214 0 0 0 1 12 2 0 0 0 13.8187542
742 4 10.8299999 2.5120001 9.6929999 0 0 2 0 8 4 0 0 0 12.4053087
745 4 4.6430002 21.25 -21.0599995 0 0 1 0 9 3 0 0 0 12.1689224
755 5 12.6800003 -14.5699997 -18.0300007 0 0 0 3 8 4 0 0 0 12.1322537
758 2 5.8150001 10.4200001 14.3699999 0 0 0 2 10 1 0 0 0 11.4628763
760 1 8.1719999 9.1040001 -16.7800007 0 0 0 1 10 2 0 0 0 11.4587298
762 5 16.9699994 -5.5029998 -7.8200002 0 0 0 3 10 3 0 0 0 13.1692762
765 1 -2.626 12.9899998 -21.5699997 0 0 0 2 10 3 0 0 0 12.9808446
809 2 24.6599999 20.3600006 -0.361 0 0 0 2 8 4 0 0 0 12.2043238
818 5 6.1069999 9.2329998 6.1529999 0 0 0 0 12 3 0 0 0 13.9729004
842 5 9.4130001 1.031 -6.2820001 0 0 0 3 6 4 0 0 0 12.3889847
849 4 -2.868 3.1340001 10.87 0 0 1 4 4 5 1 0 0 12.0865412
850 5 6.863 17.6499996 -18.0300007 0 0 0 1 10 5 0 0 0 13.6388645
882 3 -6.737 16.8099995 16.6399994 0 0 1 4 5 3 0 0 0 12.2229443
899 4 -3.949 -9.4200001 -0.5436 0 0 0 0 12 2 0 0 0 12.2448273
901 4 2.092 17.8600006 -1.513 0 0 0 2 10 5 0 0 0 13.6320057
915 5 -7.8239999 -22.2000008 -3.86 0 0 0 3 10 1 0 0 0 13.0023298
926 5 -2.036 7.421 8.5930004 0 0 0 0 12 3 0 0 0 12.9887896
936 1 2.727 12.75 -15.4200001 0 0 0 2 8 3 0 0 0 10.8909578
941 5 0.6047001 4.7589998 14.2600002 0 0 0 3 6 4 0 0 0 12.927456
946 4 -4.967 -13.7399998 20.8700008 0 0 0 0 12 2 0 0 0 11.6957865
950 3 -4.3179999 -1.927 6.355 0 0 0 2 9 3 1 0 0 13.5112295
951 5 10.04 16.1900005 -1.533 0 0 0 4 4 5 1 0 0 12.2763233
958 5 12.1300001 6.8639998 -1.7890001 0 0 0 0 12 3 0 0 0 13.4695091
961 2 -0.3702 18.3199997 -17.8099995 0 0 1 4 3 5 2 0 0 12.4696961
962 4 -9.2959995 -14.3599997 -11.4399996 0 0 0 1 10 2 0 0 0 12.472209
963 5 -11.5100003 -12.6300001 -15.29 0 0 0 3 6 4 0 0 0 11.6742678
990 4 13.0100002 17.1200008 -1.777 0 0 1 2 9 3 0 0 0 13.1180716
993 4 19.5400009 1.643 -13.1199999 0 0 0 3 6 4 0 0 0 11.9676066
995 1 -1.379 -17.2099991 13.1400003 0 0 0 0 12 2 0 0 0 12.4280911
1007 2 0.6238 -4.9299998 -2.7790001 0 0 0 0 12 0 0 0 0 11.1611166
1025 1 -0.3972 -12.9099998 11.79 0 0 0 2 8 4 0 0 0 11.485941
1027 4 15.6499996 -10.0 8.4429999 0 0 0 1 12 2 0 0 0 12.9059354
1047 4 -7.6479998 20.9500008 1.411 0 0 1 1 11 1 0 0 0 12.2945385
1050 1 -1.6640001 -10.3100004 18.7700005 0 0 0 0 12 0 0 0 0 10.998829
1051 4 7.039 15.2700005 -20.2099991 0 0 0 4 4 6 0 0 0 12.8681022
1055 2 8.1800003 4.9369998 -6.888 0 0 0 2 8 3 0 0 0 11.6570997
1057 4 10.4499998 -7.6669998 -11.9700004 0 0 0 1 10 2 0 0 0 11.8977594
1059 4 -6.8800002 12.7399998 0.921 0 0 0 2 8 2 0 0 0 11.7225886
1063 5 -12.8400002 9.8529998 9.573 0 0 0 2 8 3 0 0 0 12.4183188
1079 2 20.2099991 -14.3500004 -16.8999996 0 0 0 2 10 1 0 0 0 11.6998225
1089 4 10.2600002 -20.4300003 -16.6299992 0 0 0 0 12 3 0 0 0 12.7299729
1098 4 18.1900005 -18.9300004 20.2299996 0 0 0 1 11 2 1 0 0 13.7149105
1102 5 16.2900009 -19.4300003 -16.0300007 0 0 0 0 12 0 0 0 0 10.7398367
1110 5 -0.06246 -3.1540001 19.0200005 0 0 0 0 11 2 1 0 0 12.2703972
1118 1 12.1199999 -14.04 0.8099 0 0 0 3 8 2 0 0 0 11.5858994
1128 2 0.8622 -19.3600006 0.847 0 0 0 0 12 0 0 0 0 11.2516899
1153 5 5.006 -15.3500004 18.2199993 0 0 0 1 10 3 0 0 0 12.3505058
1159 4 1.293 -10.0900002 15.2399998 0 0 1 1 9 3 0 0 0 12.117444
1167 4 -5.0409999 20.3700009 -13.1499996 0 0 0 0 12 2 0 0 0 12.9065418
1169 2 14.8500004 2.2850001 -20.2099991 0 0 0 4 6 3 0 0 0 11.0154629
1178 2 7.2839999 3.6700001 10.7100001 0 0 0 2 8 2 0 0 0 11.1698723
1183 4 24.3099995 12.8100004 -16.3700009 0 0 1 1 9 2 0 0 0 11.4620667
1187 5 -1.763 18.2600002 -14.3199997 0 0 0 1 10 4 0 0 0 13.6016417
1188 4 12.54 16.2000008 8.4510002 0 0 1 3 9 2 0 0 0 12.5084791
1189 4 2.7839999 21.3700009 20.6299992 0 0 0 2 8 4 0 0 0 12.429122
1190 2 3.26 -17.8199997 -17.0599995 0 0 0 2 8 2 0 0 0 10.9789678
1199 4 -17.2099991 -9.6789999 -15.0299997 0 0 0 1 10 4 0 0 0 12.4292326
1214 5 -10.8199997 9.1809998 -21.9500008 0 0 1 0 10 3 1 0 0 12.9292088
1217 5 18.6599999 -10.0699997 -16.1399994 0 0 0 2 8 4 0 0 0 12.0977631
1222 1 -6.579 16.4400006 -2.3770001 0 0 0 2 8 2 0 0 0 11.2587242
1244 3 -10.96 -10.6599999 -9.2360001 0 0 0 2 10 0 0 0 0 11.4964905
1247 1 11.6800003 1.4680001 -19.25 0 0 0 2 8 4 0 0 0 11.8476944
1261 4 7.973 16.3899994 19.2700005 0 0 1 2 9 1 0 0 0 11.9331398
1264 2 11.8299999 17.75 10.3500004 0 0 0 0 12 0 0 0 0 11.4243937
1272 4 19.8400002 18.6499996 -9.4040003 0 0 0 4 5 4 0 0 0 11.6136341
1280 5 -9.2209997 1.699 -11.5 0 0 0 1 10 2 0 0 0 11.9189806
1283 4 17.8500004 2.214 12.6499996 0 0 0 1 10 2 0 0 0 11.5232067
1288 5 -12.3599997 -9.3719998 15.8500004 0 0 0 5 4 4 0 0 0 12.1915007
1293 4 19.4599991 -19.75 0.7089 0 0 1 1 9 4 0 0 0 12.5855904
1299 4 -5.5539999 -11.0200005 6.3049998 0 0 0 3 6 6 0 0 0 13.2317209
1302 4 5.7129998 -1.782 -18.9400006 0 0 0 2 10 2 0 0 0 11.960475
1303 2 -5.3439999 5.3790002 -0.04414 0 0 0 0 12 0 0 0 0 11.3285179
1305 5 9.7889996 14.5900002 4.8449998 0 0 0 3 8 4 0 0 0 12.9011136
1320 2 -11.9099998 12.5699997 12.6099997 0 0 0 2 8 2 0 0 0 11.4410248
1339 5 4.3829999 2.3039999 3.734 0 0 0 2 8 5 0 0 0 12.6612473
1342 4 -7.4070001 18.6599999 17.8299999 0 0 1 3 6 4 1 0 0 12.8120785
1350 4 22.7600003 16.5300007 0.1663 0 0 0 1 10 4 0 0 0 13.1665344
1363 2 -10.2299996 -4.0349998 2.4319999 0 0 0 4 4 6 0 0 0 11.572217
1365 4 14.1300001 -9.9309998 -16.8600006 0 0 0 3 7 3 1 0 0 12.8322897
1374 4 18.2999992 -10.3299999 -18.7399998 0 0 0 1 10 4 0 0 0 12.6575833
1377 4 -7.3460002 -4.1160002 -12.2299996 0 0 0 3 6 4 0 0 0 12.2537422
1387 3 -16.1100006 -22.1499996 6.6040001 0 0 0 1 12 2 0 0 0 13.0012856
1403 4 18.2999992 -12.7700005 -16.1200008 0 0 0 1 10 4 0 0 0 13.2375727
1434 5 -11.1300001 9.9770002 -11.1700001 0 0 0 1 9 3 1 0 0 12.9726362
1445 2 3.0810001 2.813 8.4449997 0 0 0 2 8 2 0 0 0 11.4683533
1456 4 -10.4300003 -10.2200003 -19.8600006 0 0 1 2 7 5 0 0 0 12.0647306
1457 4 -8.4759999 3.593 4.197 0 0 1 1 9 2 2 0 0 13.0589218
1463 4 6.9720002 16.7999993 -0.3745 0 0 0 3 6 4 1 0 0 13.5430527
1471 5 19.8199997 -8.2880001 -19.7299996 0 0 0 5 3 6 1 0 0 12.3671522
1477 2 -5.6129999 -6.2740002 -19.7299996 0 0 1 2 7 3 0 0 0 11.8030644
1478 2 20.1700001 17.7099991 5.8670002 0 0 1 0 11 1 0 0 0 11.6250115
1485 4 2.8010001 -22.2000008 -4.876 0 0 1 2 7 4 0 0 0 12.0990629
1492 5 -1.127 19.6000004 9.4759999 0 0 0 2 9 2 1 0 0 12.3746777
1502 5 2.2609999 5.481 -3.6080001 0 0 0 3 6 4 0 0 0 11.997447
1505 4 -4.145 20.3899994 20.8700008 0 0 0 0 12 2 0 0 0 12.1007242
1509 5 3.1029999 -19.2999992 16.6299992 0 0 1 1 9 3 0 0 0 12.3466625
1515 5 -10.5600004 1.052 -18.9400006 0 0 0 2 10 1 0 0 0 12.0674191
1523 2 -9.1110001 13.0299997 -20.9500008 0 0 1 4 3 5 0 0 0 11.8478994
1543 1 23.25 5.6950002 -0.2152 0 0 0 2 8 3 0 0 0 11.2572918
1545 4 2.991 -8.7040005 -16.1800003 0 0 0 0 12 0 0 0 0 11.7139511
1556 5 12.3800001 -6.7270003 -7.5149999 0 0 2 3 8 4 0 0 0 12.5795193
1583 2 -6.7459998 -7.2030001 2.639 0 0 0 3 6 5 0 0 0 11.8837156
1599 4 15.9399996 18.8500004 -20.75 0 0 0 2 8 4 0 0 0 11.8771802
1605 5 12.8900004 11.2200003 -1.911 0 0 0 2 10 1 0 0 0 12.4401598
1607 4 -1.96 10.5900002 18.3999996 0 0 0 3 6 4 0 0 0 12.2294293
1615 4 13.7100001 20.9300004 0.2278 0 0 0 1 10 2 0 0 0 12.1289978
1620 4 -14.7399998 -1.434 19.5699997 0 0 0 2 10 4 0 0 0 14.0206566
1634 5 14.5500002 18.4799996 -5.7849999 0 0 0 2 12 1 0 0 0 12.6797257
1642 4 7.2340002 -19.8500004 6.2049999 0 0 0 3 6 6 0 0 0 12.4336834
1657 5 -8.4870005 15.4899998 13.6999998 0 0 0 3 6 6 0 0 0 12.5405951
1663 2 -9.3540001 -3.168 10.8400002 0 0 0 0 12 0 0 0 0 11.5657549
1669 4 -11.2299996 -20.1599999 -5.283 0 0 0 1 10 4 0 0 0 13.0159388
1671 4 25.0 19.1399994 -2.7650001 0 0 0 2 8 4 0 0 0 12.3341475
1692 5 -19.7600003 -20.8299999 11.7299996 0 0 0 2 10 1 0 0 0 11.9436456
1694 2 7.1810002 -17.9799996 -4.1370001 0 0 1 3 7 2 2 0 0 11.647852
1698 4 -8.3240004 -1.5800001 21.3600006 0 0 0 2 10 0 0 0 0 11.7045975
1702 2 3.878 -10.4499998 14.6099997 0 0 0 2 8 2 0 0 0 11.9162836
1706 4 4.0149999 1.339 -7.527 0 0 0 0 12 0 0 0 0 11.8552466
1722 5 -4.3649998 -1.85 -2.3859999 0 0 0 2 8 4 0 0 0 11.6946984
1726 5 0.2629 -8.2779999 -6.0819998 0 0 1 0 11 1 0 0 0 11.6575423
1730 5 14.6199999 20.3600006 8.3979998 0 0 0 1 10 2 0 0 0 11.8153677
1766 4 -9.8039999 -18.5100003 -2.96 0 0 0 0 12 2 0 0 0 12.4407768
1774 4 -2.5580001 1.046 -12.7299996 0 0 0 1 12 2 0 0 0 12.9398842
1795 4 0.1178 20.1800003 -13.9300004 0 0 0 0 12 0 0 0 0 11.9659634
1805 4 -14.3299999 17.2299996 9.8690004 0 0 0 1 10 3 0 0 0 12.4217606
1807 4 15.5799999 -8.3999996 14.6000004 0 0 0 1 10 3 0 0 0 12.1706133
1812 4 8.2539997 -8.1049995 15.1999998 0 0 0 1 10 3 0 0 0 11.810894
1818 4 -8.2130003 0.5918 16.9699994 0 0 0 1 10 3 0 0 0 12.1773119
1829 5 -9.7810002 16.0300007 -19.5699997 0 0 2 0 8 2 2 0 0 12.0528126
1847 4 1.3580001 -21.7099991 -10.87 0 0 0 0 12 0 0 0 0 10.9959308
1851 1 -0.9822 19.8799992 15.9099998 0 0 0 2 8 3 0 0 0 11.2368508
1865 2 9.4460001 -6.7810002 5.8470002 0 0 0 2 9 3 1 0 0 13.1523495
1873 4 -0.7884 -19.6700001 6.718 0 0 0 2 8 2 2 0 0 12.2647915
1879 5 18.6700001 -16.25 -17.2099991 0 0 0 2 8 3 0 0 0 11.7643996
1882 2 10.3299999 11.2200003 14.4600001 0 0 0 2 8 3 0 0 0 11.5095473
1897 4 17.3099995 -0.3679 16.0100002 0 0 0 2 10 4 0 0 0 13.278081
1899 2 22.3799992 1.685 3.7420001 0 0 0 3 6 5 0 0 0 11.9312526
1905 4 -12.6499996 -5.8140002 12.2200003 0 0 0 1 12 1 0 0 0 12.3610926
1906 2 -5.7470002 17.0300007 0.904 0 0 0 2 8 0 0 0 0 11.5337801
1920 5 8.3290005 -5.263 7.5689998 0 0 0 2 9 3 1 0 0 12.664877
1942 5 1.28 -19.7900009 15.2299996 0 0 0 1 10 2 0 0 0 12.6033192
1947 5 1.904 6.4089999 10.8299999 0 0 0 2 8 6 0 0 0 13.8956356
1951 4 9.5570002 20.7000008 17.1499996 0 0 0 2 8 4 0 0 0 12.1747618
1960 2 22.6599999 8.2589998 0.474 0 0 0 2 8 2 0 0 0 11.0157557
1965 2 -8.7659998 1.505 -20.8199997 0 0 0 1 10 2 0 0 0 12.28228
1970 2 19.2800007 19.6800003 -19.0699997 0 0 0 0 12 0 0 0 0 12.434021
1975 4 -8.323 2.5350001 -18.5400009 0 0 1 1 11 2 0 0 0 12.9108286
1976 5 23.3099995 16.8899994 14.8100004 0 0 0 0 12 0 0 0 0 12.036561
1990 5 3.928 -8.5430002 -6.0110002 0 0 1 3 5 4 0 0 0 11.8651552
2013 5 0.9858 11.7100001 -5.909 0 0 0 2 8 4 0 0 0 13.4321728
2020 2 -3.3670001 -9.2019997 -17.5300007 0 0 1 2 9 1 0 0 0 11.1214552
2029 4 0.2004 2.853 16.2000008 0 0 0 3 6 6 0 0 0 12.2158995
2041 5 14.79 1.017 16.6700001 0 0 0 1 10 2 0 0 0 12.2087927
2046 2 -18.3400002 -9.8039999 4.698 0 0 0 2 10 0 0 0 0 11.6503983
2054 4 12.3400002 -3.4289999 6.8369999 0 0 0 1 10 5 0 0 0 13.7331219
2066 5 -9.481 -17.5499993 10.3999996 0 0 0 1 10 4 0 0 0 13.1350203
2082 2 -17.7099991 -14.7600003 -12.8500004 0 0 1 2 7 3 0 0 0 12.1180306
2085 5 23.0400009 18.6399994 -17.9300004 0 0 0 0 12 0 0 0 0 11.4949656
2089 1 -14.8000002 -4.527 12.3900004 0 0 4 1 5 3 1 0 0 11.6952877
2091 4 20.9500008 -8.1730003 -13.0100002 0 0 0 2 8 3 0 0 0 11.9864436
2097 5 -2.9100002 -7.1360002 -1.214 0 0 0 1 10 2 2 0 0 13.7031584
2104 2 14.0299997 -18.7999993 -15.9899998 0 0 0 0 12 0 0 0 0 11.0856209
2116 5 9.8290005 -13.7700005 -11.5600004 0 0 0 2 10 2 0 0 0 12.3783093
2119 2 -14.5 14.8100004 -4.4310003 0 0 0 2 8 3 0 0 0 11.4313603
2124 5 13.1199999 -15.6899996 13.5900002 0 0 0 1 10 2 0 0 0 11.1940775
2126 5 11.5699997 -5.9829998 -13.3100004 0 0 0 3 6 5 0 0 0 12.503026
2144 4 9.9420004 7.2059999 5.1950002 0 0 0 1 10 3 0 0 0 11.7389422
2147 1 10.0900002 -14.3199997 -15.9499998 0 0 0 4 6 4 0 0 0 11.4958697
2148 2 13.5100003 10.04 -6.158 0 0 0 0 12 2 0 0 0 12.770464
2151 2 -10.4899998 6.8150001 21.4899998 0 0 0 2 8 4 0 0 0 11.977646
2163 2 -1.872 15.0100002 10.3800001 0 0 0 3 6 4 0 0 0 11.3868122
2180 5 -1.336 0.7408 -10.4099999 0 0 0 0 12 0 0 0 0 10.8810702
2183 2 17.3999996 5.9239998 -12.7200003 0 0 0 2 8 2 0 0 0 10.9229642
2202 4 -14.6899996 12.6300001 19.4200001 0 0 1 3 6 3 1 0 0 11.9188968
2208 2 8.2469998 12.8400002 4.2750001 0 0 0 2 8 2 0 0 0 11.3494587
2214 2 1.599 -0.3393 -4.3959999 0 0 0 1 10 2 0 0 0 11.3775702
2219 5 16.5599995 -18.3799992 11.6300001 0 0 0 3 6 4 0 0 0 11.9707804
2224 5 -12.4499998 -18.3799992 -17.6100006 0 0 0 1 10 2 0 0 0 11.6415482
2228 5 -9.6379996 16.2600002 -14.5200005 0 0 1 2 7 3 0 0 0 11.8356514
2231 5 9.1429997 20.9300004 21.3999996 0 0 0 0 12 3 0 0 0 12.7482949
2232 3 1.3660001 -17.7099991 -9.5670004 0 0 0 1 12 2 0 0 0 12.3993178
2256 2 -16.4200001 4.2579999 -17.6599999 0 0 2 2 5 4 1 0 0 12.1344366
2265 2 17.5900002 -0.09069 -13.1300001 0 0 1 1 9 2 0 0 0 11.0005522
2273 5 8.1689997 -20.7700005 9.2189999 0 0 0 1 10 4 0 0 0 12.5932436
2274 1 19.0200005 5.3109999 5.8379998 0 0 0 1 10 3 0 0 0 12.0288038
2284 5 14.8199997 14.9899998 -15.1199999 0 0 0 2 8 7 0 0 0 12.6407471
2285 4 -10.6999998 -8.1090002 -21.7800007 0 0 0 1 10 2 0 0 0 11.8450204
2295 1 -15.0600004 12.29 6.1469998 0 0 0 4 4 6 0 0 0 11.7740584
2298 5 14.2799997 21.4300003 -6.6869998 0 0 0 2 8 4 0 0 0 13.1042643
2304 4 10.8500004 -8.3500004 10.7299996 0 0 0 0 12 2 0 0 0 12.550849
2317 4 -4.5029998 1.559 20.4899998 0 0 0 3 6 5 0 0 0 12.3808375
2322 4 3.6900001 -7.6430002 -8.5080004 0 0 0 2 10 4 0 0 0 13.0110979
2337 5 14.4600001 -8.8109999 -14.7700005 0 0 0 5 4 4 2 0 0 12.1126261
2341 4 15.6199999 -5.8790002 -14.6599999 0 0 0 3 6 4 0 0 0 11.7700615
2368 2 -0.3022 -15.3999996 -15.3299999 0 0 0 1 10 2 0 0 0 12.2119188
2369 5 1.407 13.8900004 -10.4600001 0 0 1 2 7 2 2 0 0 12.0558596
2385 4 -10.5500002 3.1789999 14.0500002 0 0 0 2 8 4 0 0 0 12.2854071
2407 2 0.5995 8.8900004 2.247 0 0 0 2 10 0 0 0 0 11.6700335
2414 1 14.7399998 -12.7600003 -16.8799992 0 0 1 3 5 5 0 0 0 11.8261252
2427 4 -10.4499998 1.29 -16.5 0 0 0 1 10 4 0 0 0 12.4558554
2429 5 16.0100002 -17.5400009 21.0100002 0 0 0 3 6 4 0 0 0 12.2016926
2441 2 -11.2200003 -17.1499996 8.7709999 0 0 0 3 8 3 0 0 0 12.6714144
2442 4 17.3600006 1.981 -20.8999996 0 0 0 2 8 4 0 0 0 12.6257906
2443 5 20.8899994 20.1399994 1.957 0 0 1 2 7 6 0 0 0 13.2581368
2446 2 4.5120001 -9.6210003 -12.4799996 0 0 0 4 6 4 0 0 0 12.7467079
2451 2 -14.5299998 -4.264 1.709 0 0 0 0 12 0 0 0 0 10.869071
2457 4 11.2200003 3.458 7.4569998 0 0 0 3 8 4 0 0 0 12.929925
2482 5 -11.2799997 0.825 -21.3600006 0 0 0 2 10 2 0 0 0 12.5005503
2489 2 3.2579999 -4.895 -8.0410004 0 0 0 3 6 4 0 0 0 12.2469616
2494 2 -15.5799999 -3.951 -8.8839998 0 0 0 3 6 4 0 0 0 12.9902936
2496 4 5.4229999 7.0240002 7.362 0 0 0 1 10 3 0 0 0 12.996049
2506 2 -8.1750002 19.7399998 -0.6616 0 0 0 3 6 4 0 0 0 12.0902147
2513 5 18.0499992 17.7000008 -20.2000008 0 0 0 1 10 3 0 0 0 12.4805498
2521 2 0.3956 13.9099998 9.5220003 0 0 1 2 9 1 0 0 0 11.2168179
2523 4 13.4499998 12.5799999 21.1100006 0 0 0 0 12 4 0 0 0 13.172205
2527 1 -12.3699999 -11.1899996 -13.6000004 0 0 0 2 8 2 0 0 0 11.3376513
2541 2 -6.96 13.8400002 20.0900002 0 0 0 4 6 3 0 0 0 11.4739018
2543 5 -14.9799996 0.7903 -1.22 0 0 0 3 7 4 1 0 0 12.3834429
2545 5 -14.1099997 3.895 11.1999998 0 0 0 1 11 1 0 0 0 11.8913174
2548 2 -8.349 -6.6329999 -16.5 0 0 0 1 10 4 0 0 0 12.1604118
2553 2 -7.9039998 3.7579999 -12.3900004 0 0 0 2 9 2 0 0 0 11.4719935
2557 4 2.2260001 16.5799999 -14.6899996 0 0 0 2 8 4 0 0 0 13.0433283
2562 5 -1.4370001 18.9699994 -20.3500004 0 0 0 3 6 4 0 0 0 12.6038285
2564 4 9.1079998 8.3050003 -11.7399998 0 0 0 1 10 3 0 0 0 12.4528275
2573 5 11.9799996 -4.0739999 13.8100004 0 0 0 4 6 3 0 0 0 11.9110184
2574 2 -8.8280001 -21.5499993 4.0250001 0 0 0 2 8 1 0 0 0 11.0772972
2594 2 6.9260002 -1.987 -7.6079998 0 0 1 1 8 3 1 0 0 11.2532587
2596 4 16.7600003 14.5900002 19.6000004 0 0 0 1 10 2 0 0 0 11.5238495
2600 1 17.8700008 -6.803 -1.801 0 0 0 0 12 0 0 0 0 11.5279408
2619 5 -8.2469998 -7.2399998 20.9500008 0 0 0 0 12 2 0 0 0 12.417306
2627 4 -2.721 -15.2100001 -16.7099991 0 0 0 3 6 5 0 0 0 12.7702208
2632 4 1.806 0.9024 -20.6599999 0 0 0 4 6 4 0 0 0 12.6344443
2644 2 7.8369999 18.3099995 9.1929998 0 0 0 4 6 3 0 0 0 11.8682672
2647 4 14.1400003 -5.5980001 -19.0499992 0 0 0 1 10 4 0 0 0 12.8625956
2657 4 -8.9630004 18.5300007 -15.2200003 0 0 1 1 9 3 0 0 0 12.0592337
2666 2 18.4699993 -4.6589999 8.9169998 0 0 0 1 10 2 0 0 0 11.7093296
2675 4 -11.0 5.3670001 10.2200003 0 0 0 3 9 2 0 0 0 12.4373274
2695 4 -4.0079999 -7.2560001 21.0300007 0 0 0 1 10 3 0 0 0 11.8395586
2700 1 19.2000008 -0.0358 5.2690001 0 0 0 1 10 2 0 0 0 11.995677
2722 5 -12.6000004 19.8400002 0.4782 0 0 0 1 10 2 0 0 0 12.0019636
2752 2 21.3199997 16.0200005 -4.375 0 0 0 2 8 2 0 0 0 11.1045494
2760 5 -4.8839998 -0.003596 -19.9400006 0 0 0 0 12 2 0 0 0 12.2896519
2768 2 9.224 5.6360002 -4.8080001 0 0 0 1 10 2 0 0 0 11.7476177
2774 4 10.5799999 0.7223 6.7989998 0 0 1 1 9 2 2 0 0 12.4085856
2778 4 6.8390002 11.0799999 16.5 0 0 0 0 12 0 0 0 0 10.7794705
2782 4 -13.5100003 -21.3600006 13.1899996 0 0 0 1 10 4 0 0 0 13.3047085
2790 4 -0.1572 17.5100003 3.316 0 0 0 0 12 2 0 0 0 12.621541
2800 4 -12.2600002 16.3799992 -20.7399998 0 0 0 2 8 4 0 0 0 12.3072128
2802 5 -3.5439999 11.1000004 10.9399996 0 0 1 1 7 5 0 0 0 12.6635266
2820 4 13.2600002 -11.1899996 9.151 0 0 1 1 9 3 0 0 0 11.7563753
2823 4 -11.8100004 13.04 18.7900009 0 0 0 1 10 4 0 0 0 13.4195261
2824 4 17.5499993 7.2020001 5.053 0 0 0 4 4 6 0 0 0 12.6927843
2830 4 -19.1200008 -21.6100006 -16.2000008 0 0 0 1 10 3 0 0 0 12.9360772
2848 4 13.8199997 -17.7700005 0.9029 0 0 0 3 6 6 0 0 0 12.198947
2851 3 -14.7600003 3.102 -15.79 0 0 0 1 12 1 0 0 0 12.7690954
2857 4 -0.002122 21.1299992 -3.467 0 0 0 5 3 4 1 0 0 11.8690148
2885 2 18.7299996 17.6399994 -17.8600006 0 0 2 2 6 3 2 0 0 12.3013048
2895 4 3.178 -19.5699997 -5.0679998 0 0 0 3 6 4 2 0 0 12.965293
2899 5 16.3400002 -12.3199997 -1.7790001 0 0 1 0 12 0 1 0 0 12.4947853
2906 4 17.0400009 9.6350003 1.622 0 0 1 1 8 3 1 0 0 11.1503162
2908 5 -1.63 8.1499996 0.8334 0 0 0 4 6 4 0 0 0 12.3491745
2914 2 -1.925 -1.919 -6.7010002 0 0 0 2 8 2 0 0 0 11.27246
2932 4 -12.4499998 -14.2399998 -1.355 0 0 0 1 10 4 0 0 0 13.0845451
2955 4 -7.4039998 8.7349997 -14.4700003 0 0 0 1 10 2 0 0 0 12.2116852
2975 5 6.947 -4.3920002 -6.751 0 0 0 1 10 3 0 0 0 12.4414034
2985 4 -3.115 3.4430001 -16.4899998 0 0 0 1 10 3 0 0 0 12.1959076
2993 4 12.8599998 -0.6605 10.3599997 0 0 0 3 6 5 0 0 0 12.1330786
2994 4 -12.87 -14.6899996 -14.4399996 0 0 0 1 10 4 0 0 0 12.1659756
3004 5 10.9200002 -1.777 -8.9130002 0 0 0 4 4 7 0 0 0 12.6888161
3009 4 6.7189999 -10.3999996 -7.79 0 0 0 0 12 0 0 0 0 11.198823
3020 5 11.5900002 20.4300003 -9.566 0 0 1 1 9 3 0 0 0 11.9217672
3023 2 19.8299999 -9.2510004 -10.8500004 0 0 0 1 10 3 0 0 0 12.314456
3060 4 -8.566 20.7999993 -16.0900002 0 0 0 1 10 4 0 0 0 12.6483355
3068 2 4.6539998 3.385 6.5949998 0 0 0 1 10 2 0 0 0 11.7382775
3090 5 17.9400006 -9.9989996 20.1299992 0 0 1 2 10 2 1 0 0 12.5552368
3100 4 -3.3580001 1.844 0.08932 0 0 0 0 12 2 0 0 0 12.1232681
3115 4 -0.6798 7.3509998 -1.423 0 0 0 0 12 0 0 0 0 11.5661412
3118 4 1.844 -2.7019999 -3.543 0 0 0 0 12 3 0 0 0 13.176157
3134 2 5.368 7.5450001 -14.4399996 0 0 3 0 7 3 2 0 0 12.6541701
3145 2 -12.3699999 21.5200005 4.1269999 0 0 0 0 12 2 0 0 0 11.7938643
3150 2 20.5400009 19.6200009 7.2909999 0 0 1 2 7 3 0 0 0 11.8823682
3152 4 -2.31 -17.2099991 -15.5299998 0 0 0 0 12 0 0 0 0 11.3830795
3158 2 11.25 -7.5419998 3.951 0 0 0 1 10 2 0 0 0 12.01756
3159 5 -4.3899999 15.1400003 -6.3020001 0 0 1 0 9 3 0 0 0 12.0900698
3165 5 11.6300001 -15.4300003 18.4099999 0 0 0 2 8 4 0 0 0 12.1111307
3167 2 -2.5450001 2.896 19.6299992 0 0 0 4 6 5 0 0 0 12.4387093
3174 4 -5.6560002 0.1231 -5.4770003 0 0 0 3 6 4 0 0 0 11.7261963
3178 4 17.7199993 -10.1599999 10.6899996 0 0 0 2 8 5 0 0 0 13.263957
3180 2 20.5 19.9599992 -7.1430001 0 0 0 1 10 2 0 0 0 11.5206471
3182 4 15.0500002 -18.75 -18.3099995 0 0 0 1 10 5 0 0 0 13.5441542
3185 5 0.9566 5.9299998 5.7259999 0 0 1 2 10 1 1 0 0 12.5240345
3186 5 5.375 -1.719 -1.477 0 0 0 1 10 3 0 0 0 11.205369
3199 5 12.1000004 18.75 0.2116 0 0 1 2 6 4 0 0 0 12.5485697
3201 5 -12.5 17.8700008 -12.4899998 0 0 0 2 8 3 0 0 0 11.6247406
3220 4 -6.3119998 19.1599999 -15.1199999 0 0 0 1 10 2 0 0 0 12.560834
3222 4 13.25 -2.5650001 -9.8940002 0 0 0 2 8 4 0 0 0 12.0011263
3234 4 -7.9850002 -7.56 5.0120001 0 0 0 2 10 3 0 0 0 13.0176573
3240 1 3.4370001 8.3900004 -13.0100002 0 0 0 1 10 2 0 0 0 11.7312813
3241 4 -9.816 21.4699993 -13.9099998 0 0 2 4 1 6 1 0 0 11.7151613
3246 5 -2.1689999 -21.25 4.487 0 0 0 0 12 3 0 0 0 13.9679632
3267 5 3.398 -13.8500004 -7.994 0 0 0 1 10 4 0 0 0 12.2786703
3286 5 10.6800003 -8.191 14.9499998 0 0 0 0 12 0 0 0 0 11.1624241
3287 5 12.75 15.6999998 -16.3500004 0 0 0 4 6 3 0 0 0 12.3886566
3298 5 3.277 -21.1700001 14.6800003 0 0 1 2 7 2 2 0 0 12.0538483
3301 5 21.1000004 16.2099991 -7.0580001 0 0 0 1 11 2 0 0 0 12.5485316
3303 5 21.2099991 1.8940002 -15.5100003 0 0 0 3 6 4 0 0 0 11.8667346
3315 4 2.434 -10.3999996 9.9790002 0 0 0 2 8 2 0 0 0 12.0518618
3337 5 -9.9709998 -16.9099998 1.615 0 0 0 4 4 8 0 0 0 13.6033497
3343 5 -8.9169998 19.0699997 -7.0749998 0 0 0 2 8 2 0 0 0 11.2058659
3346 2 -19.3299999 -15.9399996 -4.1399999 0 0 0 1 10 2 0 0 0 11.5533743
3357 4 -12.0200005 13.4799996 -7.006 0 0 0 1 12 2 0 0 0 12.8823796
3387 5 20.8500004 17.6100006 -19.2900009 0 0 1 1 9 3 2 0 0 13.0890131
3406 5 -11.6099997 6.954 -0.5812 0 0 0 2 8 5 0 0 0 12.7424441
3414 2 20.8999996 20.7199993 -4.9660002 0 0 0 2 8 2 0 0 0 10.9722072
3433 4 0.6637 17.6299992 -12.5900002 0 0 0 0 12 3 0 0 0 13.1367245
3438 5 18.1800003 -17.4599991 -21.9200002 0 0 1 5 3 5 0 0 0 13.8413096
3444 5 11.7700005 -13.4300003 3.115 0 0 0 2 8 3 0 0 0 12.1177559
3446 4 9.8319998 -10.2399998 6.7560001 0 0 1 3 6 5 1 0 0 13.4266463
3454 2 12.54 15.7200003 2.345 0 0 0 2 8 2 0 0 0 10.9014368
3465 5 -12.9899998 0.7658 -9.9139996 0 0 1 2 8 3 1 0 0 12.5534907
3467 4 2.4400001 -5.5890003 -10.1199999 0 0 0 0 12 0 0 0 0 12.4446354
3471 2 -18.4300003 -20.8500004 16.6200009 0 0 0 0 12 0 0 0 0 11.0926209
3481 4 -0.1916 -14.7600003 -17.7600003 0 0 0 1 10 2 0 0 0 11.8865138
3489 2 -7.6149998 -7.4109998 -18.8500004 0 0 1 1 9 3 0 0 0 12.0083532
3497 2 21.5400009 12.1199999 8.6160002 0 0 1 1 8 3 1 0 0 12.996297
3501 4 7.5089998 -6.5669999 9.5530005 0 0 0 2 8 2 0 0 0 11.4596319
3516 4 16.9099998 -9.5850001 2.5409999 0 0 0 1 10 3 0 0 0 11.905594
3529 5 11.6999998 -8.7069998 -2.0969999 0 0 0 3 10 1 0 0 0 12.6657448
3536 5 -20.0799999 -22.1499996 1.796 0 0 0 2 8 4 0 0 0 12.5967884
3540 4 3.0739999 3.49 -7.9829998 0 0 0 0 12 0 0 0 0 11.6448012
3544 4 -11.6000004 2.839 21.4899998 0 0 0 1 10 2 0 0 0 12.6874476
3561 5 -2.947 14.1499996 6.415 0 0 0 2 8 5 0 0 0 12.1182575
3563 2 -13.04 -7.2540002 -21.9300004 0 0 0 1 10 2 0 0 0 11.934126
3571 4 0.2713 11.2600002 1.387 0 0 0 4 6 4 0 0 0 12.3710833
3587 4 19.0900002 -20.2600002 -21.0799999 0 0 0 2 8 2 2 0 0 12.9308864
3597 2 12.6199999 -0.1355 -9.4980002 0 0 0 2 10 1 0 0 0 11.9702712
3613 4 -0.9174 15.7200003 -13.7399998 0 0 0 1 10 4 0 0 0 13.3629875
3614 4 -5.5900002 2.1600001 7.1529999 0 0 0 1 10 2 0 0 0 11.3234062
3617 5 -13.9200002 -22.0400009 0.399 0 0 0 2 10 0 0 0 0 12.3936653
3634 5 14.2299996 -13.3699999 -6.5100003 0 0 0 2 8 5 0 0 0 12.3688116
3636 4 4.6770001 -16.1700001 -0.8087001 0 0 0 2 8 4 0 0 0 12.5065451
3648 2 -3.836 18.1700001 5.3369999 0 0 0 2 10 3 0 0 0 12.4190416
3659 4 19.7199993 -3.349 20.9300004 0 0 0 0 12 0 0 0 0 11.8755084
3662 2 -1.7610001 5.1370001 19.9099998 0 0 0 3 6 3 0 0 0 11.320262
3675 1 2.76 15.3000002 18.6200009 0 0 0 0 12 0 0 0 0 11.9100142
3678 2 -6.948 -2.5650001 -10.1199999 0 0 0 1 10 3 0 0 0 12.344656
3690 5 -9.3979998 -14.0299997 2.977 0 0 1 2 7 3 2 0 0 13.2489443
3708 3 7.764 -4.6170001 -4.3249998 0 0 0 4 7 2 1 0 0 12.1585999
3714 4 5.605 -12.29 -21.3500004 0 0 0 1 12 2 0 0 0 13.7706623
3738 5 11.3900004 13.5699997 -8.0019999 0 0 0 2 8 1 1 0 0 12.4457712
3744 4 -17.0900002 -18.2399998 13.6899996 0 0 0 2 8 4 0 0 0 12.4283791
3746 4 -10.6000004 -16.6000004 -14.5900002 0 0 0 0 12 0 0 0 0 11.44555
3747 5 0.7201 -13.3500004 -11.4600001 0 0 0 0 12 2 0 0 0 13.0763674
3749 5 -9.8879996 -9.3470001 4.277 0 0 0 0 12 0 0 0 0 10.7690392
3752 4 -11.7600003 -4.6700001 -17.5 0 0 0 5 6 2 0 0 0 12.1863089
3753 5 -4.2090001 -3.4360001 -0.5334 0 0 0 2 10 1 0 0 0 12.108098
3768 4 8.6730004 14.1999998 9.4540005 0 0 0 1 10 4 0 0 0 12.9285108
3770 4 5.3870001 -7.4460001 -0.9373 0 0 0 2 8 3 1 0 0 12.6900206
3778 1 -9.6999998 -21.4799996 10.2200003 0 0 1 3 5 4 0 0 0 11.573535
3788 5 22.3899994 9.922 -12.7299996 0 0 1 4 4 6 1 0 0 12.983551