ITEM: TIMESTEP
0
ITEM: NUMBER OF ATOMS
50688
ITEM: BOX BOUNDS xy xz yz pp pp pp
-40.1340523 46.9673158 6.8332691
-43.8030052 43.8030052 0.0
-43.7915344 43.7915344 0.0
ITEM: ATOMS id type x y z VoronoiIndex1 VoronoiIndex2 VoronoiIndex3 VoronoiIndex4 VoronoiIndex5 VoronoiIndex6 VoronoiIndex7 VoronoiIndex8 VoronoiIndex9 AtomicVolume
2 2 -12.6400004 -19.7399998 -10.0500002 0 0 1 2 7 4 0 0 0 12.0235024
4 2 -29.2600002 -20.8799992 -19.6499996 0 0 0 0 12 0 0 0 0 11.0723763
15 4 -6.6560002 -26.4200001 -21.3199997 0 0 0 2 8 3 1 0 0 11.6005364
23 2 -15.0100002 -31.7099991 -13.9399996 0 0 0 1 10 2 0 0 0 12.2109861
32 5 -36.6599999 -21.7099991 -35.7099991 0 0 3 2 7 3 0 0 0 13.0629244
33 1 -13.0100002 -5.5300002 -26.8700008 0 0 0 0 12 0 0 0 0 11.427476
39 4 -21.5 -34.0600014 -41.7299996 0 0 0 0 12 3 0 0 0 13.8347712
45 4 -3.3180001 -15.2799997 -15.6499996 0 0 0 0 12 0 0 0 0 11.2410851
46 4 -28.7399998 -11.7399998 -42.8499986 0 0 1 1 8 2 1 0 0 12.0616179
68 4 -12.7100001 -9.6770001 -9.7510004 0 0 1 1 8 3 1 0 0 12.1793194
88 5 -30.7999993 -30.6599999 -0.3922 0 0 0 2 10 1 0 0 0 11.9308244
90 4 -11.1199999 -43.25 -35.8600006 0 0 1 3 5 6 0 0 0 12.4286623
93 2 -33.3400002 -19.3199997 -25.6299992 0 0 0 3 8 2 0 0 0 11.9017268
97 5 -21.7199993 -8.7069998 -0.4622 0 0 0 1 10 3 0 0 0 13.0416546
106 4 -10.79 -32.5299988 -3.0079999 0 0 0 2 8 4 0 0 0 12.4198885
109 4 -32.2999992 -9.9160004 -26.0499992 0 0 0 1 10 5 0 0 0 12.9268228
114 2 -8.4119997 -40.2000008 -6.7010002 0 0 0 3 6 4 0 0 0 11.7447033
118 2 -2.254 -35.5600014 -30.3999996 0 0 0 0 12 0 0 0 0 11.2071104
119 4 -33.3100014 -22.2299996 -19.4200001 0 0 0 1 12 1 0 0 0 12.4888678
141 4 -19.9699994 -11.2100001 -39.9599992 0 0 0 1 10 4 0 0 0 12.85207
162 4 -3.4389999 -13.8800002 -34.5299988 0 0 0 0 12 2 0 0 0 12.3928337
164 1 -6.6030002 -8.276 -40.3100014 0 0 0 1 10 2 0 0 0 11.8178664
169 1 -0.7092 -12.8599998 -18.8500004 0 0 0 1 10 3 0 0 0 11.5125828
174 5 1.2640001 -8.3739996 -29.5200005 0 0 0 2 8 4 0 0 0 12.4213839
187 4 0.686 -10.8599998 -21.7000008 0 0 0 1 10 2 0 0 0 11.1176729
199 1 -5.5749998 -31.4400006 -27.6100006 0 0 0 6 6 1 0 0 0 12.1951895
211 2 -35.6500016 -24.6399994 -37.4300003 0 0 1 1 9 2 0 0 0 11.452796
223 2 -2.109 -37.6800003 -22.9799996 0 0 0 1 10 2 0 0 0 11.936799
227 4 -16.7199993 -6.4029999 -28.7600003 0 0 0 1 10 4 0 0 0 12.9793768
237 2 -12.4099999 -38.2999992 -34.0999985 0 0 0 0 12 0 0 0 0 11.7150917
253 5 -2.323 -4.7849999 -34.7099991 0 0 0 5 6 3 0 0 0 13.2337685
254 4 -5.8020001 -25.8799992 -4.4499998 0 0 1 3 5 5 0 0 0 12.3481665
258 2 -5.501 -37.3300018 -42.0 0 0 3 1 6 3 1 0 0 12.0509748
259 5 -2.425 -37.0499992 -34.9099998 0 0 0 0 12 0 0 0 0 11.8137446
265 5 -33.5299988 -21.8999996 -25.5100003 0 0 0 3 8 3 0 0 0 12.8094616
275 5 -33.8800012 -21.3899994 -32.3199997 0 0 0 2 8 5 0 0 0 12.252985
286 3 -12.2700005 -33.2400017 -23.1700001 0 0 1 1 9 4 0 0 0 12.496234
290 4 -38.0600014 -42.5800019 -3.115 0 0 0 4 6 3 0 0 0 11.7452717
293 5 -19.2700005 -8.7519999 -43.5299988 0 0 0 3 6 4 0 0 0 12.4256163
297 5 -19.25 -8.1129999 -20.2399998 0 0 0 2 8 4 0 0 0 12.4238444
306 1 -0.2087 -17.2800007 -1.099 0 0 0 0 12 0 0 0 0 10.709568
326 4 -23.3799992 -23.1800003 -10.2100001 0 0 0 2 8 4 0 0 0 12.8414594
329 2 -38.0299988 -25.7900009 -8.1429997 0 0 0 3 6 4 0 0 0 11.7932024
338 5 -24.2099991 -33.7000008 -30.1700001 0 0 0 3 6 4 0 0 0 11.8771458
339 4 -1.354 -38.9500008 -10.4600001 0 0 0 3 6 6 0 0 0 12.9567862
349 4 -22.8099995 -42.0499992 -16.5900002 0 0 1 0 11 3 0 0 0 13.2541742
350 4 -33.2400017 -14.3800001 -37.2700005 0 0 0 1 10 3 0 0 0 12.045166
364 4 -4.665 -21.7399998 -42.1699982 0 0 0 2 8 3 2 0 0 13.1394377
387 3 -15.7799998 -23.5300007 -33.4599991 0 0 0 1 10 3 0 0 0 12.4790039
397 1 -6.9650002 -27.6000004 -26.7399998 0 0 0 0 12 0 0 0 0 11.4198962
403 4 -33.5699997 -33.1199989 -15.0799999 0 0 0 3 6 3 0 0 0 11.7355643
414 4 -11.54 -0.8511 -7.5419998 0 0 0 0 12 2 0 0 0 11.981599
415 4 -13.1899996 -3.0350001 -27.2999992 0 0 0 1 12 2 0 0 0 12.9438286
423 2 -28.6299992 -13.0900002 -26.0900002 0 0 0 0 11 1 0 0 0 12.1924467
424 3 -20.3799992 -37.7099991 -30.2199993 0 0 0 2 8 4 0 0 0 12.7182236
440 2 -9.6129999 -31.3099995 -36.3800011 0 0 0 3 6 4 0 0 0 11.6818991
458 1 -34.5299988 -28.1299992 -38.9300004 0 0 0 0 12 0 0 0 0 10.6387215
461 2 -20.8199997 -0.5649 -6.4460001 0 0 0 1 10 2 0 0 0 11.6185808
463 3 -36.4599991 -4.0019999 -14.0299997 0 0 0 0 12 2 0 0 0 12.6711159
469 2 -6.9920002 -15.4600001 -6.8800002 0 0 0 2 8 2 0 0 0 11.8158741
477 2 -18.1399994 -18.8500004 -26.2700005 0 0 1 2 7 4 0 0 0 12.3783388
478 5 -12.3900004 -9.915 -32.3899994 0 0 0 2 8 5 0 0 0 12.7690993
483 4 -9.6969996 -6.7690001 -30.6599999 0 0 0 1 10 2 0 0 0 11.6739331
485 4 -15.0299997 -16.9899998 -4.1609998 0 0 0 0 12 2 0 0 0 12.6248789
495 4 -32.2099991 -25.1399994 -1.653 0 0 0 1 10 3 0 0 0 12.2227078
497 5 -1.997 -38.0999985 -42.7799988 0 0 1 1 11 0 0 0 0 12.0118132
508 4 -21.2399998 -23.5100003 -14.2299996 0 0 1 1 9 5 0 0 0 13.0339794
511 4 -20.0 -24.4099999 -36.25 0 0 0 3 6 1 4 0 0 13.3894282
514 2 -14.0699997 -25.0499992 -39.619999 0 0 2 2 6 2 2 0 0 11.3913489
537 5 -19.7199993 -19.2700005 -13.96 0 0 0 3 8 3 0 0 0 12.2535887
544 3 -30.6000004 -12.5900002 -39.1899986 0 0 0 4 6 3 0 0 0 12.1381283
546 2 -15.9399996 -13.0299997 -33.6899987 0 0 0 2 8 3 0 0 0 11.6100445
553 4 -31.5100003 -27.7099991 -5.257 0 0 0 2 8 5 0 0 0 12.6858406
554 5 -18.0200005 -39.1599999 -18.6399994 0 0 0 1 10 2 0 0 0 11.2401114
567 2 -7.9629998 -43.0699997 -17.9400006 0 0 2 2 5 5 1 0 0 12.4768429
574 4 -29.9099998 -23.5900002 -16.3299999 0 0 0 1 10 4 0 0 0 13.0111866
579 5 -18.2199993 -26.4899998 -25.2600002 0 0 0 6 4 2 0 0 0 11.7400294
595 4 -3.7790001 -24.2999992 -24.2099991 0 0 0 3 6 5 0 0 0 12.4784909
621 2 -27.5300007 -32.4000015 -7.0440002 0 0 0 2 8 2 0 0 0 11.3565722
634 4 0.9114 -0.3661 -11.2100001 0 0 0 1 10 4 0 0 0 12.7384157
639 5 -36.1899986 -11.7100001 -28.7099991 0 0 0 2 8 5 0 0 0 13.606699
644 2 -14.4399996 -8.4870005 -20.8899994 0 0 1 0 11 1 0 0 0 11.8214178
664 4 -2.0769999 -31.4899998 -37.619999 0 0 1 1 9 4 0 0 0 13.0265989
670 4 -25.0200005 -19.2700005 -40.7099991 0 0 0 2 8 3 0 0 0 11.8663454
690 2 -17.6200009 -32.7799988 -36.75 0 0 1 2 7 2 0 0 0 11.2688055
699 4 -5.428 -22.1200008 -27.3899994 0 0 0 3 6 7 0 0 0 13.2403212
701 5 -16.6100006 -32.2700005 -2.875 0 0 0 5 4 4 0 0 0 12.1837063
702 5 -6.3010001 -34.7700005 -14.0200005 0 0 0 0 12 0 0 0 0 10.7372694
708 4 0.05381 -3.3280001 -34.4799996 0 0 0 3 6 2 2 0 0 12.6016398
718 4 -20.5900002 -13.8400002 -30.7700005 0 0 0 1 10 4 0 0 0 13.2993717
731 4 -3.046 -20.2600002 -29.2600002 0 0 0 4 7 3 1 0 0 12.1504088
733 4 -16.2700005 -20.1299992 -25.4500008 0 0 0 2 8 5 0 0 0 12.5858622
740 2 -33.0999985 -37.2799988 -41.9599992 0 0 0 2 10 0 0 0 0 11.0953913
766 4 -28.6200009 -11.6199999 -12.9099998 0 0 0 3 8 3 0 0 0 11.7138281
773 2 -12.9700004 -26.1900005 -30.3999996 0 0 0 1 10 2 0 0 0 11.5782738
779 5 -10.8100004 -35.0400009 -18.8700008 0 0 0 4 6 2 2 0 0 12.2835732
782 2 1.592 -19.8799992 -9.1129999 0 0 0 0 12 0 0 0 0 10.8385744
783 5 0.6872 -26.4300003 -16.3899994 0 0 0 1 12 2 0 0 0 12.6509419
792 4 0.4861 -31.7800007 -36.5200005 0 0 1 1 9 2 2 0 0 12.6900683
800 2 -35.8899994 -37.1899986 -19.7399998 0 0 0 1 10 2 0 0 0 11.4667149
804 2 -8.5749998 -1.592 -39.7099991 0 0 0 3 6 4 0 0 0 12.2233763
824 5 -25.4699993 -22.4799996 -1.847 0 0 1 2 9 2 0 0 0 11.8524066
827 2 -4.3000002 -36.8800012 -23.2999992 0 0 1 1 11 0 0 0 0 12.081934
833 4 -37.1199989 -19.0400009 -36.1500015 0 0 0 3 6 4 0 0 0 11.954053
839 2 -23.7600003 -41.2799988 -2.378 0 0 0 2 8 5 0 0 0 12.8951874
853 4 -31.9200002 -8.6350003 -28.6100006 0 0 0 2 8 4 0 0 0 12.521163
857 5 -27.7099991 -14.5900002 -17.2199993 0 0 0 2 8 2 2 0 0 12.2310314
858 4 -23.7099991 -9.9119998 -4.2600002 0 0 0 1 10 4 0 0 0 13.6207648
864 4 -0.5185 -12.1000004 -27.7900009 0 0 0 1 10 4 0 0 0 12.7349434
907 5 -23.4599991 -27.1100006 -43.5 0 0 0 1 10 4 0 0 0 12.777834
912 5 -20.7999993 -42.6699982 -39.3100014 0 0 0 0 12 0 0 0 0 11.2690077
913 1 -11.8100004 -10.5600004 -23.7900009 0 0 0 1 10 2 0 0 0 11.2988463
918 4 -13.3400002 -18.7000008 -34.1300011 0 0 0 2 8 5 0 0 0 12.4460917
919 5 -3.6830001 -15.1099997 -9.4169998 0 0 0 2 8 5 0 0 0 12.7425347
927 5 -15.29 -25.1200008 -29.5200005 0 0 0 0 12 3 0 0 0 13.0359039
934 4 -21.3700009 -7.7350002 -26.8500004 0 0 0 0 12 0 0 0 0 11.0116034
935 2 -26.8099995 -5.737 -26.1299992 0 0 1 2 5 4 0 0 0 11.8293858
939 2 -37.7299996 -36.5699997 -30.8500004 0 0 0 2 8 3 0 0 0 12.0507975
949 2 -23.8700008 -5.1469998 -32.3400002 0 0 0 2 9 0 3 0 0 13.1166067
959 4 -19.6900006 -24.8600006 -9.1129999 0 0 0 1 10 4 0 0 0 12.7433987
961 2 -15.6899996 -40.3499985 -41.6300011 0 0 1 0 9 3 0 0 0 11.1191959
969 2 -31.6900006 -9.5279999 -12.1700001 0 0 0 3 6 4 0 0 0 11.2144861
979 2 -7.8660002 -14.0600004 -20.2399998 0 0 0 2 8 1 0 0 0 11.3443709
983 2 0.2795 -4.605 -8.8000002 0 0 0 3 6 5 0 0 0 12.3561773
990 5 -23.6800003 -24.6100006 -42.3699989 0 0 0 3 8 3 0 0 0 12.7845946
1001 4 -8.2159996 -20.5499993 -23.8799992 0 0 0 2 8 5 0 0 0 13.453764
1015 5 -38.0299988 -39.25 -14.04 0 0 0 2 8 4 0 0 0 12.1538916
1016 2 -3.0079999 -30.5499993 -8.0810003 0 0 0 0 12 0 0 0 0 11.4279537
1033 2 -22.4699993 -34.0099983 -10.9300004 0 0 0 2 8 2 0 0 0 11.7538891
1051 4 -15.4700003 -15.7700005 -18.4099999 0 0 0 1 10 2 0 0 0 11.819293
1064 5 -4.5110002 -19.8400002 -31.6399994 0 0 1 3 5 5 0 0 0 11.7225495
1065 2 -8.955 -19.2900009 -8.566 0 0 0 0 12 0 0 0 0 10.8661634
1075 4 -34.3499985 -1.605 -34.9599992 0 0 2 3 5 3 1 0 0 11.7567816
1084 1 2.3010001 -6.5320001 -33.619999 0 0 0 0 12 0 0 0 0 11.1902971
1086 1 -15.0799999 -38.8400002 -23.9699994 0 0 0 1 10 2 0 0 0 11.4084807
1089 3 -26.7900009 -32.9300004 -38.0800018 0 0 0 1 10 4 0 0 0 12.5446263
1102 1 -10.6499996 -36.5900002 -37.3800011 0 0 0 0 12 0 0 0 0 11.6046353
1110 2 -23.1800003 -21.2199993 -5.4180002 0 0 2 3 4 4 2 0 0 12.4599648
1111 5 -34.6599999 -5.7750001 -6.1630001 0 0 1 2 7 4 0 0 0 12.2131081
1122 4 -18.6200009 -23.9400006 -15.5 0 0 0 1 9 2 1 0 0 12.2001181
1131 2 -6.0339999 -2.925 -20.7800007 0 0 1 3 5 4 0 0 0 11.9224272
1133 2 -9.106 -42.3499985 -7.855 0 0 1 4 7 1 0 0 0 11.7116118
1138 4 -32.4099999 -28.9300004 -0.5397 0 0 0 2 10 2 0 0 0 12.167388
1152 1 -30.1000004 -32.9500008 -0.1165 0 0 0 0 12 0 0 0 0 10.3208437
1163 2 -33.1699982 -19.0300007 -12.25 0 0 1 0 9 3 0 0 0 11.632062
1166 5 -22.8099995 -28.6100006 -9.5640002 0 0 0 1 10 2 0 0 0 12.0020094
1170 2 -8.125 -4.1929998 -16.6700001 0 0 0 2 8 1 0 0 0 11.6330414
1178 1 -23.9799996 -34.2700005 -6.3169999 0 0 0 2 8 4 0 0 0 12.0100803
1195 5 -11.4799996 -39.1199989 -9.3100004 0 0 0 2 8 2 0 0 0 11.1778679
1198 5 -7.3119998 -34.8600006 -38.4199982 0 0 0 1 10 2 0 0 0 12.0864239
1209 2 -11.9799996 -5.6139999 -9.7580004 0 0 0 1 10 2 0 0 0 11.6555319
1211 5 -26.4799996 -23.0300007 -21.0799999 0 0 0 0 12 0 0 0 0 11.6269169
1219 5 -24.7800007 -32.8600006 -39.3499985 0 0 0 1 10 2 0 0 0 11.9741182
1237 2 -39.0299988 -42.0699997 -8.5229998 0 0 1 2 7 1 0 0 0 10.5029135
1238 4 -36.0099983 -32.5600014 -39.1100006 0 0 0 2 10 4 0 0 0 13.1568079
1239 2 -18.9500008 -10.3000002 -19.4599991 0 0 0 0 12 0 0 0 0 11.5126505
1251 4 -36.9300004 -31.8500004 -7.4320002 0 0 0 0 12 3 0 0 0 12.9020568
1256 4 -14.1999998 -5.975 -8.401 0 0 0 1 10 4 0 0 0 13.1401062
1259 2 -35.0 -43.5699997 -15.8400002 0 0 0 0 12 0 0 0 0 11.0971384
1262 4 -28.4799996 -21.9899998 -14.8400002 0 0 0 3 6 4 0 0 0 11.8092289
1266 4 -0.1563 -22.3899994 -36.9099998 0 0 0 2 8 6 0 0 0 12.7520609
1280 4 -35.9099998 -27.7900009 -32.3600006 0 0 0 0 12 2 0 0 0 11.8149023
1286 5 -5.6880002 -11.1000004 -36.5299988 0 0 0 4 7 3 1 0 0 12.3381691
1289 2 -7.171 -10.8000002 -23.1200008 0 0 1 1 8 3 1 0 0 12.3295317
1298 4 -38.25 -19.9699994 -42.3699989 0 0 1 1 9 5 0 0 0 12.91784
1299 2 -6.9130002 -15.9300004 -40.2400017 0 0 0 2 10 0 0 0 0 11.0927858
1303 4 -12.1800003 -20.5 -35.5 0 0 0 0 12 0 0 0 0 10.9830494
1304 5 -10.6899996 -18.2800007 -15.5 0 0 0 0 12 0 0 0 0 11.9221172
1306 5 -0.6527 -10.5900002 -29.6000004 0 0 1 3 5 5 0 0 0 11.7721672
1315 2 -36.7200012 -34.2200012 -42.8899994 0 0 0 0 12 0 0 0 0 10.8206272
1319 2 -19.7099991 -28.5499993 -1.37 0 0 1 3 7 4 0 0 0 12.0466423
1322 4 -0.01909 -27.7299996 -3.52 0 0 0 2 10 2 0 0 0 13.0013666
1336 4 -9.0120001 -5.0100002 -23.2399998 0 0 0 1 10 4 0 0 0 13.1029987
1337 4 -14.1400003 -19.9899998 -36.7799988 0 0 0 1 10 2 0 0 0 11.5200854
1340 2 -27.0499992 -23.9799996 -39.1100006 0 0 0 0 12 4 0 0 0 13.6179562
1342 2 -36.0099983 -32.0299988 -32.6100006 0 0 0 2 8 5 0 0 0 12.6729155
1343 2 -23.0400009 -4.4959998 -34.9099998 0 0 0 2 8 4 0 0 0 12.3114081
1352 5 -10.9899998 -15.4399996 -42.5499993 0 0 1 0 9 3 0 0 0 11.5889406
1372 2 -16.7800007 -23.25 -28.8199997 0 0 0 4 6 3 0 0 0 12.4241371
1385 5 1.884 -10.6999998 -33.5800019 0 0 1 1 8 3 1 0 0 12.5672951
1399 4 -36.5 -17.3500004 -1.975 0 0 0 3 5 4 1 0 0 11.9019786
1407 5 -34.2799988 -6.7870002 -24.8099995 0 0 0 0 12 0 0 0 0 10.3577299
1408 1 -19.6200009 -34.8100014 -8.0459995 0 0 0 1 10 2 0 0 0 11.3647232
1414 2 -30.1900005 -19.4200001 -31.0699997 0 0 0 2 8 0 2 0 0 11.5594692
1419 2 -32.5699997 -43.5800019 -15.6499996 0 0 0 0 10 2 0 0 0 11.2959747
1421 2 -16.4400006 -36.3699989 -33.1399994 0 0 1 3 5 4 2 0 0 11.9815512
1437 4 -36.7200012 -19.5799999 -20.1200008 0 0 0 1 10 4 0 0 0 12.3755312
1495 5 -14.1000004 -23.1399994 -6.8530002 0 0 0 2 8 5 0 0 0 13.3664093
1502 4 -4.5739999 -13.0100002 -38.4000015 0 0 0 3 6 5 0 0 0 12.6156769
1505 2 -25.3400002 -18.8099995 -43.1399994 0 0 0 2 8 4 0 0 0 11.4618798
1521 5 -14.6599999 -24.4400006 -3.0840001 0 0 0 5 6 2 0 0 0 11.8551398
1526 4 -15.6099997 -9.007 -35.3899994 0 0 0 0 12 2 0 0 0 12.4186106
1527 5 -15.9799996 -40.7000008 -35.5299988 0 0 0 2 8 4 0 0 0 11.6905203
1529 2 -12.7799998 -37.0200005 -26.4400006 0 0 0 3 6 3 0 0 0 12.0529699
1539 5 -29.6200009 -1.5670001 -30.5200005 0 0 0 3 6 4 0 0 0 12.1904974
1540 5 -0.2651 -9.4049997 -23.2099991 0 0 0 3 8 4 0 0 0 12.4874239
1546 4 -9.4890003 -42.2599983 -38.2799988 0 0 0 3 8 3 0 0 0 12.1886606
1552 4 -33.1899986 -40.4000015 -29.7099991 0 0 0 2 10 2 0 0 0 11.9655504
1555 2 -12.79 -19.2800007 -42.0299988 0 0 0 1 10 2 0 0 0 11.9391814
1563 5 -3.092 -30.6299992 -16.6299992 0 0 0 2 8 4 0 0 0 12.1114016
1566 5 -5.8179999 -7.8280001 -18.3400002 0 0 1 1 9 4 0 0 0 12.7091809
1585 4 -33.7900009 -27.6800003 -6.4060001 0 0 0 1 10 3 0 0 0 12.058959
1593 2 -22.7299996 -3.886 -29.1800003 0 0 0 1 10 2 0 0 0 11.8347559
1595 4 -36.2999992 -17.3099995 -28.7700005 0 0 2 2 8 3 0 0 0 12.7496109
1597 5 -5.2449999 -17.4400006 -6.0910001 0 0 1 1 9 4 0 0 0 13.3447886
1611 5 -14.9899998 -7.8800002 -0.2566 0 0 0 1 10 2 0 0 0 11.8116274
1617 4 -17.7299996 -2.7060001 -38.1899986 0 0 0 1 10 2 0 0 0 11.6682987
1625 2 -36.5499993 -35.0299988 -29.3400002 0 0 1 2 7 2 0 0 0 11.1647806
1626 2 -16.6800003 -35.7000008 -27.7399998 0 0 0 0 12 0 0 0 0 11.2147198
1632 5 -2.938 -23.4099999 -33.0999985 0 0 0 0 12 3 0 0 0 12.8578672
1651 2 -2.6080001 -1.852 -6.5749998 0 0 1 2 7 4 0 0 0 12.4559498
1656 4 -9.1219997 -3.935 -18.8600006 0 0 0 2 8 4 0 0 0 12.2246847
1658 4 -35.9900018 -14.7200003 -6.3540001 0 0 0 0 12 2 0 0 0 12.0520926
1660 4 -31.9400006 -5.6690002 -25.7600003 0 0 0 0 12 2 0 0 0 11.8642188
1670 2 -22.6499996 -23.1000004 -24.3899994 0 0 1 3 6 2 3 0 0 12.3583946
1671 4 -0.1453 -28.7000008 -34.8899994 0 0 1 0 9 3 0 0 0 11.7262688
1680 5 0.07736 -31.2800007 -23.3199997 0 0 0 1 10 2 0 0 0 11.6977358
1683 4 -26.5499993 -15.7399998 -38.9199982 0 0 0 3 8 2 0 0 0 11.3898153
1686 5 -9.2320004 -17.4599991 -26.5200005 0 0 0 1 10 2 0 0 0 11.9068214
1687 2 -20.6700001 -29.2099991 -30.3999996 0 0 2 2 6 2 2 0 0 11.9119588
1707 4 -14.9799996 -30.2999992 -3.3 0 0 2 0 8 4 0 0 0 12.1176586
1727 5 -17.9799996 -9.7670002 -15.6300001 0 0 0 2 8 2 0 0 0 10.9081222
1733 4 -6.916 -26.9200002 -29.1900005 0 0 1 3 5 6 0 0 0 12.6138678
1741 3 -21.7000008 -36.9300004 -36.9700012 0 0 1 3 6 4 1 0 0 12.139967
1748 2 0.1261 -9.4549999 -15.9200002 0 0 0 2 8 4 0 0 0 12.3145523
1749 5 -34.0 -24.6200009 -29.9099998 0 0 0 3 8 4 0 0 0 12.580102
1755 2 -35.8800012 -9.2080002 -20.8899994 0 0 0 3 6 4 0 0 0 11.7386666
1759 1 -15.4600001 -20.6700001 -6.6230002 0 0 0 1 10 2 0 0 0 12.0509138
1771 5 -16.9599992 -13.4399996 -14.2799997 0 0 0 1 10 2 0 0 0 12.3409329
1772 2 -16.8299999 -10.2600002 -4.8260002 0 0 0 2 8 1 0 0 0 11.6341849
1786 2 -9.4569998 -18.7299996 -1.6 0 0 1 2 7 3 0 0 0 11.4674616
1795 2 -8.7880001 -8.8219996 -11.7200003 0 0 0 1 10 2 0 0 0 12.3257866
1796 4 -25.25 -4.3759999 -36.6300011 0 0 0 1 10 3 0 0 0 12.6920405
1798 5 -26.8600006 -21.1499996 -28.8999996 0 0 0 2 8 4 0 0 0 12.2055321
1804 5 -33.7700005 -14.6700001 -32.5800019 0 0 0 1 10 4 0 0 0 13.4663058
1810 2 -24.5 -39.9399986 -31.6100006 0 0 0 0 12 0 0 0 0 11.2364998
1826 4 -39.3899994 -39.5 -11.9700004 0 0 0 2 8 4 0 0 0 12.6113568
1834 1 -10.7299996 -27.3899994 -16.0100002 0 0 2 3 3 5 1 0 0 11.7914381
1835 2 -12.5100003 -2.965 -15.4899998 0 0 1 2 7 4 0 0 0 12.2575159
1844 2 -27.0699997 -42.1500015 -29.5799999 0 0 1 3 5 4 0 0 0 11.6897745
1849 5 -6.5149999 -32.0400009 -9.3780003 0 0 0 1 10 3 0 0 0 12.2674494
1850 4 -26.1399994 -27.3999996 -19.4500008 0 0 0 3 10 1 0 0 0 13.7411251
1855 2 -1.7790001 -36.3300018 -18.2399998 0 0 0 3 6 4 0 0 0 11.9753238
1870 5 -10.3100004 -30.3600006 -25.8199997 0 0 0 0 12 2 0 0 0 12.2321949
1876 4 -31.2199993 -29.0200005 -35.9900018 0 0 0 1 12 2 0 0 0 12.7520294
1893 4 -26.8299999 -7.276 -19.9899998 0 0 0 0 12 4 0 0 0 13.0818558
1908 2 -34.2900009 -9.0380001 -24.9300004 0 0 0 0 12 0 0 0 0 10.4933386
1914 2 -26.5499993 -6.5890003 -36.0600014 0 0 0 0 12 0 0 0 0 10.8782264
1919 4 -8.1230002 -11.8199997 -1.9170002 0 0 0 1 10 3 0 0 0 12.3923025
1923 4 -7.7150002 -7.5549999 -9.8990002 0 0 1 4 3 7 0 0 0 12.2967615
1927 2 -35.8899994 -28.2199993 -35.0400009 0 0 0 1 10 4 0 0 0 12.1166134
1928 2 -31.0100002 -11.8299999 -12.1300001 0 0 0 4 4 6 0 0 0 11.7616463
1934 3 -25.5499993 -20.6000004 -21.8799992 0 0 0 0 12 2 0 0 0 13.077981
1937 4 -32.9700012 -41.2099991 -24.4799996 0 0 1 2 8 4 1 0 0 12.9003602
1955 5 -20.1700001 -7.4619999 -8.9250002 0 0 1 4 3 6 0 0 0 11.4985543
1958 5 -28.5400009 -0.9441 -11.1400003 0 0 0 0 12 0 0 0 0 11.0758009
1960 4 -25.5900002 -35.0299988 -16.3500004 0 0 1 2 7 5 0 0 0 12.5546723
1967 4 -13.8999996 -9.6689997 -30.1900005 0 0 0 1 10 2 0 0 0 11.9086906
1980 2 -10.8599998 -14.0 -39.1800003 0 0 0 2 8 2 0 0 0 11.701891
1989 2 1.811 -19.6800003 -13.2299996 0 0 0 5 6 2 0 0 0 12.1029997
2006 4 -19.5300007 -40.4399987 -38.3100014 0 0 0 3 10 4 0 0 0 13.7761755
2013 4 -13.1000004 -13.3800001 -1.67 0 0 0 1 10 5 0 0 0 13.1547594
2014 4 -10.54 -42.6599999 -9.8210001 0 0 0 3 8 1 0 0 0 11.187829
2021 5 -35.6800003 -20.3299999 -42.0499992 0 0 0 1 10 4 0 0 0 13.3223438
2034 4 -27.0 -30.4400006 -39.2599983 0 0 0 4 4 6 0 0 0 10.9819518
2038 4 -1.872 -2.033 -34.9199982 0 0 1 2 7 3 2 0 0 12.6580305
2055 1 -3.0539999 -17.1599999 -40.6399994 0 0 0 0 12 0 0 0 0 11.065979
2062 4 -28.2399998 -33.4799996 -21.4799996 0 0 0 1 10 2 0 0 0 11.9483614
2079 4 -5.8220001 -11.3000002 -30.0 0 0 1 3 5 6 0 0 0 12.6858273
2085 4 -12.8500004 -38.9500008 -28.1900005 0 0 0 2 8 5 0 0 0 13.1009598
2090 2 -2.8670002 -21.8899994 -5.6919999 0 0 0 0 12 0 0 0 0 11.5112524
2108 1 -23.0599995 -15.8800002 -0.2628 0 0 0 0 12 0 0 0 0 10.7640925
2110 1 -9.2419996 -19.4699993 -32.5200005 0 0 0 3 6 4 0 0 0 12.1510887
2113 1 -35.9099998 -3.8169999 -31.25 0 0 0 0 12 0 0 0 0 10.9160404
2118 5 -7.1539998 -15.2200003 -22.2299996 0 0 1 2 7 5 0 0 0 11.9437476
2133 1 -14.9300004 -42.3199997 -42.4700012 0 0 0 0 12 0 0 0 0 10.5733958
2147 4 -37.0 -13.9300004 -19.9599992 0 0 0 1 10 4 0 0 0 12.467701
2149 4 -13.2299996 -28.9500008 -37.2400017 0 0 0 1 10 2 0 0 0 12.4219609
2161 2 -12.7799998 -33.2700005 -8.4610005 0 0 1 1 9 3 0 0 0 11.8360586
2177 4 -19.9099998 -0.03839 -25.2399998 0 0 1 1 8 3 1 0 0 12.3138466
2195 2 -21.7800007 -35.9099998 -15.1800003 0 0 0 2 8 4 0 0 0 11.9386768
2208 4 -37.1699982 -28.0 -39.2900009 0 0 1 1 9 4 0 0 0 12.988019
2216 5 -14.7600003 -18.0499992 -29.3400002 0 0 0 0 12 2 0 0 0 12.2607098
2229 4 -27.8700008 -35.9599992 -25.6599999 0 0 0 2 10 2 0 0 0 12.5676842
2232 5 -37.2599983 -26.9200002 -10.1499996 0 0 0 0 12 2 0 0 0 12.8723326
2234 5 -30.1499996 -22.6800003 -33.3400002 0 0 0 3 6 5 0 0 0 12.2689304
2238 4 -26.3600006 -11.8199997 -14.3800001 0 0 0 0 10 2 0 0 0 11.3120241
2243 2 -14.6300001 -25.5400009 -15.7600003 0 0 0 1 10 2 0 0 0 11.6913252
2246 4 -27.2999992 -7.3860002 -4.79 0 0 0 0 12 2 0 0 0 11.9918756
2247 2 -16.7099991 -25.4799996 -19.0 0 0 0 2 8 1 0 0 0 10.6657248
2256 4 -15.3500004 -15.6999998 -41.5499993 0 0 0 0 12 4 0 0 0 13.3201313
2265 5 -3.9130002 -35.1800003 -17.2199993 0 0 0 2 8 4 0 0 0 12.1341562
2266 2 -9.9919996 -3.5969999 -24.9400006 0 0 0 3 6 4 0 0 0 12.2570868
2270 5 -22.1800003 -20.5200005 -35.0200005 0 0 0 3 8 2 0 0 0 11.9707376
2272 4 -21.4400006 -24.1399994 -39.0200005 0 0 0 1 10 2 0 0 0 12.1646872
2277 5 -11.4499998 -27.8199997 -42.1899986 0 0 0 0 12 2 0 0 0 11.989895
2278 4 -38.8499986 -36.0200005 -37.2700005 0 0 0 2 8 4 0 0 0 12.6584597
2282 4 -29.5200005 -37.1599999 -5.8400002 0 0 1 1 9 3 0 0 0 12.2378311
2283 4 -4.6820002 -15.4300003 -21.9599992 0 0 0 3 6 4 0 0 0 11.2865934
2287 4 -27.1599999 -7.0739999 -15.8299999 0 0 1 1 9 4 0 0 0 12.6059275
2288 4 -17.8299999 -2.408 -22.25 0 0 1 1 9 3 0 0 0 12.3842726
2294 4 -27.5200005 -5.1259999 -37.9099998 0 0 0 0 12 2 0 0 0 11.8115025
2295 5 -21.2600002 -26.7099991 -39.6699982 0 0 0 0 12 3 0 0 0 12.6920786
2298 4 -19.7099991 -21.6200009 -15.1400003 0 0 0 2 8 4 0 0 0 12.5953293
2309 4 -16.3299999 -10.8100004 -24.3099995 0 0 0 2 9 3 1 0 0 13.091444
2313 4 -6.527 -35.2700005 -4.197 0 0 0 5 5 4 1 0 0 12.5001211
2315 2 -36.8499986 -38.8100014 -21.1499996 0 0 0 0 12 0 0 0 0 11.7051726
2322 1 -25.1399994 -13.6499996 -11.1899996 0 0 1 1 9 0 2 0 0 11.2996769
2346 5 -11.87 -20.1100006 -37.9900018 0 0 0 1 10 2 0 0 0 11.4826451
2347 4 -30.0900002 -1.861 -1.056 0 0 1 5 5 3 0 0 0 12.4307785
2355 4 1.273 -20.7399998 -35.4799996 0 0 0 4 6 4 0 0 0 13.1218615
2365 2 -3.652 -8.2650004 -26.7700005 0 0 0 2 8 2 0 0 0 11.683403
2388 4 -21.4400006 -30.0 -8.1199999 0 0 0 1 10 4 0 0 0 13.4978295
2394 2 -20.6599999 -5.9390002 -6.934 0 0 1 3 7 2 0 0 0 11.4427138
2412 5 -31.6800003 -37.5200005 -9.7189999 0 0 0 1 10 3 0 0 0 12.441761
2414 1 -14.9899998 -37.9500008 -7.993 0 0 0 0 12 0 0 0 0 11.246294
2423 5 -4.5479999 -17.5900002 -32.4599991 0 0 0 2 8 5 0 0 0 12.952796
2446 5 -10.8599998 -10.5200005 -18.8999996 0 0 0 1 10 2 0 0 0 11.3536568
2457 1 -34.2599983 -40.6800003 -12.96 0 0 0 1 10 2 0 0 0 11.7569752
2464 4 -18.0400009 -35.0 -14.5699997 0 0 0 0 12 0 0 0 0 11.359169
2469 5 -6.776 -5.8909998 -37.0099983 0 0 0 1 9 3 1 0 0 12.5987425
2479 4 -12.4700003 -3.4419999 -8.2329998 0 0 0 1 10 3 0 0 0 12.0587111
2492 2 -4.8039999 -12.6499996 -28.2099991 0 0 0 1 10 2 0 0 0 12.1259146
2499 4 -10.1099997 -38.7999993 -0.8093 0 0 1 1 9 4 0 0 0 12.0507689
2506 2 -11.6400004 -37.0200005 -11.2200003 0 0 0 2 10 1 0 0 0 11.9108954
2507 2 -26.6700001 -40.1199989 -32.9799996 0 0 0 1 10 2 0 0 0 11.7748375
2509 4 -17.8199997 -11.3299999 -41.2299996 0 0 0 4 4 5 0 0 0 11.8240557
2515 4 -17.6399994 -0.1869 -10.2600002 0 0 0 2 8 4 0 0 0 11.8612834
2529 4 -35.2799988 -15.6400004 -37.9099998 0 0 1 2 9 1 0 0 0 11.378479
2536 5 -18.7600003 -3.7660001 -26.1599999 0 0 0 0 12 0 0 0 0 11.9825936
2537 5 -0.4086 -11.1000004 -25.5499993 0 0 0 0 12 0 0 0 0 11.5100184
2542 2 -5.566 -19.3999996 -37.8899994 0 0 0 2 10 0 0 0 0 11.3866663
2545 2 -17.9799996 -20.9400006 -37.6599999 0 0 0 0 12 0 0 0 0 11.4901505
2570 2 -19.9599992 -28.6700001 -38.1899986 0 0 0 0 12 0 0 0 0 10.8740292
2574 4 -29.0699997 -1.133 -26.5799999 0 0 0 2 8 6 0 0 0 13.0400324
2585 3 -31.6800003 -4.9889998 -3.2160001 0 0 2 2 7 2 3 0 0 13.1315537
2593 4 -17.8700008 -29.5499993 -39.2299996 0 0 0 1 10 3 0 0 0 11.7177544
2597 5 -36.8600006 -32.8800012 -21.1299992 0 0 0 0 12 0 0 0 0 11.1879139
2606 4 -8.2449999 -31.5400009 -7.1459999 0 0 0 3 8 2 0 0 0 12.2810307
2614 4 -27.9400006 -15.25 -2.87 0 0 0 4 4 5 0 0 0 12.5363159
2620 4 -3.655 -25.9899998 -5.8660002 0 0 1 1 9 0 2 0 0 12.0861597
2621 2 -1.102 -2.8369999 -19.4300003 0 0 0 3 6 4 0 0 0 11.2932768
2634 2 -22.1499996 -32.0099983 -9.5959997 0 0 0 4 4 6 0 0 0 11.9173594
2635 2 -28.4899998 -19.0699997 -4.2189999 0 0 0 0 12 0 0 0 0 11.5387097
2646 5 -14.5 -29.6800003 -10.5900002 0 0 0 0 12 2 0 0 0 12.2953158
2649 4 -38.0299988 -40.5800019 -4.5780001 0 0 0 3 8 4 0 0 0 13.2278662
2659 2 -28.4899998 -22.7299996 -25.0400009 0 0 0 2 8 2 0 0 0 11.5709391
2665 5 -20.6800003 -19.5499993 -41.5200005 0 0 1 2 8 3 1 0 0 12.9065456
2667 4 -34.4199982 -22.8199997 -13.3900004 0 0 0 3 8 3 0 0 0 12.7795878
2690 4 -19.9599992 -2.003 -4.8270002 0 0 0 2 8 2 0 0 0 11.8103667
2691 2 1.4 -3.881 -2.4719999 0 0 0 0 12 0 0 0 0 10.9499092
2694 4 -18.4899998 -32.8800012 -32.6800003 0 0 0 1 10 3 0 0 0 12.1776295
2704 5 -6.5110002 -5.4889999 -39.6699982 0 0 0 3 6 6 0 0 0 12.7038412
2711 5 -7.2529998 -16.3700009 -17.2099991 0 0 0 2 8 3 0 0 0 11.996788
2713 2 -27.0200005 -20.0599995 -41.9000016 0 0 1 3 5 6 0 0 0 12.5781412
2717 2 -23.5 -25.1000004 -39.7900009 0 0 0 2 8 2 0 0 0 11.9034252
2721 2 -2.1270001 -13.7700005 -32.1300011 0 0 0 0 12 0 0 0 0 11.3939648
2731 4 -34.4700012 -35.1399994 -18.1800003 0 0 1 2 7 3 2 0 0 12.8651706
2740 1 -1.983 -18.7299996 -1.923 0 0 1 2 7 4 0 0 0 11.447649
2749 4 -11.8199997 -16.0900002 -38.0299988 0 0 0 4 4 7 0 0 0 13.1075945
2764 2 -24.5699997 -34.7200012 -1.941 0 0 0 0 12 0 0 0 0 11.3927603
2765 5 -2.955 -16.1599999 -5.4489999 0 0 0 4 4 6 0 0 0 12.4224463
2766 4 -23.5599995 -23.6499996 -26.7000008 0 0 0 3 8 2 0 0 0 11.7653942
2769 4 -19.1599999 -30.2999992 -15.0600004 0 0 0 3 8 3 0 0 0 12.7493925
2778 4 -15.7100001 -29.4300003 -17.6000004 0 0 1 2 8 2 1 0 0 12.324379
2783 4 -10.3900004 -29.5200005 -21.7000008 0 0 0 3 6 4 0 0 0 11.9553462
2800 5 -29.6000004 -43.2700005 -8.3570004 0 0 0 3 6 4 0 0 0 10.8135634
2802 5 -29.0200005 -26.6200009 -13.29 0 0 1 4 5 2 2 0 0 12.9455814
2818 4 -31.1900005 -15.1099997 -17.7700005 0 0 1 3 5 6 0 0 0 12.9196158
2823 2 -19.8099995 -30.0300007 -17.5 0 0 1 2 7 3 0 0 0 11.4089193
2825 5 -16.9599992 -9.1560001 -20.4400006 0 0 0 1 10 2 0 0 0 11.5452223
2832 4 -25.7600003 -1.607 -1.248 0 0 0 2 10 3 0 0 0 12.4712563
2834 5 -21.7999993 -31.9699994 -12.04 0 0 0 4 8 1 0 0 0 12.0539684
2836 4 -21.5100003 -14.2600002 -26.3199997 0 0 0 3 8 4 0 0 0 12.7754832
2839 5 -28.4400006 -16.1399994 -0.6042 0 0 0 1 10 2 0 0 0 11.3120899
2861 4 -9.5030003 -33.8199997 -31.5900002 0 0 0 2 8 4 0 0 0 12.8760242
2863 5 -24.8500004 -35.2099991 -38.2099991 0 0 0 1 10 4 0 0 0 12.4707909
2878 2 -14.5900002 -18.0599995 -14.4799996 0 0 0 3 6 3 0 0 0 11.264349
2884 2 -16.7900009 -32.7700005 -18.9699994 0 0 0 0 12 0 0 0 0 11.4740515
2910 4 -25.1800003 -1.016 -23.8500004 0 0 1 2 8 3 1 0 0 12.6343718
2945 5 -4.4510002 -24.3799992 -17.3500004 0 0 0 4 5 4 1 0 0 12.3568487
2954 5 -20.0799999 -35.3899994 -38.9099998 0 0 0 0 12 2 0 0 0 12.3832474
2956 2 -18.2700005 -32.0900002 -28.5200005 0 0 1 3 5 4 0 0 0 11.7335682
2962 4 1.7710001 -12.1400003 -39.9099998 0 0 0 1 10 2 0 0 0 12.0489712
2963 4 -31.6000004 -6.9390002 -41.1300011 0 0 0 2 10 3 0 0 0 12.6616402
2964 2 -1.5340001 -26.7399998 -5.1230002 0 0 0 6 4 3 0 0 0 11.7650662
2973 4 -37.0800018 -19.4099999 -29.3400002 0 0 0 3 6 2 2 0 0 11.8057966
2979 4 -25.8999996 -32.7299996 -0.8456 0 0 0 0 12 3 0 0 0 13.7069502
2992 4 -34.5400009 -2.435 -37.3600006 0 0 0 3 8 4 0 0 0 12.365818
2997 5 1.614 -18.3500004 -27.2299996 0 0 0 3 7 2 1 0 0 12.1231251
2998 2 -34.2000008 -37.7599983 -9.1420002 0 0 0 2 8 2 0 0 0 11.4870587
3012 4 -37.5999985 -29.0200005 -3.8350001 0 0 0 1 10 5 0 0 0 13.014183
3014 5 -14.3599997 -2.98 -30.1499996 0 0 0 1 12 1 0 0 0 12.4719372
3016 1 -6.6700001 -38.7599983 -38.2099991 0 0 0 0 12 0 0 0 0 11.1949358
3025 5 -13.6099997 -9.1070004 -36.4799996 0 0 0 2 8 3 1 0 0 12.1277733
3032 4 -36.8100014 -35.1399994 -17.9400006 0 0 0 1 10 2 0 0 0 12.1922646
3049 4 -30.8199997 -13.5200005 -36.7400017 0 0 0 2 8 5 0 0 0 12.430212
3056 5 -12.5100003 -32.4500008 -12.9899998 0 0 0 5 6 3 0 0 0 11.4961119
3059 4 -25.5200005 -30.1399994 -15.2399998 0 0 0 1 10 4 0 0 0 13.1458168
3072 4 -20.2800007 -13.8100004 -33.4399987 0 0 0 1 10 4 0 0 0 12.1956682
3076 2 -30.7600003 -10.4799996 -43.2799988 0 0 0 1 12 1 0 0 0 12.2270918
3078 1 -0.4485 -37.7400017 -5.6950002 0 0 1 0 9 3 0 0 0 11.5243178
3093 2 -3.478 -13.9899998 -30.0499992 0 0 1 1 9 3 0 0 0 11.2529097
3095 4 -25.75 -16.1700001 -20.8899994 0 0 0 3 6 5 0 0 0 12.3280935
3096 2 -33.9300004 -31.4099999 -41.3800011 0 0 1 4 4 3 3 0 0 12.5853091
3099 5 -1.0420001 -25.8600006 -11.3800001 0 0 0 1 12 2 0 0 0 12.9467382
3100 2 -18.1399994 -43.1199989 -17.4500008 0 0 0 0 12 2 0 0 0 12.3001061
3104 1 -19.6700001 -9.9530002 -37.5699997 0 0 1 3 6 2 1 0 0 11.9007026
3117 2 -26.6499996 -2.955 -18.0300007 0 0 0 1 10 2 0 0 0 12.2044153
3134 5 -32.7200012 -17.1499996 -41.5900002 0 0 1 2 6 3 1 0 0 11.8597032
3135 4 0.9717 -23.2000008 -19.5400009 0 0 0 2 8 4 0 0 0 12.690012
3138 5 -8.7209997 -9.3079996 -22.2099991 0 0 0 2 8 5 0 0 0 12.3678684
3146 4 -12.5 -19.3099995 -14.3100004 0 0 0 1 10 3 0 0 0 11.9304486
3159 5 -32.6800003 -34.4500008 -21.7000008 0 0 1 3 4 4 1 0 0 11.1385775
3182 4 -6.1479998 -38.2999992 -29.5599995 0 0 0 4 6 5 0 0 0 12.8400278
3188 5 -14.0299997 -22.6499996 -22.0599995 0 0 0 3 6 4 0 0 0 11.6574097
3193 5 -32.1699982 -35.4199982 -3.6640001 0 0 0 0 12 0 0 0 0 11.1523895
3200 2 -11.54 -2.774 -29.5599995 0 0 0 0 12 0 0 0 0 10.8524694
3201 4 -12.7200003 -29.4400006 -26.25 0 0 0 1 10 2 0 0 0 11.7683535
3202 5 -22.9400006 -35.7599983 -12.3100004 0 0 0 3 6 6 0 0 0 11.8292265
3218 2 -27.9799996 -2.8180001 -9.7659998 0 0 0 3 6 4 0 0 0 11.9217596
3219 5 -2.651 -36.8100014 -38.75 0 0 0 2 9 1 1 0 0 12.5332175
3224 4 -15.4899998 -30.4200001 -0.9169 0 0 1 3 4 5 1 0 0 12.938199
3229 5 2.7909999 -0.1258 -3.3989999 0 0 0 2 10 2 0 0 0 12.0042868
3234 4 -22.3700009 -25.3400002 -0.9515 0 0 0 2 10 1 0 0 0 11.815795
3240 5 -27.2000008 -20.75 -39.2700005 0 0 0 2 8 4 0 0 0 12.2317696
3246 4 -15.3100004 -15.6199999 -25.1399994 0 0 0 4 4 8 0 0 0 13.5824671