ITEM: TIMESTEP
0
ITEM: NUMBER OF ATOMS
16384
ITEM: BOX BOUNDS pp pp pp
0.0000000000000000e+00 3.0623091160016500e+01
0.0000000000000000e+00 3.0623091160016500e+01
0.0000000000000000e+00 3.0623091160016500e+01
ITEM: ATOMS id type x y z
1 4 0 0 0
2 4 0.964567 0.964567 0
3 4 2.8937 0.964567 0
4 4 2.8937 0 0.964567
5 4 1.92913 0.964567 0.964567
32 4 0.964567 1.92913 0.964567
33 4 0 2.8937 0.964567
34 4 2.8937 1.92913 0.964567
35 4 1.92913 2.8937 0.964567
522 4 2.8937 0 2.8937
523 4 1.92913 0.964567 2.8937
553 4 0.964567 2.8937 1.92913
554 4 0 2.8937 2.8937
555 4 2.8937 2.8937 1.92913
556 4 2.8937 1.92913 2.8937
557 4 1.92913 2.8937 2.8937
8193 2 0 0 0
8194 2 0.964567 0.964567 0
8195 2 0.964567 0 0.964567
8196 2 0 0.964567 0.964567
8197 2 2.8937 0 0.964567
8226 2 0 1.92913 0
8227 2 0.964567 2.8937 0
8228 2 2.8937 1.92913 0.964567
8730 2 0.964567 0.964567 1.92913
8731 2 0 0.964567 2.8937
8732 2 2.8937 0.964567 1.92913
8733 2 2.8937 0 2.8937
8734 2 1.92913 0.964567 2.8937
8760 2 1.92913 1.92913 1.92913
8761 2 2.8937 2.8937 1.92913
6 4 4.82283 0 0.964567
7 4 3.85827 0.964567 0.964567
8 4 6.75197 0.964567 0
9 4 6.75197 0 0.964567
10 4 5.7874 0.964567 0.964567
36 4 3.85827 1.92913 0
37 4 4.82283 2.8937 0
38 4 4.82283 1.92913 0.964567
39 4 3.85827 2.8937 0.964567
40 4 6.75197 2.8937 0
41 4 6.75197 1.92913 0.964567
42 4 5.7874 2.8937 0.964567
524 4 4.82283 0 2.8937
525 4 6.75197 0.964567 1.92913
526 4 6.75197 0 2.8937
527 4 5.7874 0.964567 2.8937
558 4 3.85827 1.92913 1.92913
559 4 4.82283 1.92913 2.8937
560 4 3.85827 2.8937 2.8937
561 4 5.7874 1.92913 1.92913
562 4 6.75197 2.8937 1.92913
8198 2 3.85827 0 0
8199 2 4.82283 0.964567 0
8200 2 6.75197 0.964567 0
8229 2 3.85827 1.92913 0
8230 2 4.82283 2.8937 0
8735 2 3.85827 0 1.92913
8736 2 4.82283 0 2.8937
8737 2 3.85827 0.964567 2.8937
8738 2 6.75197 0 2.8937
8739 2 5.7874 0.964567 2.8937
8762 2 4.82283 2.8937 1.92913
8763 2 4.82283 1.92913 2.8937
8764 2 5.7874 2.8937 2.8937
11 4 7.71654 0 0
12 4 7.71654 0.964567 0.964567
43 4 7.71654 1.92913 0
44 4 8.6811 2.8937 0
45 4 7.71654 2.8937 0.964567
47 4 9.64567 2.8937 0.964567
528 4 7.71654 0 1.92913
529 4 8.6811 0 2.8937
531 4 9.64567 0.964567 2.8937
563 4 8.6811 2.8937 1.92913
564 4 8.6811 1.92913 2.8937
565 4 9.64567 1.92913 1.92913
8201 2 8.6811 0 0.964567
8203 2 9.64567 0.964567 0.964567
8231 2 7.71654 1.92913 0
8232 2 8.6811 1.92913 0.964567
8740 2 7.71654 0 1.92913
8741 2 7.71654 0.964567 2.8937
8742 2 9.64567 0.964567 2.8937
8765 2 8.6811 2.8937 1.92913
8766 2 8.6811 1.92913 2.8937
8767 2 7.71654 2.8937 2.8937
8769 2 9.64567 2.8937 2.8937
13 4 11.5748 0 0
14 4 13.5039 0 0
16 4 13.5039 0.964567 0.964567
46 4 10.6102 1.92913 0.964567
48 4 11.5748 1.92913 0
49 4 12.5394 2.8937 0
50 4 12.5394 1.92913 0.964567
51 4 11.5748 2.8937 0.964567
52 4 13.5039 2.8937 0.964567
530 4 10.6102 0 2.8937
532 4 12.5394 0.964567 1.92913
533 4 12.5394 0 2.8937
534 4 13.5039 0 1.92913
535 4 13.5039 0.964567 2.8937
566 4 10.6102 2.8937 1.92913
567 4 10.6102 1.92913 2.8937
568 4 11.5748 1.92913 1.92913
569 4 12.5394 2.8937 1.92913
570 4 12.5394 1.92913 2.8937
8202 2 10.6102 0 0.964567
8204 2 11.5748 0 0
8205 2 12.5394 0.964567 0
8206 2 11.5748 0.964567 0.964567
8207 2 13.5039 0 0
8233 2 10.6102 2.8937 0
8234 2 12.5394 2.8937 0
8235 2 12.5394 1.92913 0.964567
8236 2 13.5039 1.92913 0
8237 2 13.5039 2.8937 0.964567
8743 2 11.5748 0 1.92913
8744 2 12.5394 0.964567 1.92913
8745 2 11.5748 0.964567 2.8937
8746 2 13.5039 0 1.92913
8768 2 10.6102 2.8937 1.92913
8770 2 11.5748 1.92913 1.92913
8771 2 12.5394 2.8937 1.92913
8772 2 11.5748 2.8937 2.8937
8773 2 13.5039 1.92913 1.92913
8775 2 13.5039 2.8937 2.8937
15 4 14.4685 0 0.964567
17 4 15.4331 0 0
18 4 16.3976 0.964567 0
19 4 16.3976 0 0.964567
53 4 15.4331 1.92913 0
54 4 16.3976 2.8937 0
55 4 16.3976 1.92913 0.964567
56 4 15.4331 2.8937 0.964567
536 4 15.4331 0 1.92913
537 4 16.3976 0.964567 1.92913
538 4 16.3976 0 2.8937
539 4 15.4331 0.964567 2.8937
571 4 15.4331 1.92913 1.92913
572 4 16.3976 2.8937 1.92913
573 4 16.3976 1.92913 2.8937
574 4 15.4331 2.8937 2.8937
8208 2 14.4685 0 0.964567
8209 2 16.3976 0.964567 0
8238 2 15.4331 1.92913 0
8239 2 16.3976 2.8937 0
8747 2 14.4685 0 2.8937
8748 2 15.4331 0 1.92913
8749 2 15.4331 0.964567 2.8937
8774 2 14.4685 1.92913 2.8937
8776 2 16.3976 2.8937 1.92913
8777 2 15.4331 2.8937 2.8937
20 4 18.3268 0.964567 0
21 4 18.3268 0 0.964567
22 4 20.2559 0.964567 0
57 4 17.3622 1.92913 0
58 4 18.3268 2.8937 0
59 4 17.3622 2.8937 0.964567
60 4 20.2559 1.92913 0.964567
61 4 19.2913 2.8937 0.964567
540 4 19.2913 0 1.92913
575 4 17.3622 1.92913 1.92913
576 4 18.3268 2.8937 1.92913
577 4 17.3622 2.8937 2.8937
578 4 19.2913 2.8937 2.8937
8210 2 18.3268 0.964567 0
8211 2 18.3268 0 0.964567
8212 2 17.3622 0.964567 0.964567
8213 2 19.2913 0 0
8214 2 20.2559 0 0.964567
8215 2 19.2913 0.964567 0.964567
8240 2 18.3268 1.92913 0.964567
8241 2 17.3622 2.8937 0.964567
8242 2 20.2559 1.92913 0.964567
8750 2 18.3268 0.964567 1.92913
8751 2 18.3268 0 2.8937
8752 2 17.3622 0.964567 2.8937
8753 2 19.2913 0.964567 2.8937
8778 2 17.3622 1.92913 1.92913
8779 2 20.2559 1.92913 2.8937
8780 2 19.2913 2.8937 2.8937
23 4 21.2205 0 0
24 4 22.185 0.964567 0
62 4 22.185 1.92913 0.964567
63 4 23.1496 1.92913 0
541 4 21.2205 0 1.92913
542 4 22.185 0.964567 1.92913
545 4 23.1496 0.964567 2.8937
579 4 22.185 2.8937 1.92913
580 4 22.185 1.92913 2.8937
581 4 21.2205 2.8937 2.8937
8216 2 22.185 0.964567 0
8217 2 21.2205 0.964567 0.964567
8218 2 23.1496 0 0
8220 2 23.1496 0.964567 0.964567
8243 2 21.2205 1.92913 0
8244 2 22.185 2.8937 0
8245 2 23.1496 1.92913 0
8754 2 22.185 0.964567 1.92913
8755 2 22.185 0 2.8937
8756 2 23.1496 0.964567 2.8937
8781 2 22.185 1.92913 2.8937
8782 2 21.2205 2.8937 2.8937
8783 2 23.1496 1.92913 1.92913
8785 2 23.1496 2.8937 2.8937
25 4 24.1142 0.964567 0
26 4 26.0433 0.964567 0
27 4 27.0079 0 0
29 4 27.0079 0.964567 0.964567
64 4 24.1142 2.8937 0
65 4 24.1142 1.92913 0.964567
66 4 26.0433 2.8937 0
67 4 26.0433 1.92913 0.964567
68 4 27.0079 1.92913 0
543 4 24.1142 0.964567 1.92913
544 4 24.1142 0 2.8937
546 4 25.0787 0 1.92913
547 4 26.0433 0.964567 1.92913
548 4 26.0433 0 2.8937
549 4 25.0787 0.964567 2.8937
550 4 27.0079 0.964567 2.8937
582 4 24.1142 2.8937 1.92913
583 4 25.0787 1.92913 1.92913
584 4 26.0433 2.8937 1.92913
8219 2 24.1142 0.964567 0
8221 2 25.0787 0 0
8222 2 26.0433 0 0.964567
8223 2 25.0787 0.964567 0.964567
8246 2 24.1142 1.92913 0.964567
8247 2 25.0787 1.92913 0
8248 2 26.0433 2.8937 0
8249 2 26.0433 1.92913 0.964567
8250 2 25.0787 2.8937 0.964567
8251 2 27.0079 1.92913 0
8757 2 25.0787 0 1.92913
8758 2 26.0433 0 2.8937
8784 2 24.1142 2.8937 1.92913
8786 2 25.0787 2.8937 2.8937
8787 2 27.0079 1.92913 1.92913
28 4 27.9724 0 0.964567
30 4 28.937 0 0
31 4 29.9016 0.964567 0
69 4 27.9724 2.8937 0
70 4 28.937 1.92913 0
71 4 29.9016 2.8937 0
72 4 28.937 2.8937 0.964567
551 4 28.937 0 1.92913
552 4 28.937 0.964567 2.8937
585 4 27.9724 1.92913 2.8937
586 4 29.9016 2.8937 1.92913
8224 2 27.9724 0 0.964567
8225 2 28.937 0 0
8252 2 28.937 1.92913 0
8253 2 29.9016 2.8937 0
8254 2 29.9016 1.92913 0.964567
8255 2 28.937 2.8937 0.964567
8759 2 29.9016 0.964567 1.92913
8788 2 27.9724 1.92913 2.8937
8789 2 29.9016 2.8937 1.92913
73 4 0.964567 3.85827 0.964567
74 4 2.8937 3.85827 0.964567
75 4 1.92913 4.82283 0.964567
98 4 0.964567 6.75197 0
99 4 0.964567 5.7874 0.964567
100 4 0 6.75197 0.964567
101 4 1.92913 5.7874 0
102 4 2.8937 6.75197 0
103 4 2.8937 5.7874 0.964567
587 4 0 3.85827 1.92913
588 4 0.964567 4.82283 1.92913
589 4 0.964567 3.85827 2.8937
590 4 2.8937 4.82283 1.92913
591 4 1.92913 4.82283 2.8937
611 4 0 6.75197 2.8937
612 4 2.8937 6.75197 1.92913
8256 2 0.964567 3.85827 0.964567
8257 2 0 4.82283 0.964567
8258 2 1.92913 3.85827 0
8259 2 2.8937 4.82283 0
8295 2 0 5.7874 0
8296 2 1.92913 5.7874 0
8297 2 2.8937 6.75197 0
8298 2 2.8937 5.7874 0.964567
8790 2 0 3.85827 1.92913
8791 2 0.964567 3.85827 2.8937
8792 2 0 4.82283 2.8937
8793 2 1.92913 3.85827 1.92913
8794 2 2.8937 4.82283 1.92913
8795 2 1.92913 4.82283 2.8937
8824 2 0 5.7874 1.92913
8825 2 0.964567 6.75197 1.92913
8826 2 1.92913 5.7874 1.92913
76 4 5.7874 3.85827 0
77 4 6.75197 3.85827 0.964567
104 4 3.85827 5.7874 0
105 4 4.82283 5.7874 0.964567
106 4 6.75197 6.75197 0
107 4 6.75197 5.7874 0.964567
613 4 3.85827 5.7874 1.92913
614 4 4.82283 6.75197 1.92913
615 4 3.85827 6.75197 2.8937
616 4 6.75197 6.75197 1.92913
617 4 5.7874 6.75197 2.8937
8260 2 3.85827 3.85827 0
8261 2 4.82283 3.85827 0.964567
8262 2 3.85827 4.82283 0.964567
8263 2 5.7874 3.85827 0
8264 2 5.7874 4.82283 0.964567
8299 2 3.85827 5.7874 0
8300 2 4.82283 6.75197 0
8301 2 5.7874 5.7874 0
8302 2 6.75197 6.75197 0
8303 2 5.7874 6.75197 0.964567
8796 2 4.82283 3.85827 2.8937
8797 2 3.85827 4.82283 2.8937
8798 2 6.75197 4.82283 1.92913
8799 2 5.7874 4.82283 2.8937
8827 2 3.85827 5.7874 1.92913
8828 2 4.82283 6.75197 1.92913
8829 2 6.75197 6.75197 1.92913
8830 2 5.7874 6.75197 2.8937
78 4 8.6811 3.85827 0.964567
108 4 9.64567 5.7874 0
592 4 7.71654 3.85827 1.92913
593 4 8.6811 3.85827 2.8937
594 4 9.64567 3.85827 1.92913
618 4 9.64567 5.7874 1.92913
8265 2 7.71654 3.85827 0
8266 2 8.6811 4.82283 0
8267 2 8.6811 3.85827 0.964567
8268 2 9.64567 3.85827 0
8304 2 8.6811 6.75197 0
8305 2 8.6811 5.7874 0.964567
8800 2 7.71654 4.82283 2.8937
8831 2 7.71654 5.7874 1.92913
8832 2 7.71654 6.75197 2.8937
79 4 10.6102 4.82283 0
80 4 10.6102 3.85827 0.964567
81 4 11.5748 3.85827 0
82 4 12.5394 3.85827 0.964567
83 4 13.5039 4.82283 0.964567
109 4 10.6102 6.75197 0
110 4 10.6102 5.7874 0.964567
111 4 11.5748 5.7874 0
112 4 12.5394 5.7874 0.964567
113 4 11.5748 6.75197 0.964567
114 4 13.5039 5.7874 0
117 4 13.5039 6.75197 0.964567
595 4 10.6102 4.82283 1.92913
596 4 11.5748 3.85827 1.92913
597 4 12.5394 3.85827 2.8937
598 4 13.5039 3.85827 1.92913
619 4 10.6102 5.7874 2.8937
620 4 12.5394 6.75197 1.92913
622 4 13.5039 6.75197 2.8937
8269 2 10.6102 4.82283 0
8270 2 10.6102 3.85827 0.964567
8271 2 12.5394 4.82283 0
8272 2 11.5748 4.82283 0.964567
8273 2 13.5039 4.82283 0.964567
8306 2 10.6102 6.75197 0
8307 2 12.5394 6.75197 0
8308 2 11.5748 6.75197 0.964567
8309 2 13.5039 5.7874 0
8311 2 13.5039 6.75197 0.964567
8801 2 10.6102 4.82283 1.92913
8802 2 10.6102 3.85827 2.8937
8803 2 11.5748 4.82283 2.8937
8804 2 13.5039 3.85827 1.92913
8833 2 12.5394 6.75197 1.92913
84 4 16.3976 3.85827 0.964567
115 4 14.4685 6.75197 0
116 4 14.4685 5.7874 0.964567
118 4 15.4331 6.75197 0.964567
599 4 14.4685 4.82283 1.92913
600 4 14.4685 3.85827 2.8937
601 4 16.3976 4.82283 1.92913
602 4 15.4331 4.82283 2.8937
621 4 14.4685 6.75197 1.92913
623 4 15.4331 5.7874 1.92913
624 4 16.3976 6.75197 1.92913
625 4 15.4331 6.75197 2.8937
8274 2 15.4331 3.85827 0
8275 2 16.3976 4.82283 0
8276 2 15.4331 4.82283 0.964567
8310 2 14.4685 5.7874 0.964567
8312 2 15.4331 5.7874 0
8313 2 16.3976 6.75197 0
8805 2 16.3976 4.82283 1.92913
8806 2 16.3976 3.85827 2.8937
8807 2 15.4331 4.82283 2.8937
8834 2 14.4685 6.75197 1.92913
8835 2 15.4331 5.7874 1.92913
8836 2 16.3976 6.75197 1.92913
8837 2 15.4331 6.75197 2.8937
85 4 18.3268 4.82283 0
86 4 17.3622 4.82283 0.964567
87 4 20.2559 3.85827 0.964567
88 4 19.2913 4.82283 0.964567
119 4 17.3622 5.7874 0
120 4 18.3268 6.75197 0
121 4 18.3268 5.7874 0.964567
122 4 17.3622 6.75197 0.964567
123 4 19.2913 5.7874 0
124 4 20.2559 5.7874 0.964567
603 4 17.3622 3.85827 1.92913
626 4 17.3622 5.7874 1.92913
627 4 18.3268 5.7874 2.8937
628 4 19.2913 5.7874 1.92913
629 4 20.2559 6.75197 1.92913
630 4 19.2913 6.75197 2.8937
8277 2 17.3622 3.85827 0
8278 2 18.3268 4.82283 0
8279 2 18.3268 3.85827 0.964567
8280 2 17.3622 4.82283 0.964567
8281 2 19.2913 3.85827 0
8282 2 20.2559 4.82283 0
8283 2 20.2559 3.85827 0.964567
8314 2 17.3622 5.7874 0
8315 2 18.3268 5.7874 0.964567
8316 2 19.2913 5.7874 0
8808 2 17.3622 4.82283 2.8937
8809 2 20.2559 4.82283 1.92913
8810 2 20.2559 3.85827 2.8937
8811 2 19.2913 4.82283 2.8937
8838 2 18.3268 6.75197 1.92913
8839 2 19.2913 5.7874 1.92913
8840 2 20.2559 6.75197 1.92913
8841 2 20.2559 5.7874 2.8937
8842 2 19.2913 6.75197 2.8937
89 4 22.185 3.85827 0.964567
90 4 21.2205 4.82283 0.964567
92 4 23.1496 4.82283 0.964567
127 4 23.1496 6.75197 0.964567
604 4 21.2205 3.85827 1.92913
605 4 23.1496 4.82283 2.8937
631 4 22.185 5.7874 2.8937
632 4 21.2205 6.75197 2.8937
633 4 23.1496 5.7874 1.92913
8284 2 22.185 4.82283 0
8285 2 23.1496 3.85827 0
8317 2 21.2205 5.7874 0
8318 2 21.2205 6.75197 0.964567
8812 2 21.2205 3.85827 1.92913
8813 2 22.185 4.82283 1.92913
8814 2 22.185 3.85827 2.8937
8815 2 21.2205 4.82283 2.8937
8816 2 23.1496 3.85827 1.92913
8819 2 23.1496 4.82283 2.8937
8843 2 22.185 6.75197 1.92913
8844 2 21.2205 6.75197 2.8937
8845 2 23.1496 6.75197 2.8937
91 4 24.1142 4.82283 0
93 4 25.0787 4.82283 0.964567
94 4 27.0079 3.85827 0
125 4 24.1142 6.75197 0
126 4 24.1142 5.7874 0.964567
128 4 25.0787 5.7874 0
129 4 26.0433 5.7874 0.964567
130 4 27.0079 5.7874 0
606 4 26.0433 3.85827 2.8937
607 4 25.0787 4.82283 2.8937
608 4 27.0079 4.82283 2.8937
634 4 25.0787 6.75197 2.8937
636 4 27.0079 6.75197 2.8937
8286 2 26.0433 4.82283 0
8287 2 26.0433 3.85827 0.964567
8288 2 25.0787 4.82283 0.964567
8289 2 27.0079 3.85827 0
8291 2 27.0079 4.82283 0.964567
8319 2 26.0433 5.7874 0.964567
8320 2 25.0787 6.75197 0.964567
8321 2 27.0079 5.7874 0
8322 2 27.0079 6.75197 0.964567
8817 2 24.1142 4.82283 1.92913
8818 2 24.1142 3.85827 2.8937
8820 2 26.0433 3.85827 2.8937
8821 2 27.0079 4.82283 2.8937
8846 2 25.0787 6.75197 2.8937
8847 2 27.0079 5.7874 1.92913
8850 2 27.0079 6.75197 2.8937
95 4 28.937 3.85827 0
96 4 29.9016 4.82283 0
97 4 28.937 4.82283 0.964567
131 4 29.9016 6.75197 0
609 4 28.937 3.85827 1.92913
610 4 29.9016 4.82283 1.92913
635 4 27.9724 6.75197 1.92913
637 4 28.937 5.7874 1.92913
638 4 29.9016 5.7874 2.8937
639 4 28.937 6.75197 2.8937
8290 2 27.9724 4.82283 0
8292 2 28.937 3.85827 0
8293 2 29.9016 4.82283 0
8294 2 28.937 4.82283 0.964567
8323 2 28.937 5.7874 0
8324 2 29.9016 6.75197 0
8325 2 28.937 6.75197 0.964567
8822 2 29.9016 4.82283 1.92913
8823 2 29.9016 3.85827 2.8937
8848 2 27.9724 6.75197 1.92913
8849 2 27.9724 5.7874 2.8937
8851 2 29.9016 6.75197 1.92913
132 4 0.964567 8.6811 0
133 4 2.8937 8.6811 0
160 4 0 9.64567 0
162 4 0.964567 9.64567 0.964567
164 4 1.92913 9.64567 0
165 4 2.8937 9.64567 0.964567
640 4 0.964567 8.6811 1.92913
641 4 0.964567 7.71654 2.8937
642 4 0 8.6811 2.8937
643 4 2.8937 7.71654 2.8937
672 4 0 9.64567 1.92913
673 4 0.964567 9.64567 2.8937
675 4 1.92913 9.64567 1.92913
677 4 2.8937 9.64567 2.8937
8326 2 0.964567 8.6811 0
8327 2 0.964567 7.71654 0.964567
8328 2 0 8.6811 0.964567
8329 2 1.92913 7.71654 0
8330 2 2.8937 8.6811 0
8331 2 2.8937 7.71654 0.964567
8332 2 1.92913 8.6811 0.964567
8366 2 0 9.64567 0
8368 2 0.964567 9.64567 0.964567
8370 2 1.92913 9.64567 0
8372 2 2.8937 9.64567 0.964567
8852 2 0 7.71654 1.92913
8853 2 0.964567 8.6811 1.92913
8854 2 0.964567 7.71654 2.8937
8855 2 0 8.6811 2.8937
8856 2 1.92913 7.71654 1.92913
8857 2 2.8937 8.6811 1.92913
8858 2 2.8937 7.71654 2.8937
8859 2 1.92913 8.6811 2.8937
8880 2 0 9.64567 1.92913
8881 2 0.964567 9.64567 2.8937
8883 2 1.92913 9.64567 1.92913
8885 2 2.8937 9.64567 2.8937
134 4 4.82283 7.71654 0.964567
135 4 5.7874 8.6811 0.964567
167 4 4.82283 9.64567 0.964567
169 4 6.75197 9.64567 0.964567
644 4 6.75197 7.71654 2.8937
645 4 5.7874 8.6811 2.8937
679 4 3.85827 9.64567 1.92913
681 4 4.82283 9.64567 2.8937
682 4 5.7874 9.64567 1.92913
8333 2 3.85827 7.71654 0
8334 2 4.82283 8.6811 0
8335 2 3.85827 8.6811 0.964567
8336 2 6.75197 8.6811 0
8374 2 3.85827 9.64567 0
8377 2 6.75197 9.64567 0.964567
8860 2 4.82283 8.6811 1.92913
8861 2 3.85827 8.6811 2.8937
8862 2 5.7874 8.6811 2.8937
8886 2 3.85827 9.64567 1.92913
136 4 7.71654 8.6811 0.964567
137 4 9.64567 7.71654 0
171 4 7.71654 9.64567 0
173 4 8.6811 9.64567 0.964567
175 4 9.64567 9.64567 0
646 4 8.6811 7.71654 2.8937
647 4 7.71654 8.6811 2.8937
649 4 9.64567 8.6811 2.8937
685 4 7.71654 9.64567 1.92913
687 4 8.6811 9.64567 2.8937
688 4 9.64567 9.64567 1.92913
8337 2 8.6811 8.6811 0
8338 2 8.6811 7.71654 0.964567
8339 2 7.71654 8.6811 0.964567
8340 2 9.64567 7.71654 0
8342 2 9.64567 8.6811 0.964567
8378 2 7.71654 9.64567 0
8380 2 8.6811 9.64567 0.964567
8863 2 8.6811 8.6811 1.92913
8864 2 9.64567 7.71654 1.92913
8890 2 7.71654 9.64567 1.92913
138 4 10.6102 8.6811 0
139 4 11.5748 7.71654 0
140 4 12.5394 8.6811 0
142 4 13.5039 8.6811 0.964567
177 4 11.5748 9.64567 0
648 4 10.6102 7.71654 2.8937
650 4 12.5394 7.71654 2.8937
651 4 11.5748 8.6811 2.8937
653 4 13.5039 8.6811 2.8937
690 4 10.6102 9.64567 2.8937
692 4 12.5394 9.64567 2.8937
8341 2 10.6102 7.71654 0.964567
8343 2 12.5394 8.6811 0
8344 2 12.5394 7.71654 0.964567
8345 2 11.5748 8.6811 0.964567
8346 2 13.5039 8.6811 0.964567
8383 2 10.6102 9.64567 0.964567
8385 2 12.5394 9.64567 0.964567
8386 2 13.5039 9.64567 0
8865 2 10.6102 7.71654 2.8937
8866 2 11.5748 7.71654 1.92913
8867 2 12.5394 8.6811 1.92913
8868 2 13.5039 7.71654 1.92913
8893 2 10.6102 9.64567 2.8937
8894 2 11.5748 9.64567 1.92913
8897 2 13.5039 9.64567 1.92913
141 4 14.4685 8.6811 0
143 4 16.3976 7.71654 0.964567
144 4 15.4331 8.6811 0.964567
652 4 14.4685 8.6811 1.92913
654 4 15.4331 7.71654 1.92913
655 4 16.3976 8.6811 1.92913
656 4 16.3976 7.71654 2.8937
694 4 16.3976 9.64567 2.8937
8347 2 16.3976 8.6811 0
8348 2 15.4331 8.6811 0.964567
8869 2 14.4685 8.6811 1.92913
8870 2 16.3976 8.6811 1.92913
145 4 18.3268 8.6811 0
146 4 18.3268 7.71654 0.964567
147 4 17.3622 8.6811 0.964567
148 4 19.2913 7.71654 0
149 4 20.2559 8.6811 0
150 4 19.2913 8.6811 0.964567
180 4 17.3622 9.64567 0
183 4 19.2913 9.64567 0
657 4 17.3622 7.71654 1.92913
658 4 18.3268 8.6811 1.92913
659 4 20.2559 8.6811 1.92913
696 4 18.3268 9.64567 2.8937
8349 2 18.3268 7.71654 0.964567
8350 2 17.3622 8.6811 0.964567
8351 2 20.2559 8.6811 0
8352 2 19.2913 8.6811 0.964567
8390 2 18.3268 9.64567 0.964567
8391 2 19.2913 9.64567 0
8393 2 20.2559 9.64567 0.964567
8871 2 18.3268 8.6811 1.92913
8872 2 18.3268 7.71654 2.8937
8873 2 17.3622 8.6811 2.8937
8874 2 20.2559 8.6811 1.92913
8875 2 20.2559 7.71654 2.8937
8876 2 19.2913 8.6811 2.8937
8900 2 18.3268 9.64567 2.8937
8902 2 19.2913 9.64567 1.92913
151 4 22.185 8.6811 0
152 4 23.1496 7.71654 0
154 4 23.1496 8.6811 0.964567
184 4 21.2205 9.64567 0
660 4 21.2205 7.71654 1.92913
661 4 22.185 8.6811 1.92913
662 4 23.1496 7.71654 1.92913
698 4 21.2205 9.64567 1.92913
701 4 23.1496 9.64567 1.92913
8353 2 21.2205 7.71654 0
8354 2 22.185 7.71654 0.964567
8355 2 21.2205 8.6811 0.964567
8356 2 23.1496 7.71654 0
8358 2 23.1496 8.6811 0.964567
8395 2 23.1496 9.64567 0
8905 2 22.185 9.64567 2.8937
8906 2 23.1496 9.64567 1.92913
153 4 24.1142 8.6811 0
155 4 25.0787 7.71654 0
156 4 26.0433 7.71654 0.964567
157 4 25.0787 8.6811 0.964567
158 4 27.0079 7.71654 0
186 4 24.1142 9.64567 0.964567
188 4 26.0433 9.64567 0.964567
663 4 24.1142 8.6811 1.92913
664 4 25.0787 7.71654 1.92913
665 4 26.0433 7.71654 2.8937
666 4 25.0787 8.6811 2.8937
667 4 27.0079 7.71654 1.92913
702 4 25.0787 9.64567 1.92913
704 4 26.0433 9.64567 2.8937
705 4 27.0079 9.64567 1.92913
8357 2 24.1142 7.71654 0.964567
8359 2 26.0433 7.71654 0.964567
8360 2 25.0787 8.6811 0.964567
8396 2 24.1142 9.64567 0.964567
8398 2 25.0787 9.64567 0
8399 2 26.0433 9.64567 0.964567
8401 2 27.0079 9.64567 0
8877 2 24.1142 7.71654 2.8937
8878 2 25.0787 7.71654 1.92913
8908 2 24.1142 9.64567 2.8937
8909 2 25.0787 9.64567 1.92913
8911 2 26.0433 9.64567 2.8937
159 4 28.937 8.6811 0.964567
192 4 29.9016 9.64567 0.964567
668 4 27.9724 8.6811 1.92913
669 4 27.9724 7.71654 2.8937
670 4 29.9016 7.71654 2.8937
671 4 28.937 8.6811 2.8937
707 4 27.9724 9.64567 2.8937
709 4 28.937 9.64567 1.92913
8361 2 27.9724 8.6811 0
8362 2 28.937 7.71654 0
8363 2 29.9016 8.6811 0
8364 2 29.9016 7.71654 0.964567
8365 2 28.937 8.6811 0.964567
8879 2 29.9016 7.71654 2.8937
8914 2 27.9724 9.64567 2.8937
8916 2 28.937 9.64567 1.92913
8917 2 29.9016 9.64567 2.8937
161 4 0.964567 10.6102 0
163 4 0 10.6102 0.964567
193 4 0.964567 12.5394 0
194 4 0.964567 11.5748 0.964567
195 4 0 12.5394 0.964567
196 4 1.92913 11.5748 0
197 4 2.8937 12.5394 0
230 4 0 13.5039 0
232 4 0.964567 13.5039 0.964567
235 4 2.8937 13.5039 0.964567
674 4 0 10.6102 2.8937
676 4 2.8937 10.6102 1.92913
678 4 1.92913 10.6102 2.8937
711 4 0 11.5748 1.92913
712 4 0.964567 12.5394 1.92913
713 4 1.92913 11.5748 1.92913
714 4 1.92913 12.5394 2.8937
747 4 0 13.5039 1.92913
749 4 0.964567 13.5039 2.8937
750 4 1.92913 13.5039 1.92913
751 4 2.8937 13.5039 2.8937
8367 2 0.964567 10.6102 0
8369 2 0 10.6102 0.964567
8371 2 2.8937 10.6102 0
8373 2 1.92913 10.6102 0.964567
8404 2 1.92913 11.5748 0
8405 2 1.92913 12.5394 0.964567
8431 2 0 13.5039 0
8433 2 0.964567 13.5039 0.964567
8436 2 2.8937 13.5039 0.964567
8882 2 0 10.6102 2.8937
8884 2 2.8937 10.6102 1.92913
8918 2 0 11.5748 1.92913
8919 2 0.964567 12.5394 1.92913
8920 2 1.92913 11.5748 1.92913
8921 2 2.8937 12.5394 1.92913
8922 2 2.8937 11.5748 2.8937
8952 2 0 13.5039 1.92913
8955 2 2.8937 13.5039 2.8937
166 4 4.82283 10.6102 0
168 4 3.85827 10.6102 0.964567
170 4 5.7874 10.6102 0.964567
198 4 3.85827 11.5748 0
199 4 4.82283 12.5394 0
200 4 4.82283 11.5748 0.964567
201 4 3.85827 12.5394 0.964567
202 4 5.7874 11.5748 0
203 4 6.75197 12.5394 0
204 4 6.75197 11.5748 0.964567
237 4 4.82283 13.5039 0.964567
239 4 5.7874 13.5039 0
240 4 6.75197 13.5039 0.964567
680 4 4.82283 10.6102 1.92913
683 4 6.75197 10.6102 1.92913
684 4 5.7874 10.6102 2.8937
715 4 4.82283 12.5394 1.92913
716 4 4.82283 11.5748 2.8937
717 4 3.85827 12.5394 2.8937
718 4 5.7874 11.5748 1.92913
719 4 6.75197 12.5394 1.92913
720 4 5.7874 12.5394 2.8937
754 4 6.75197 13.5039 2.8937
8375 2 4.82283 10.6102 0
8376 2 6.75197 10.6102 0
8406 2 3.85827 11.5748 0
8407 2 4.82283 12.5394 0
8408 2 5.7874 11.5748 0
8409 2 5.7874 12.5394 0.964567
8437 2 3.85827 13.5039 0
8439 2 4.82283 13.5039 0.964567
8887 2 4.82283 10.6102 1.92913
8888 2 6.75197 10.6102 1.92913
8889 2 5.7874 10.6102 2.8937
8923 2 3.85827 11.5748 1.92913
8924 2 4.82283 12.5394 1.92913
8925 2 4.82283 11.5748 2.8937
8926 2 5.7874 11.5748 1.92913
8927 2 6.75197 12.5394 1.92913
8956 2 3.85827 13.5039 1.92913
8957 2 4.82283 13.5039 2.8937
8959 2 6.75197 13.5039 2.8937
172 4 8.6811 10.6102 0
174 4 7.71654 10.6102 0.964567
176 4 9.64567 10.6102 0.964567
205 4 8.6811 12.5394 0
206 4 8.6811 11.5748 0.964567
208 4 9.64567 12.5394 0.964567
243 4 8.6811 13.5039 0.964567
686 4 8.6811 10.6102 1.92913
721 4 7.71654 11.5748 1.92913
722 4 7.71654 12.5394 2.8937
755 4 7.71654 13.5039 1.92913
8379 2 8.6811 10.6102 0
8381 2 7.71654 10.6102 0.964567
8410 2 7.71654 11.5748 0
8411 2 8.6811 12.5394 0
8412 2 7.71654 12.5394 0.964567
8413 2 9.64567 11.5748 0
8441 2 8.6811 13.5039 0.964567
8891 2 8.6811 10.6102 1.92913
8928 2 7.71654 11.5748 1.92913
8929 2 8.6811 11.5748 2.8937
8962 2 9.64567 13.5039 1.92913
178 4 12.5394 10.6102 0
207 4 10.6102 12.5394 0
209 4 11.5748 11.5748 0
210 4 12.5394 12.5394 0
245 4 11.5748 13.5039 0
246 4 12.5394 13.5039 0.964567
689 4 10.6102 10.6102 1.92913
691 4 12.5394 10.6102 1.92913
693 4 11.5748 10.6102 2.8937
723 4 10.6102 12.5394 1.92913
724 4 10.6102 11.5748 2.8937
725 4 12.5394 11.5748 2.8937
726 4 11.5748 12.5394 2.8937
759 4 11.5748 13.5039 1.92913
8382 2 10.6102 10.6102 0
8384 2 12.5394 10.6102 0
8414 2 10.6102 11.5748 0.964567
8415 2 12.5394 12.5394 0
8416 2 12.5394 11.5748 0.964567
8417 2 13.5039 11.5748 0
8443 2 10.6102 13.5039 0.964567
8445 2 12.5394 13.5039 0.964567
8446 2 13.5039 13.5039 0
8892 2 10.6102 10.6102 1.92913
8895 2 12.5394 10.6102 1.92913
8896 2 11.5748 10.6102 2.8937
8930 2 10.6102 12.5394 1.92913
8931 2 10.6102 11.5748 2.8937
8932 2 11.5748 12.5394 2.8937
8933 2 13.5039 11.5748 1.92913
8935 2 13.5039 12.5394 2.8937
8965 2 13.5039 13.5039 1.92913
179 4 14.4685 10.6102 0
211 4 14.4685 12.5394 0
212 4 15.4331 11.5748 0
213 4 16.3976 12.5394 0
214 4 16.3976 11.5748 0.964567
215 4 15.4331 12.5394 0.964567
248 4 14.4685 13.5039 0.964567
695 4 15.4331 10.6102 2.8937
727 4 14.4685 12.5394 1.92913
728 4 15.4331 11.5748 1.92913
729 4 16.3976 12.5394 1.92913
730 4 16.3976 11.5748 2.8937
761 4 14.4685 13.5039 2.8937
763 4 16.3976 13.5039 2.8937
8387 2 14.4685 10.6102 0
8388 2 15.4331 10.6102 0.964567
8418 2 14.4685 11.5748 0.964567
8419 2 15.4331 11.5748 0
8420 2 16.3976 11.5748 0.964567
8447 2 15.4331 13.5039 0
8898 2 16.3976 10.6102 1.92913
8934 2 14.4685 12.5394 1.92913
8936 2 16.3976 12.5394 1.92913
8966 2 15.4331 13.5039 1.92913
8967 2 16.3976 13.5039 2.8937
181 4 18.3268 10.6102 0
182 4 17.3622 10.6102 0.964567
216 4 18.3268 12.5394 0
217 4 18.3268 11.5748 0.964567
218 4 19.2913 11.5748 0
219 4 20.2559 11.5748 0.964567
251 4 17.3622 13.5039 0
252 4 19.2913 13.5039 0
253 4 20.2559 13.5039 0.964567
697 4 19.2913 10.6102 2.8937
731 4 17.3622 11.5748 1.92913
732 4 18.3268 11.5748 2.8937
733 4 17.3622 12.5394 2.8937
734 4 19.2913 11.5748 1.92913
735 4 20.2559 12.5394 1.92913
765 4 17.3622 13.5039 1.92913
766 4 18.3268 13.5039 2.8937
8389 2 18.3268 10.6102 0
8392 2 20.2559 10.6102 0
8421 2 17.3622 11.5748 0
8422 2 18.3268 12.5394 0
8423 2 18.3268 11.5748 0.964567
8424 2 19.2913 11.5748 0
8425 2 20.2559 12.5394 0
8449 2 17.3622 13.5039 0
8450 2 18.3268 13.5039 0.964567
8451 2 19.2913 13.5039 0
8453 2 20.2559 13.5039 0.964567
8899 2 18.3268 10.6102 1.92913
8901 2 17.3622 10.6102 2.8937
8903 2 20.2559 10.6102 1.92913
8904 2 19.2913 10.6102 2.8937
8937 2 17.3622 11.5748 1.92913
8938 2 18.3268 12.5394 1.92913
8939 2 18.3268 11.5748 2.8937
8940 2 17.3622 12.5394 2.8937
8941 2 20.2559 12.5394 1.92913
8942 2 20.2559 11.5748 2.8937
8968 2 17.3622 13.5039 1.92913
8972 2 20.2559 13.5039 2.8937
185 4 21.2205 10.6102 0.964567
220 4 21.2205 11.5748 0
221 4 22.185 12.5394 0
699 4 22.185 10.6102 1.92913
700 4 21.2205 10.6102 2.8937
736 4 22.185 12.5394 1.92913
737 4 22.185 11.5748 2.8937
738 4 21.2205 12.5394 2.8937
739 4 23.1496 11.5748 1.92913
769 4 21.2205 13.5039 1.92913
8394 2 21.2205 10.6102 0.964567
8397 2 23.1496 10.6102 0.964567
8426 2 22.185 12.5394 0
8427 2 21.2205 12.5394 0.964567
8428 2 23.1496 12.5394 0.964567
8454 2 21.2205 13.5039 0
8456 2 23.1496 13.5039 0
8943 2 21.2205 11.5748 1.92913
8946 2 23.1496 12.5394 2.8937
187 4 26.0433 10.6102 0
189 4 25.0787 10.6102 0.964567
222 4 24.1142 12.5394 0
223 4 24.1142 11.5748 0.964567
224 4 25.0787 11.5748 0
225 4 25.0787 12.5394 0.964567
226 4 27.0079 11.5748 0
228 4 27.0079 12.5394 0.964567
256 4 24.1142 13.5039 0.964567
703 4 26.0433 10.6102 1.92913
708 4 27.0079 10.6102 2.8937
740 4 24.1142 12.5394 1.92913
741 4 26.0433 11.5748 2.8937
742 4 25.0787 12.5394 2.8937
770 4 24.1142 13.5039 2.8937
772 4 25.0787 13.5039 1.92913
8400 2 25.0787 10.6102 0.964567
8429 2 26.0433 11.5748 0.964567
8907 2 24.1142 10.6102 1.92913
8910 2 26.0433 10.6102 1.92913
8912 2 25.0787 10.6102 2.8937
8915 2 27.0079 10.6102 2.8937
8944 2 24.1142 12.5394 1.92913
8945 2 24.1142 11.5748 2.8937
8947 2 25.0787 11.5748 1.92913
8948 2 26.0433 11.5748 2.8937
8949 2 27.0079 11.5748 1.92913
8950 2 27.0079 12.5394 2.8937
8977 2 26.0433 13.5039 2.8937
190 4 27.9724 10.6102 0
191 4 29.9016 10.6102 0
227 4 27.9724 12.5394 0
229 4 29.9016 12.5394 0
259 4 29.9016 13.5039 0.964567
706 4 27.9724 10.6102 1.92913
710 4 29.9016 10.6102 1.92913
743 4 27.9724 12.5394 1.92913
744 4 27.9724 11.5748 2.8937
745 4 29.9016 12.5394 1.92913
746 4 29.9016 11.5748 2.8937
775 4 27.9724 13.5039 2.8937
776 4 28.937 13.5039 1.92913
8402 2 27.9724 10.6102 0
8403 2 29.9016 10.6102 0
8430 2 27.9724 12.5394 0
8913 2 27.9724 10.6102 1.92913
8951 2 29.9016 11.5748 2.8937
8978 2 27.9724 13.5039 2.8937
231 4 0.964567 14.4685 0
233 4 0 14.4685 0.964567
234 4 2.8937 14.4685 0
236 4 1.92913 14.4685 0.964567
260 4 0 15.4331 0
261 4 0.964567 16.3976 0
262 4 0 16.3976 0.964567
263 4 1.92913 15.4331 0
264 4 2.8937 16.3976 0
265 4 2.8937 15.4331 0.964567
266 4 1.92913 16.3976 0.964567
748 4 0.964567 14.4685 1.92913
778 4 0 15.4331 1.92913
779 4 0.964567 16.3976 1.92913
780 4 0 16.3976 2.8937
781 4 1.92913 15.4331 1.92913
782 4 1.92913 16.3976 2.8937
8432 2 0.964567 14.4685 0
8434 2 0 14.4685 0.964567
8435 2 2.8937 14.4685 0
8463 2 0.964567 16.3976 0
8464 2 0.964567 15.4331 0.964567
8465 2 0 16.3976 0.964567
8466 2 1.92913 15.4331 0
8953 2 0.964567 14.4685 1.92913
8954 2 2.8937 14.4685 1.92913
8981 2 0 15.4331 1.92913
8982 2 0.964567 15.4331 2.8937
8983 2 0 16.3976 2.8937
8984 2 1.92913 15.4331 1.92913
8985 2 2.8937 16.3976 1.92913
238 4 3.85827 14.4685 0.964567
241 4 5.7874 14.4685 0.964567
267 4 3.85827 15.4331 0
268 4 4.82283 15.4331 0.964567
269 4 5.7874 15.4331 0
270 4 6.75197 16.3976 0
271 4 5.7874 16.3976 0.964567
752 4 4.82283 14.4685 1.92913
753 4 6.75197 14.4685 1.92913
783 4 4.82283 15.4331 2.8937
784 4 5.7874 16.3976 2.8937
8438 2 4.82283 14.4685 0
8440 2 3.85827 14.4685 0.964567
8467 2 3.85827 15.4331 0
8468 2 4.82283 16.3976 0
8469 2 4.82283 15.4331 0.964567
8470 2 5.7874 15.4331 0
8958 2 6.75197 14.4685 1.92913
8960 2 5.7874 14.4685 2.8937
8986 2 3.85827 15.4331 1.92913
8987 2 4.82283 16.3976 1.92913
8988 2 4.82283 15.4331 2.8937
8989 2 3.85827 16.3976 2.8937
8990 2 6.75197 16.3976 1.92913
8991 2 6.75197 15.4331 2.8937
242 4 8.6811 14.4685 0
244 4 7.71654 14.4685 0.964567
272 4 7.71654 16.3976 0.964567
275 4 9.64567 16.3976 0.964567
756 4 8.6811 14.4685 1.92913
757 4 7.71654 14.4685 2.8937
758 4 9.64567 14.4685 2.8937
785 4 7.71654 15.4331 1.92913
786 4 8.6811 16.3976 1.92913
787 4 7.71654 16.3976 2.8937
788 4 9.64567 15.4331 1.92913
8471 2 8.6811 15.4331 0.964567
8472 2 7.71654 16.3976 0.964567
8961 2 7.71654 14.4685 2.8937
8964 2 9.64567 14.4685 2.8937
8992 2 7.71654 15.4331 1.92913
8993 2 7.71654 16.3976 2.8937
8996 2 9.64567 16.3976 2.8937
249 4 13.5039 14.4685 0.964567
273 4 10.6102 16.3976 0
274 4 10.6102 15.4331 0.964567
276 4 12.5394 15.4331 0.964567
277 4 11.5748 16.3976 0.964567
278 4 13.5039 15.4331 0
279 4 13.5039 16.3976 0.964567
760 4 11.5748 14.4685 2.8937
762 4 13.5039 14.4685 2.8937
789 4 12.5394 16.3976 1.92913
790 4 12.5394 15.4331 2.8937
791 4 11.5748 16.3976 2.8937
792 4 13.5039 15.4331 1.92913
8442 2 10.6102 14.4685 0
8444 2 12.5394 14.4685 0