ITEM: TIMESTEP
0
ITEM: NUMBER OF ATOMS
16384
ITEM: BOX BOUNDS pp pp pp
0.0000000000000000e+00 6.4570975074548898e+01
0.0000000000000000e+00 6.4570975074548898e+01
0.0000000000000000e+00 6.4570975074548898e+01
ITEM: ATOMS id type x y z
1 4 0 0 0
2 4 2.03386 2.03386 0
8193 2 0 0 0
8194 2 2.03386 2.03386 0
8195 2 2.03386 0 2.03386
8196 2 0 2.03386 2.03386
3 4 6.10157 2.03386 0
4 4 6.10157 0 2.03386
5 4 4.06772 2.03386 2.03386
8197 2 6.10157 0 2.03386
6 4 10.1693 0 2.03386
7 4 8.13543 2.03386 2.03386
8198 2 8.13543 0 0
8199 2 10.1693 2.03386 0
10 4 12.2031 2.03386 2.03386
8 4 14.237 2.03386 0
9 4 14.237 0 2.03386
11 4 16.2709 0 0
12 4 16.2709 2.03386 2.03386
8200 2 14.237 2.03386 0
8201 2 18.3047 0 2.03386
8203 2 20.3386 2.03386 2.03386
8202 2 22.3724 0 2.03386
13 4 24.4063 0 0
8204 2 24.4063 0 0
8205 2 26.4402 2.03386 0
8206 2 24.4063 2.03386 2.03386
14 4 28.474 0 0
15 4 30.5079 0 2.03386
16 4 28.474 2.03386 2.03386
8207 2 28.474 0 0
8208 2 30.5079 0 2.03386
17 4 32.5417 0 0
18 4 34.5756 2.03386 0
19 4 34.5756 0 2.03386
8209 2 34.5756 2.03386 0
8212 2 36.6094 2.03386 2.03386
20 4 38.6433 2.03386 0
21 4 38.6433 0 2.03386
8210 2 38.6433 2.03386 0
8211 2 38.6433 0 2.03386
8213 2 40.6772 0 0
8215 2 40.6772 2.03386 2.03386
22 4 42.711 2.03386 0
8214 2 42.711 0 2.03386
23 4 44.7449 0 0
24 4 46.7787 2.03386 0
8216 2 46.7787 2.03386 0
8217 2 44.7449 2.03386 2.03386
25 4 50.8465 2.03386 0
8218 2 48.8126 0 0
8219 2 50.8465 2.03386 0
8220 2 48.8126 2.03386 2.03386
8221 2 52.8803 0 0
8223 2 52.8803 2.03386 2.03386
26 4 54.9142 2.03386 0
27 4 56.948 0 0
29 4 56.948 2.03386 2.03386
8222 2 54.9142 0 2.03386
28 4 58.9819 0 2.03386
30 4 61.0157 0 0
8224 2 58.9819 0 2.03386
8225 2 61.0157 0 0
31 4 63.0496 2.03386 0
32 4 2.03386 4.06772 2.03386
33 4 0 6.10157 2.03386
8226 2 0 4.06772 0
8227 2 2.03386 6.10157 0
34 4 6.10157 4.06772 2.03386
35 4 4.06772 6.10157 2.03386
8228 2 6.10157 4.06772 2.03386
36 4 8.13543 4.06772 0
37 4 10.1693 6.10157 0
38 4 10.1693 4.06772 2.03386
39 4 8.13543 6.10157 2.03386
8229 2 8.13543 4.06772 0
8230 2 10.1693 6.10157 0
42 4 12.2031 6.10157 2.03386
40 4 14.237 6.10157 0
41 4 14.237 4.06772 2.03386
43 4 16.2709 4.06772 0
45 4 16.2709 6.10157 2.03386
8231 2 16.2709 4.06772 0
44 4 18.3047 6.10157 0
47 4 20.3386 6.10157 2.03386
8232 2 18.3047 4.06772 2.03386
46 4 22.3724 4.06772 2.03386
8233 2 22.3724 6.10157 0
48 4 24.4063 4.06772 0
49 4 26.4402 6.10157 0
50 4 26.4402 4.06772 2.03386
51 4 24.4063 6.10157 2.03386
8234 2 26.4402 6.10157 0
8235 2 26.4402 4.06772 2.03386
52 4 28.474 6.10157 2.03386
8236 2 28.474 4.06772 0
8237 2 28.474 6.10157 2.03386
53 4 32.5417 4.06772 0
56 4 32.5417 6.10157 2.03386
8238 2 32.5417 4.06772 0
54 4 34.5756 6.10157 0
55 4 34.5756 4.06772 2.03386
57 4 36.6094 4.06772 0
59 4 36.6094 6.10157 2.03386
8239 2 34.5756 6.10157 0
8241 2 36.6094 6.10157 2.03386
58 4 38.6433 6.10157 0
61 4 40.6772 6.10157 2.03386
8240 2 38.6433 4.06772 2.03386
60 4 42.711 4.06772 2.03386
8242 2 42.711 4.06772 2.03386
62 4 46.7787 4.06772 2.03386
8243 2 44.7449 4.06772 0
8244 2 46.7787 6.10157 0
63 4 48.8126 4.06772 0
64 4 50.8465 6.10157 0
65 4 50.8465 4.06772 2.03386
8245 2 48.8126 4.06772 0
8246 2 50.8465 4.06772 2.03386
8247 2 52.8803 4.06772 0
8250 2 52.8803 6.10157 2.03386
66 4 54.9142 6.10157 0
67 4 54.9142 4.06772 2.03386
68 4 56.948 4.06772 0
8248 2 54.9142 6.10157 0
8249 2 54.9142 4.06772 2.03386
8251 2 56.948 4.06772 0
69 4 58.9819 6.10157 0
70 4 61.0157 4.06772 0
72 4 61.0157 6.10157 2.03386
8252 2 61.0157 4.06772 0
8255 2 61.0157 6.10157 2.03386
71 4 63.0496 6.10157 0
8253 2 63.0496 6.10157 0
8254 2 63.0496 4.06772 2.03386
73 4 2.03386 8.13543 2.03386
8256 2 2.03386 8.13543 2.03386
8257 2 0 10.1693 2.03386
74 4 6.10157 8.13543 2.03386
75 4 4.06772 10.1693 2.03386
8258 2 4.06772 8.13543 0
8259 2 6.10157 10.1693 0
8260 2 8.13543 8.13543 0
8261 2 10.1693 8.13543 2.03386
8262 2 8.13543 10.1693 2.03386
76 4 12.2031 8.13543 0
8263 2 12.2031 8.13543 0
8264 2 12.2031 10.1693 2.03386
77 4 14.237 8.13543 2.03386
8265 2 16.2709 8.13543 0
78 4 18.3047 8.13543 2.03386
8266 2 18.3047 10.1693 0
8267 2 18.3047 8.13543 2.03386
8268 2 20.3386 8.13543 0
79 4 22.3724 10.1693 0
80 4 22.3724 8.13543 2.03386
8269 2 22.3724 10.1693 0
8270 2 22.3724 8.13543 2.03386
81 4 24.4063 8.13543 0
82 4 26.4402 8.13543 2.03386
8271 2 26.4402 10.1693 0
8272 2 24.4063 10.1693 2.03386
83 4 28.474 10.1693 2.03386
8273 2 28.474 10.1693 2.03386
8274 2 32.5417 8.13543 0
8276 2 32.5417 10.1693 2.03386
84 4 34.5756 8.13543 2.03386
86 4 36.6094 10.1693 2.03386
8275 2 34.5756 10.1693 0
8277 2 36.6094 8.13543 0
8280 2 36.6094 10.1693 2.03386
85 4 38.6433 10.1693 0
88 4 40.6772 10.1693 2.03386
8278 2 38.6433 10.1693 0
8279 2 38.6433 8.13543 2.03386
8281 2 40.6772 8.13543 0
87 4 42.711 8.13543 2.03386
8282 2 42.711 10.1693 0
8283 2 42.711 8.13543 2.03386
89 4 46.7787 8.13543 2.03386
90 4 44.7449 10.1693 2.03386
8284 2 46.7787 10.1693 0
91 4 50.8465 10.1693 0
92 4 48.8126 10.1693 2.03386
8285 2 48.8126 8.13543 0
93 4 52.8803 10.1693 2.03386
8288 2 52.8803 10.1693 2.03386
94 4 56.948 8.13543 0
8286 2 54.9142 10.1693 0
8287 2 54.9142 8.13543 2.03386
8289 2 56.948 8.13543 0
8291 2 56.948 10.1693 2.03386
95 4 61.0157 8.13543 0
97 4 61.0157 10.1693 2.03386
8290 2 58.9819 10.1693 0
8292 2 61.0157 8.13543 0
8294 2 61.0157 10.1693 2.03386
96 4 63.0496 10.1693 0
8293 2 63.0496 10.1693 0
99 4 2.03386 12.2031 2.03386
8295 2 0 12.2031 0
101 4 4.06772 12.2031 0
103 4 6.10157 12.2031 2.03386
8296 2 4.06772 12.2031 0
8298 2 6.10157 12.2031 2.03386
104 4 8.13543 12.2031 0
105 4 10.1693 12.2031 2.03386
8299 2 8.13543 12.2031 0
8301 2 12.2031 12.2031 0
107 4 14.237 12.2031 2.03386
108 4 20.3386 12.2031 0
8305 2 18.3047 12.2031 2.03386
110 4 22.3724 12.2031 2.03386
111 4 24.4063 12.2031 0
112 4 26.4402 12.2031 2.03386
114 4 28.474 12.2031 0
116 4 30.5079 12.2031 2.03386
8309 2 28.474 12.2031 0
8310 2 30.5079 12.2031 2.03386
8312 2 32.5417 12.2031 0
119 4 36.6094 12.2031 0
8314 2 36.6094 12.2031 0
121 4 38.6433 12.2031 2.03386
123 4 40.6772 12.2031 0
8315 2 38.6433 12.2031 2.03386
8316 2 40.6772 12.2031 0
124 4 42.711 12.2031 2.03386
8317 2 44.7449 12.2031 0
126 4 50.8465 12.2031 2.03386
128 4 52.8803 12.2031 0
129 4 54.9142 12.2031 2.03386
130 4 56.948 12.2031 0
8319 2 54.9142 12.2031 2.03386
8321 2 56.948 12.2031 0
8323 2 61.0157 12.2031 0
98 4 2.03386 14.237 0
100 4 0 14.237 2.03386
8327 2 2.03386 16.2709 2.03386
102 4 6.10157 14.237 0
8297 2 6.10157 14.237 0
8329 2 4.06772 16.2709 0
8331 2 6.10157 16.2709 2.03386
134 4 10.1693 16.2709 2.03386
8300 2 10.1693 14.237 0
8333 2 8.13543 16.2709 0
8303 2 12.2031 14.237 2.03386
106 4 14.237 14.237 0
8302 2 14.237 14.237 0
137 4 20.3386 16.2709 0
8304 2 18.3047 14.237 0
8338 2 18.3047 16.2709 2.03386
8340 2 20.3386 16.2709 0
109 4 22.3724 14.237 0
8306 2 22.3724 14.237 0
8341 2 22.3724 16.2709 2.03386
113 4 24.4063 14.237 2.03386
139 4 24.4063 16.2709 0
8307 2 26.4402 14.237 0
8308 2 24.4063 14.237 2.03386
8344 2 26.4402 16.2709 2.03386
115 4 30.5079 14.237 0
117 4 28.474 14.237 2.03386
8311 2 28.474 14.237 2.03386
118 4 32.5417 14.237 2.03386
122 4 36.6094 14.237 2.03386
143 4 34.5756 16.2709 2.03386
8313 2 34.5756 14.237 0
120 4 38.6433 14.237 0
146 4 38.6433 16.2709 2.03386
148 4 40.6772 16.2709 0
8349 2 38.6433 16.2709 2.03386
8318 2 44.7449 14.237 2.03386
8353 2 44.7449 16.2709 0
8354 2 46.7787 16.2709 2.03386
125 4 50.8465 14.237 0
127 4 48.8126 14.237 2.03386
152 4 48.8126 16.2709 0
8356 2 48.8126 16.2709 0
8357 2 50.8465 16.2709 2.03386
155 4 52.8803 16.2709 0
8320 2 52.8803 14.237 2.03386
156 4 54.9142 16.2709 2.03386
158 4 56.948 16.2709 0
8322 2 56.948 14.237 2.03386
8359 2 54.9142 16.2709 2.03386
8325 2 61.0157 14.237 2.03386
8362 2 61.0157 16.2709 0
131 4 63.0496 14.237 0
8324 2 63.0496 14.237 0
8364 2 63.0496 16.2709 2.03386
132 4 2.03386 18.3047 0
160 4 0 20.3386 0
162 4 2.03386 20.3386 2.03386
8326 2 2.03386 18.3047 0
8328 2 0 18.3047 2.03386
8366 2 0 20.3386 0
8368 2 2.03386 20.3386 2.03386
133 4 6.10157 18.3047 0
164 4 4.06772 20.3386 0
165 4 6.10157 20.3386 2.03386
8330 2 6.10157 18.3047 0
8332 2 4.06772 18.3047 2.03386
8370 2 4.06772 20.3386 0
8372 2 6.10157 20.3386 2.03386
167 4 10.1693 20.3386 2.03386
8334 2 10.1693 18.3047 0
8335 2 8.13543 18.3047 2.03386
8374 2 8.13543 20.3386 0
135 4 12.2031 18.3047 2.03386
136 4 16.2709 18.3047 2.03386
169 4 14.237 20.3386 2.03386
171 4 16.2709 20.3386 0
8336 2 14.237 18.3047 0
8339 2 16.2709 18.3047 2.03386
8377 2 14.237 20.3386 2.03386
8378 2 16.2709 20.3386 0
173 4 18.3047 20.3386 2.03386
175 4 20.3386 20.3386 0
8337 2 18.3047 18.3047 0
8342 2 20.3386 18.3047 2.03386
8380 2 18.3047 20.3386 2.03386
138 4 22.3724 18.3047 0
8383 2 22.3724 20.3386 2.03386
140 4 26.4402 18.3047 0
177 4 24.4063 20.3386 0
8343 2 26.4402 18.3047 0
8345 2 24.4063 18.3047 2.03386
8385 2 26.4402 20.3386 2.03386
141 4 30.5079 18.3047 0
142 4 28.474 18.3047 2.03386
8346 2 28.474 18.3047 2.03386
8386 2 28.474 20.3386 0
144 4 32.5417 18.3047 2.03386
8348 2 32.5417 18.3047 2.03386
147 4 36.6094 18.3047 2.03386
180 4 36.6094 20.3386 0
8347 2 34.5756 18.3047 0
8350 2 36.6094 18.3047 2.03386
145 4 38.6433 18.3047 0
150 4 40.6772 18.3047 2.03386
183 4 40.6772 20.3386 0
8352 2 40.6772 18.3047 2.03386
8390 2 38.6433 20.3386 2.03386
8391 2 40.6772 20.3386 0
149 4 42.711 18.3047 0
8351 2 42.711 18.3047 0
8393 2 42.711 20.3386 2.03386
151 4 46.7787 18.3047 0
184 4 44.7449 20.3386 0
8355 2 44.7449 18.3047 2.03386
153 4 50.8465 18.3047 0
154 4 48.8126 18.3047 2.03386
186 4 50.8465 20.3386 2.03386
8358 2 48.8126 18.3047 2.03386
8395 2 48.8126 20.3386 0
8396 2 50.8465 20.3386 2.03386
157 4 52.8803 18.3047 2.03386
8360 2 52.8803 18.3047 2.03386
8398 2 52.8803 20.3386 0
188 4 54.9142 20.3386 2.03386
8399 2 54.9142 20.3386 2.03386
8401 2 56.948 20.3386 0
159 4 61.0157 18.3047 2.03386
8361 2 58.9819 18.3047 0
8365 2 61.0157 18.3047 2.03386
192 4 63.0496 20.3386 2.03386
8363 2 63.0496 18.3047 0
161 4 2.03386 22.3724 0
163 4 0 22.3724 2.03386
8367 2 2.03386 22.3724 0
8369 2 0 22.3724 2.03386
8371 2 6.10157 22.3724 0
8373 2 4.06772 22.3724 2.03386
166 4 10.1693 22.3724 0
168 4 8.13543 22.3724 2.03386
8375 2 10.1693 22.3724 0
170 4 12.2031 22.3724 2.03386
174 4 16.2709 22.3724 2.03386
8376 2 14.237 22.3724 0
8381 2 16.2709 22.3724 2.03386
172 4 18.3047 22.3724 0
176 4 20.3386 22.3724 2.03386
8379 2 18.3047 22.3724 0
8382 2 22.3724 22.3724 0
178 4 26.4402 22.3724 0
8384 2 26.4402 22.3724 0
179 4 30.5079 22.3724 0
8387 2 30.5079 22.3724 0
8388 2 32.5417 22.3724 2.03386
182 4 36.6094 22.3724 2.03386
181 4 38.6433 22.3724 0
8389 2 38.6433 22.3724 0
8392 2 42.711 22.3724 0
185 4 44.7449 22.3724 2.03386
8394 2 44.7449 22.3724 2.03386
8397 2 48.8126 22.3724 2.03386
189 4 52.8803 22.3724 2.03386
8400 2 52.8803 22.3724 2.03386
187 4 54.9142 22.3724 0
190 4 58.9819 22.3724 0
8402 2 58.9819 22.3724 0
191 4 63.0496 22.3724 0
8403 2 63.0496 22.3724 0
193 4 2.03386 26.4402 0
194 4 2.03386 24.4063 2.03386
195 4 0 26.4402 2.03386
196 4 4.06772 24.4063 0
197 4 6.10157 26.4402 0
8404 2 4.06772 24.4063 0
8405 2 4.06772 26.4402 2.03386
198 4 8.13543 24.4063 0
199 4 10.1693 26.4402 0
200 4 10.1693 24.4063 2.03386
201 4 8.13543 26.4402 2.03386
8406 2 8.13543 24.4063 0
8407 2 10.1693 26.4402 0
202 4 12.2031 24.4063 0
8408 2 12.2031 24.4063 0
8409 2 12.2031 26.4402 2.03386
203 4 14.237 26.4402 0
204 4 14.237 24.4063 2.03386
8410 2 16.2709 24.4063 0
8412 2 16.2709 26.4402 2.03386
205 4 18.3047 26.4402 0
206 4 18.3047 24.4063 2.03386
208 4 20.3386 26.4402 2.03386
8411 2 18.3047 26.4402 0
8413 2 20.3386 24.4063 0
207 4 22.3724 26.4402 0
8414 2 22.3724 24.4063 2.03386
209 4 24.4063 24.4063 0
210 4 26.4402 26.4402 0
8415 2 26.4402 26.4402 0
8416 2 26.4402 24.4063 2.03386
211 4 30.5079 26.4402 0
8417 2 28.474 24.4063 0
8418 2 30.5079 24.4063 2.03386
212 4 32.5417 24.4063 0
215 4 32.5417 26.4402 2.03386
8419 2 32.5417 24.4063 0
213 4 34.5756 26.4402 0
214 4 34.5756 24.4063 2.03386
8420 2 34.5756 24.4063 2.03386
8421 2 36.6094 24.4063 0
216 4 38.6433 26.4402 0
217 4 38.6433 24.4063 2.03386
218 4 40.6772 24.4063 0
8422 2 38.6433 26.4402 0
8423 2 38.6433 24.4063 2.03386
8424 2 40.6772 24.4063 0
219 4 42.711 24.4063 2.03386
8425 2 42.711 26.4402 0
220 4 44.7449 24.4063 0
221 4 46.7787 26.4402 0
8426 2 46.7787 26.4402 0
8427 2 44.7449 26.4402 2.03386
222 4 50.8465 26.4402 0
223 4 50.8465 24.4063 2.03386
8428 2 48.8126 26.4402 2.03386
224 4 52.8803 24.4063 0
225 4 52.8803 26.4402 2.03386
226 4 56.948 24.4063 0
228 4 56.948 26.4402 2.03386
8429 2 54.9142 24.4063 2.03386
227 4 58.9819 26.4402 0
8430 2 58.9819 26.4402 0
229 4 63.0496 26.4402 0
230 4 0 28.474 0
231 4 2.03386 30.5079 0
232 4 2.03386 28.474 2.03386
233 4 0 30.5079 2.03386
8431 2 0 28.474 0
8432 2 2.03386 30.5079 0
8433 2 2.03386 28.474 2.03386
8434 2 0 30.5079 2.03386
234 4 6.10157 30.5079 0
235 4 6.10157 28.474 2.03386
236 4 4.06772 30.5079 2.03386
8435 2 6.10157 30.5079 0
8436 2 6.10157 28.474 2.03386
237 4 10.1693 28.474 2.03386
238 4 8.13543 30.5079 2.03386
8437 2 8.13543 28.474 0
8438 2 10.1693 30.5079 0
8439 2 10.1693 28.474 2.03386
8440 2 8.13543 30.5079 2.03386
239 4 12.2031 28.474 0
241 4 12.2031 30.5079 2.03386
240 4 14.237 28.474 2.03386
244 4 16.2709 30.5079 2.03386
242 4 18.3047 30.5079 0
243 4 18.3047 28.474 2.03386
8441 2 18.3047 28.474 2.03386
8442 2 22.3724 30.5079 0
8443 2 22.3724 28.474 2.03386
245 4 24.4063 28.474 0
246 4 26.4402 28.474 2.03386
8444 2 26.4402 30.5079 0
8445 2 26.4402 28.474 2.03386
247 4 30.5079 30.5079 0
248 4 30.5079 28.474 2.03386
249 4 28.474 30.5079 2.03386
8446 2 28.474 28.474 0
250 4 32.5417 30.5079 2.03386
8447 2 32.5417 28.474 0
251 4 36.6094 28.474 0
8448 2 34.5756 30.5079 0
8449 2 36.6094 28.474 0
252 4 40.6772 28.474 0
8450 2 38.6433 28.474 2.03386
8451 2 40.6772 28.474 0
253 4 42.711 28.474 2.03386
8452 2 42.711 30.5079 0
8453 2 42.711 28.474 2.03386
254 4 46.7787 30.5079 0
8454 2 44.7449 28.474 0
8455 2 44.7449 30.5079 2.03386
255 4 50.8465 30.5079 0
256 4 50.8465 28.474 2.03386
8456 2 48.8126 28.474 0
8457 2 50.8465 30.5079 0
8458 2 48.8126 30.5079 2.03386
257 4 52.8803 30.5079 2.03386
8459 2 54.9142 30.5079 0
8461 2 56.948 30.5079 2.03386
258 4 58.9819 30.5079 0
8460 2 58.9819 30.5079 0
259 4 63.0496 28.474 2.03386
8462 2 63.0496 30.5079 0
260 4 0 32.5417 0
8464 2 2.03386 32.5417 2.03386
263 4 4.06772 32.5417 0
265 4 6.10157 32.5417 2.03386
8466 2 4.06772 32.5417 0
267 4 8.13543 32.5417 0
268 4 10.1693 32.5417 2.03386
8467 2 8.13543 32.5417 0
8469 2 10.1693 32.5417 2.03386
269 4 12.2031 32.5417 0
8470 2 12.2031 32.5417 0
8471 2 18.3047 32.5417 2.03386
274 4 22.3724 32.5417 2.03386
276 4 26.4402 32.5417 2.03386
8474 2 24.4063 32.5417 0
278 4 28.474 32.5417 0
280 4 32.5417 32.5417 0
8475 2 32.5417 32.5417 0
281 4 34.5756 32.5417 2.03386
282 4 36.6094 32.5417 0
8477 2 34.5756 32.5417 2.03386
8478 2 36.6094 32.5417 0
284 4 38.6433 32.5417 2.03386
8480 2 40.6772 32.5417 0
8482 2 42.711 32.5417 2.03386
286 4 44.7449 32.5417 0
8484 2 46.7787 32.5417 2.03386
289 4 50.8465 32.5417 2.03386
8487 2 50.8465 32.5417 2.03386
8489 2 54.9142 32.5417 2.03386
8491 2 56.948 32.5417 0
291 4 58.9819 32.5417 2.03386
292 4 63.0496 32.5417 2.03386
8493 2 63.0496 32.5417 2.03386
261 4 2.03386 34.5756 0
262 4 0 34.5756 2.03386
8463 2 2.03386 34.5756 0
8465 2 0 34.5756 2.03386
8495 2 0 36.6094 0
264 4 6.10157 34.5756 0
266 4 4.06772 34.5756 2.03386
295 4 4.06772 36.6094 0
8498 2 6.10157 36.6094 2.03386
297 4 10.1693 36.6094 2.03386
8468 2 10.1693 34.5756 0
8499 2 8.13543 36.6094 0
271 4 12.2031 34.5756 2.03386
270 4 14.237 34.5756 0
272 4 16.2709 34.5756 2.03386
299 4 14.237 36.6094 2.03386
301 4 16.2709 36.6094 0
8472 2 16.2709 34.5756 2.03386
8502 2 14.237 36.6094 2.03386
8504 2 16.2709 36.6094 0
275 4 20.3386 34.5756 2.03386
302 4 18.3047 36.6094 2.03386
8506 2 18.3047 36.6094 2.03386
8508 2 20.3386 36.6094 0
273 4 22.3724 34.5756 0
8473 2 22.3724 34.5756 0
277 4 24.4063 34.5756 2.03386
306 4 26.4402 36.6094 2.03386
8510 2 24.4063 36.6094 0
279 4 28.474 34.5756 2.03386
8513 2 28.474 36.6094 0
308 4 32.5417 36.6094 0
8476 2 34.5756 34.5756 0
8515 2 34.5756 36.6094 2.03386
283 4 38.6433 34.5756 0
285 4 40.6772 34.5756 2.03386
8479 2 38.6433 34.5756 0
8483 2 40.6772 34.5756 2.03386
8519 2 40.6772 36.6094 0
311 4 42.711 36.6094 2.03386
8481 2 42.711 34.5756 0
8520 2 42.711 36.6094 2.03386
287 4 46.7787 34.5756 0
8485 2 44.7449 34.5756 2.03386
288 4 50.8465 34.5756 0
290 4 48.8126 34.5756 2.03386
314 4 48.8126 36.6094 0
8486 2 50.8465 34.5756 0
8523 2 48.8126 36.6094 0
316 4 52.8803 36.6094 0
8490 2 52.8803 34.5756 2.03386
318 4 54.9142 36.6094 2.03386
320 4 56.948 36.6094 0
8488 2 54.9142 34.5756 0
8525 2 56.948 36.6094 0
293 4 61.0157 34.5756 2.03386
8492 2 58.9819 34.5756 0
8494 2 61.0157 34.5756 2.03386
8526 2 58.9819 36.6094 2.03386
294 4 2.03386 38.6433 0
323 4 2.03386 40.6772 2.03386
8496 2 2.03386 38.6433 0
8528 2 0 40.6772 0
296 4 6.10157 38.6433 0
324 4 4.06772 40.6772 0
325 4 6.10157 40.6772 2.03386
8497 2 6.10157 38.6433 0
326 4 10.1693 40.6772 2.03386
8500 2 8.13543 38.6433 2.03386
8532 2 8.13543 40.6772 0
300 4 12.2031 38.6433 2.03386
8503 2 12.2031 38.6433 2.03386
298 4 14.237 38.6433 0
328 4 14.237 40.6772 2.03386
329 4 16.2709 40.6772 0
8501 2 14.237 38.6433 0
8507 2 16.2709 38.6433 2.03386
304 4 20.3386 38.6433 2.03386
332 4 20.3386 40.6772 0
8505 2 18.3047 38.6433 0
8536 2 18.3047 40.6772 2.03386
8537 2 20.3386 40.6772 0
303 4 22.3724 38.6433 0
8509 2 22.3724 38.6433 0
8538 2 22.3724 40.6772 2.03386
305 4 26.4402 38.6433 0
334 4 24.4063 40.6772 0
8511 2 26.4402 38.6433 0
8512 2 24.4063 38.6433 2.03386
8540 2 24.4063 40.6772 0
8542 2 26.4402 40.6772 2.03386
307 4 30.5079 38.6433 0
338 4 30.5079 40.6772 2.03386
8545 2 30.5079 40.6772 2.03386
339 4 32.5417 40.6772 0
8516 2 32.5417 38.6433 2.03386
8546 2 32.5417 40.6772 0
309 4 34.5756 38.6433 0
341 4 34.5756 40.6772 2.03386
343 4 36.6094 40.6772 0
8514 2 34.5756 38.6433 0
8518 2 36.6094 38.6433 2.03386
8548 2 34.5756 40.6772 2.03386
312 4 40.6772 38.6433 2.03386
345 4 38.6433 40.6772 2.03386
346 4 40.6772 40.6772 0
8517 2 38.6433 38.6433 0
8521 2 40.6772 38.6433 2.03386
8550 2 38.6433 40.6772 2.03386
310 4 42.711 38.6433 0
8552 2 42.711 40.6772 2.03386
313 4 46.7787 38.6433 0
347 4 44.7449 40.6772 0
8522 2 46.7787 38.6433 0
315 4 50.8465 38.6433 0
348 4 48.8126 40.6772 0
349 4 50.8465 40.6772 2.03386
319 4 52.8803 38.6433 2.03386
8556 2 52.8803 40.6772 0
317 4 54.9142 38.6433 0
352 4 56.948 40.6772 0
8524 2 54.9142 38.6433 0
8557 2 54.9142 40.6772 2.03386
354 4 58.9819 40.6772 2.03386
321 4 63.0496 38.6433 0
8527 2 63.0496 38.6433 0
322 4 2.03386 42.711 0
8529 2 0 42.711 2.03386
8530 2 6.10157 42.711 0
8531 2 4.06772 42.711 2.03386
327 4 8.13543 42.711 2.03386
8533 2 10.1693 42.711 0
331 4 16.2709 42.711 2.03386
8534 2 14.237 42.711 0
330 4 18.3047 42.711 0
8535 2 18.3047 42.711 0
8539 2 20.3386 42.711 2.03386
333 4 22.3724 42.711 0
335 4 26.4402 42.711 0
336 4 24.4063 42.711 2.03386
8541 2 26.4402 42.711 0
8543 2 24.4063 42.711 2.03386
337 4 30.5079 42.711 0
8544 2 30.5079 42.711 0
342 4 32.5417 42.711 2.03386
8549 2 32.5417 42.711 2.03386
340 4 34.5756 42.711 0
8547 2 34.5756 42.711 0
8551 2 36.6094 42.711 2.03386
344 4 38.6433 42.711 0
8553 2 40.6772 42.711 2.03386
350 4 48.8126 42.711 2.03386
8554 2 50.8465 42.711 0
8555 2 48.8126 42.711 2.03386
351 4 54.9142 42.711 0
353 4 58.9819 42.711 0
356 4 61.0157 42.711 2.03386
8558 2 58.9819 42.711 0
8560 2 61.0157 42.711 2.03386
355 4 63.0496 42.711 0
8559 2 63.0496 42.711 0
357 4 0 44.7449 0
358 4 2.03386 46.7787 0
359 4 2.03386 44.7449 2.03386
360 4 0 46.7787 2.03386
8561 2 0 44.7449 0
8562 2 2.03386 44.7449 2.03386
361 4 4.06772 44.7449 0
362 4 4.06772 46.7787 2.03386
8563 2 4.06772 44.7449 0
8564 2 6.10157 44.7449 2.03386
363 4 8.13543 44.7449 0
364 4 10.1693 44.7449 2.03386
8565 2 8.13543 44.7449 0
8566 2 10.1693 44.7449 2.03386
8567 2 8.13543 46.7787 2.03386
365 4 12.2031 44.7449 0
367 4 12.2031 46.7787 2.03386
366 4 14.237 44.7449 2.03386
8568 2 14.237 46.7787 0
8569 2 14.237 44.7449 2.03386
368 4 18.3047 44.7449 2.03386
371 4 20.3386 46.7787 2.03386
8570 2 18.3047 44.7449 2.03386
8572 2 20.3386 46.7787 2.03386
369 4 22.3724 46.7787 0
370 4 22.3724 44.7449 2.03386
8571 2 22.3724 46.7787 0
372 4 26.4402 44.7449 2.03386
373 4 24.4063 46.7787 2.03386
8573 2 26.4402 44.7449 2.03386
8574 2 24.4063 46.7787 2.03386
374 4 28.474 44.7449 0
375 4 30.5079 46.7787 0
376 4 30.5079 44.7449 2.03386
377 4 28.474 46.7787 2.03386
8575 2 28.474 44.7449 0
8576 2 30.5079 44.7449 2.03386
8577 2 28.474 46.7787 2.03386
378 4 32.5417 44.7449 0
379 4 34.5756 44.7449 2.03386
380 4 36.6094 44.7449 0
8578 2 36.6094 44.7449 0
8579 2 36.6094 46.7787 2.03386
381 4 38.6433 44.7449 2.03386
382 4 42.711 46.7787 0
383 4 42.711 44.7449 2.03386
8580 2 42.711 46.7787 0
384 4 46.7787 46.7787 0
385 4 46.7787 44.7449 2.03386
8581 2 46.7787 44.7449 2.03386
386 4 48.8126 46.7787 2.03386
387 4 52.8803 44.7449 0
389 4 52.8803 46.7787 2.03386
388 4 54.9142 46.7787 0
390 4 56.948 44.7449 0
8582 2 54.9142 44.7449 2.03386
8585 2 56.948 46.7787 2.03386
391 4 58.9819 44.7449 2.03386
393 4 61.0157 46.7787 2.03386
8583 2 58.9819 46.7787 0
8584 2 58.9819 44.7449 2.03386
8587 2 61.0157 46.7787 2.03386
392 4 63.0496 46.7787 0
8586 2 63.0496 44.7449 2.03386
394 4 0 50.8465 2.03386
8588 2 2.03386 50.8465 0
8589 2 0 50.8465 2.03386
395 4 4.06772 48.8126 0
396 4 4.06772 50.8465 2.03386
8590 2 6.10157 50.8465 0
8591 2 6.10157 48.8126 2.03386
8592 2 4.06772 50.8465 2.03386
397 4 8.13543 48.8126 0
398 4 10.1693 50.8465 0
399 4 10.1693 48.8126 2.03386
400 4 8.13543 50.8465 2.03386
8593 2 8.13543 48.8126 0
8594 2 10.1693 50.8465 0
8595 2 10.1693 48.8126 2.03386
401 4 14.237 48.8126 2.03386
402 4 16.2709 48.8126 0
404 4 16.2709 50.8465 2.03386
8596 2 14.237 50.8465 0
403 4 18.3047 50.8465 0
405 4 20.3386 50.8465 2.03386
8597 2 18.3047 48.8126 2.03386
8598 2 20.3386 48.8126 0
8599 2 22.3724 48.8126 2.03386
406 4 24.4063 48.8126 0
8600 2 24.4063 48.8126 0
8601 2 26.4402 48.8126 2.03386
407 4 28.474 48.8126 0
8602 2 28.474 48.8126 0
8603 2 28.474 50.8465 2.03386
8606 2 32.5417 50.8465 2.03386
409 4 36.6094 50.8465 2.03386
8604 2 34.5756 50.8465 0
8605 2 34.5756 48.8126 2.03386
8607 2 36.6094 48.8126 0
8609 2 36.6094 50.8465 2.03386
408 4 38.6433 48.8126 2.03386
410 4 40.6772 48.8126 0
8608 2 38.6433 48.8126 2.03386
8610 2 40.6772 48.8126 0
8613 2 40.6772 50.8465 2.03386
411 4 42.711 50.8465 0
412 4 42.711 48.8126 2.03386
8611 2 42.711 50.8465 0
8612 2 42.711 48.8126 2.03386
413 4 44.7449 48.8126 0
414 4 46.7787 50.8465 0
415 4 46.7787 48.8126 2.03386
8614 2 44.7449 48.8126 0
8615 2 46.7787 48.8126 2.03386
416 4 50.8465 50.8465 0
417 4 48.8126 50.8465 2.03386
8616 2 48.8126 48.8126 0
8617 2 50.8465 48.8126 2.03386
418 4 52.8803 48.8126 0
8618 2 52.8803 48.8126 0
8620 2 52.8803 50.8465 2.03386
419 4 54.9142 48.8126 2.03386
420 4 56.948 48.8126 0
8619 2 54.9142 50.8465 0
8621 2 56.948 50.8465 2.03386
421 4 58.9819 50.8465 0
422 4 61.0157 48.8126 0
424 4 61.0157 50.8465 2.03386
8622 2 61.0157 48.8126 0
423 4 63.0496 50.8465 0
8623 2 0 52.8803 0
8624 2 2.03386 52.8803 2.03386
426 4 4.06772 52.8803 0
8625 2 6.10157 52.8803 2.03386
8627 2 8.13543 52.8803 0
8628 2 10.1693 52.8803 2.03386
429 4 12.2031 52.8803 0
432 4 16.2709 52.8803 0
8631 2 14.237 52.8803 2.03386
435 4 20.3386 52.8803 0
8635 2 22.3724 52.8803 2.03386
436 4 24.4063 52.8803 0
438 4 26.4402 52.8803 2.03386
8636 2 24.4063 52.8803 0
440 4 30.5079 52.8803 2.03386
8638 2 30.5079 52.8803 2.03386
441 4 32.5417 52.8803 0
443 4 38.6433 52.8803 2.03386
445 4 40.6772 52.8803 0
8641 2 38.6433 52.8803 2.03386
448 4 44.7449 52.8803 0
449 4 46.7787 52.8803 2.03386
8644 2 44.7449 52.8803 0
450 4 48.8126 52.8803 0
452 4 50.8465 52.8803 2.03386
8647 2 50.8465 52.8803 2.03386
454 4 52.8803 52.8803 0
8649 2 52.8803 52.8803 0
456 4 54.9142 52.8803 2.03386
8651 2 54.9142 52.8803 2.03386
8652 2 56.948 52.8803 0
457 4 58.9819 52.8803 2.03386
459 4 61.0157 52.8803 0
8655 2 61.0157 52.8803 0
460 4 63.0496 52.8803 2.03386
8657 2 63.0496 52.8803 2.03386
425 4 0 54.9142 2.03386
8658 2 0 56.948 0
8660 2 2.03386 56.948 2.03386
427 4 4.06772 54.9142 2.03386
8626 2 4.06772 54.9142 2.03386
428 4 10.1693 54.9142 0
463 4 10.1693 56.948 2.03386
8629 2 8.13543 54.9142 2.03386
8662 2 8.13543 56.948 0
431 4 12.2031 54.9142 2.03386
464 4 12.2031 56.948 0
8632 2 12.2031 54.9142 2.03386
8665 2 12.2031 56.948 0
430 4 14.237 54.9142 0
434 4 16.2709 54.9142 2.03386
465 4 16.2709 56.948 0
8630 2 14.237 54.9142 0
8634 2 16.2709 54.9142 2.03386
8667 2 14.237 56.948 2.03386
8668 2 16.2709 56.948 0
433 4 18.3047 54.9142 0
467 4 20.3386 56.948 0
8633 2 18.3047 54.9142 0
8669 2 20.3386 56.948 0
468 4 22.3724 56.948 2.03386
437 4 26.4402 54.9142 0
470 4 26.4402 56.948 2.03386
8637 2 26.4402 54.9142 0
8671 2 24.4063 56.948 0
439 4 30.5079 54.9142 0
471 4 28.474 56.948 0
473 4 30.5079 56.948 2.03386
8639 2 28.474 54.9142 2.03386
8673 2 30.5079 56.948 2.03386
8640 2 32.5417 54.9142 2.03386
8674 2 32.5417 56.948 0
444 4 36.6094 54.9142 2.03386
475 4 34.5756 56.948 2.03386
8676 2 36.6094 56.948 0
442 4 38.6433 54.9142 0
447 4 40.6772 54.9142 2.03386
477 4 38.6433 56.948 2.03386
478 4 40.6772 56.948 0
8643 2 40.6772 54.9142 2.03386
8677 2 38.6433 56.948 2.03386
446 4 42.711 54.9142 0
479 4 42.711 56.948 2.03386
8642 2 42.711 54.9142 0
8680 2 42.711 56.948 2.03386
481 4 46.7787 56.948 2.03386
8645 2 46.7787 54.9142 0
8646 2 44.7449 54.9142 2.03386
451 4 50.8465 54.9142 0
453 4 48.8126 54.9142 2.03386
483 4 48.8126 56.948 0
484 4 50.8465 56.948 2.03386
8648 2 48.8126 54.9142 2.03386
8684 2 52.8803 56.948 0
455 4 54.9142 54.9142 0
458 4 56.948 54.9142 2.03386
8650 2 54.9142 54.9142 0
8654 2 56.948 54.9142 2.03386
8687 2 56.948 56.948 0
488 4 58.9819 56.948 2.03386
489 4 61.0157 56.948 0
8653 2 58.9819 54.9142 0
491 4 63.0496 56.948 2.03386
8656 2 63.0496 54.9142 0
8659 2 2.03386 58.9819 0
8689 2 0 61.0157 0
461 4 6.10157 58.9819 0
493 4 4.06772 61.0157 0
8661 2 4.06772 58.9819 2.03386
8692 2 4.06772 61.0157 0
8693 2 6.10157 61.0157 2.03386
462 4 10.1693 58.9819 0
496 4 8.13543 61.0157 0
497 4 10.1693 61.0157 2.03386
8663 2 10.1693 58.9819 0
8664 2 8.13543 58.9819 2.03386
8697 2 12.2031 61.0157 0
466 4 16.2709 58.9819 2.03386
8666 2 14.237 58.9819 0
8698 2 14.237 61.0157 2.03386
8699 2 16.2709 61.0157 0
469 4 20.3386 58.9819 2.03386
8701 2 18.3047 61.0157 2.03386
8703 2 20.3386 61.0157 0
500 4 22.3724 61.0157 2.03386
8670 2 22.3724 58.9819 0
502 4 24.4063 61.0157 0
8672 2 24.4063 58.9819 2.03386
8705 2 26.4402 61.0157 2.03386
472 4 30.5079 58.9819 0
474 4 28.474 58.9819 2.03386
503 4 28.474 61.0157 0
505 4 30.5079 61.0157 2.03386
8707 2 28.474 61.0157 0
8708 2 30.5079 61.0157 2.03386
507 4 34.5756 61.0157 2.03386
509 4 36.6094 61.0157 0
8675 2 34.5756 58.9819 0
8678 2 36.6094 58.9819 2.03386
8712 2 36.6094 61.0157 0
476 4 38.6433 58.9819 0
511 4 38.6433 61.0157 2.03386
512 4 40.6772 61.0157 0
8681 2 40.6772 58.9819 2.03386
8713 2 38.6433 61.0157 2.03386
8715 2 40.6772 61.0157 0
8679 2 42.711 58.9819 0
8717 2 42.711 61.0157 2.03386
480 4 46.7787 58.9819 0
482 4 44.7449 58.9819 2.03386
513 4 44.7449 61.0157 0
514 4 46.7787 61.0157 2.03386
8682 2 44.7449 58.9819 2.03386
8719 2 44.7449 61.0157 0
515 4 50.8465 61.0157 2.03386
8683 2 48.8126 58.9819 2.03386
8721 2 50.8465 61.0157 2.03386
486 4 52.8803 58.9819 2.03386
517 4 52.8803 61.0157 0
8686 2 52.8803 58.9819 2.03386
8722 2 52.8803 61.0157 0
485 4 54.9142 58.9819 0
518 4 54.9142 61.0157 2.03386
8685 2 54.9142 58.9819 0
8724 2 54.9142 61.0157 2.03386
487 4 58.9819 58.9819 0
8688 2 58.9819 58.9819 0
8727 2 58.9819 61.0157 2.03386
490 4 63.0496 58.9819 0
521 4 63.0496 61.0157 2.03386
8729 2 63.0496 61.0157 2.03386
492 4 2.03386 63.0496 0
8690 2 2.03386 63.0496 0
8691 2 0 63.0496 2.03386
494 4 6.10157 63.0496 0
495 4 4.06772 63.0496 2.03386
8694 2 4.06772 63.0496 2.03386
8695 2 10.1693 63.0496 0
8696 2 8.13543 63.0496 2.03386
498 4 14.237 63.0496 0
8702 2 16.2709 63.0496 2.03386
501 4 20.3386 63.0496 2.03386
8700 2 18.3047 63.0496 0
499 4 22.3724 63.0496 0
8704 2 26.4402 63.0496 0
8706 2 24.4063 63.0496 2.03386
504 4 30.5079 63.0496 0
8709 2 28.474 63.0496 2.03386
508 4 32.5417 63.0496 2.03386
8711 2 32.5417 63.0496 2.03386
506 4 34.5756 63.0496 0
8710 2 34.5756 63.0496 0
8714 2 36.6094 63.0496 2.03386
510 4 38.6433 63.0496 0
8718 2 40.6772 63.0496 2.03386
8716 2 42.711 63.0496 0
8720 2 46.7787 63.0496 0
516 4 48.8126 63.0496 2.03386
519 4 52.8803 63.0496 2.03386
8725 2 52.8803 63.0496 2.03386
8723 2 54.9142 63.0496 0
8726 2 58.9819 63.0496 0
520 4 63.0496 63.0496 0
8728 2 63.0496 63.0496 0
8730 2 2.03386 2.03386 4.06772
8731 2 0 2.03386 6.10157
522 4 6.10157 0 6.10157
523 4 4.06772 2.03386 6.10157
8732 2 6.10157 2.03386 4.06772
8733 2 6.10157 0 6.10157
8734 2 4.06772 2.03386 6.10157
524 4 10.1693 0 6.10157
8735 2 8.13543 0 4.06772
8736 2 10.1693 0 6.10157
8737 2 8.13543 2.03386 6.10157
527 4 12.2031 2.03386 6.10157
8739 2 12.2031 2.03386 6.10157
525 4 14.237 2.03386 4.06772
526 4 14.237 0 6.10157
528 4 16.2709 0 4.06772
8738 2 14.237 0 6.10157
8740 2 16.2709 0 4.06772
8741 2 16.2709 2.03386 6.10157
529 4 18.3047 0 6.10157
531 4 20.3386 2.03386 6.10157
8742 2 20.3386 2.03386 6.10157
530 4 22.3724 0 6.10157
532 4 26.4402 2.03386 4.06772
533 4 26.4402 0 6.10157
8743 2 24.4063 0 4.06772
8744 2 26.4402 2.03386 4.06772
8745 2 24.4063 2.03386 6.10157
534 4 28.474 0 4.06772
535 4 28.474 2.03386 6.10157
8746 2 28.474 0 4.06772
8747 2 30.5079 0 6.10157
536 4 32.5417 0 4.06772
539 4 32.5417 2.03386 6.10157
8748 2 32.5417 0 4.06772
8749 2 32.5417 2.03386 6.10157
537 4 34.5756 2.03386 4.06772
538 4 34.5756 0 6.10157
8752 2 36.6094 2.03386 6.10157
540 4 40.6772 0 4.06772
8750 2 38.6433 2.03386 4.06772
8751 2 38.6433 0 6.10157
8753 2 40.6772 2.03386 6.10157
541 4 44.7449 0 4.06772
542 4 46.7787 2.03386 4.06772
8754 2 46.7787 2.03386 4.06772
8755 2 46.7787 0 6.10157
543 4 50.8465 2.03386 4.06772
544 4 50.8465 0 6.10157
545 4 48.8126 2.03386 6.10157
8756 2 48.8126 2.03386 6.10157
546 4 52.8803 0 4.06772
549 4 52.8803 2.03386 6.10157
8757 2 52.8803 0 4.06772
547 4 54.9142 2.03386 4.06772