ITEM: TIMESTEP
0
ITEM: NUMBER OF ATOMS
50688
ITEM: BOX BOUNDS xy xz yz pp pp pp
-20.3679009 69.1955109 9.2826214
-22.2159996 65.355896 0.0
-22.2159996 65.355896 0.0
ITEM: ATOMS id type x y z VoronoiIndex1 VoronoiIndex2 VoronoiIndex3 VoronoiIndex4 VoronoiIndex5 VoronoiIndex6 VoronoiIndex7 VoronoiIndex8 VoronoiIndex9 AtomicVolume
9 1 -9.0380001 -13.1300001 3.1930001 0 0 0 0 12 0 0 0 0 11.3959246
23 4 15.4499998 21.0499992 -0.4269 0 0 0 5 4 7 0 0 0 13.7002936
25 2 7.8930002 18.7199993 17.7000008 0 0 0 3 5 3 1 0 0 11.2504435
35 2 21.2099991 14.9099998 -13.3199997 0 0 1 1 10 1 1 0 0 12.5917797
42 2 21.7900009 15.6899996 -9.2629995 0 0 1 2 7 3 0 0 0 11.5631466
57 5 6.3740001 -4.9320002 -19.5 0 0 0 1 10 2 0 0 0 11.3947001
71 2 3.0699999 16.6700001 -14.0799999 0 0 0 2 10 1 0 0 0 11.5681706
80 5 -1.0039999 20.6499996 -16.2399998 0 0 0 2 9 4 1 0 0 13.4260311
81 4 14.6199999 -3.4990001 -9.3059998 0 0 0 0 12 0 0 0 0 11.3679619
82 5 -13.5200005 -15.5600004 -21.0900002 0 0 0 1 10 2 0 0 0 11.8964186
91 2 2.2820001 17.6599999 -10.1499996 0 0 0 2 8 2 0 0 0 11.8453856
101 1 -7.5980001 -19.1800003 -4.3930001 0 0 0 1 10 3 0 0 0 12.0970316
105 4 2.4990001 11.6800003 -16.2900009 0 0 1 2 7 4 0 0 0 12.1075687
110 5 -6.448 -18.4300003 2.7479999 0 0 0 1 10 4 0 0 0 13.0279055
112 2 11.6499996 -4.5380001 14.8999996 0 0 0 2 8 4 0 0 0 12.0486288
128 5 -14.0200005 -13.1300001 6.9460002 0 0 0 4 8 1 0 0 0 12.1445808
141 5 3.995 6.9580002 -9.2250004 0 0 0 3 6 4 0 0 0 12.4992199
147 5 12.3400002 -2.6860001 11.1599999 0 0 1 1 9 2 0 0 0 11.8697158
157 4 0.4238 20.75 13.3999996 0 0 1 3 5 6 0 0 0 12.4123726
159 4 15.2700005 -3.108 14.9799996 0 0 0 4 6 2 0 0 0 11.5252533
168 5 4.751 -8.7200003 -15.0799999 0 0 0 2 10 1 0 0 0 12.3515902
171 2 -1.475 6.5180002 -10.0900002 0 0 1 5 4 3 1 0 0 12.2730188
174 4 -6.6539998 14.8199997 11.5 0 0 0 1 10 2 0 0 0 11.6137057
184 2 13.8900004 -1.73 12.8900004 0 0 0 2 8 3 0 0 0 11.9729758
186 5 13.6099997 12.04 -15.7399998 0 0 0 3 6 4 0 0 0 12.4309588
196 5 10.9399996 -7.995 -1.9910002 0 0 0 1 10 2 0 0 0 12.2377434
214 2 1.312 14.7299996 -18.2099991 0 0 0 3 6 4 0 0 0 11.8673382
217 2 -14.7299996 -7.2979999 19.5300007 0 0 0 2 8 2 0 0 0 11.5129538
220 2 -18.9500008 -19.7999993 -9.6339998 0 0 0 1 10 2 0 0 0 11.8924952
243 4 2.984 0.5925 14.0100002 0 0 1 3 5 6 0 0 0 13.1002655
244 5 11.79 -12.75 18.7800007 0 0 0 2 10 2 0 0 0 13.008358
245 1 -8.5109997 3.197 -21.5 0 0 2 3 4 2 2 0 0 11.6756411
247 2 11.1800003 13.3500004 -4.8920002 0 0 0 1 10 2 0 0 0 11.8568994
254 2 -7.6310001 18.2399998 -7.2919998 0 0 0 0 12 0 0 0 0 11.911151
273 4 20.4200001 -11.7100001 -0.438 0 0 0 2 8 5 0 0 0 12.7746563
275 4 15.9899998 -0.5156001 11.8299999 0 0 1 2 7 4 0 0 0 11.9808512
288 5 -10.5500002 13.1300001 21.5400009 0 0 0 1 10 2 0 0 0 11.6335058
291 4 -15.9899998 12.8599998 -13.5 0 0 0 2 10 3 0 0 0 12.6422005
295 4 -3.0079999 2.501 -8.8870002 0 0 1 1 8 3 1 0 0 11.8902044
299 5 -0.3073 18.5100003 -19.7700005 0 0 0 1 10 3 0 0 0 12.6226568
300 2 19.1700001 -8.3579998 1.4930001 0 0 0 4 4 6 0 0 0 11.5847187
313 5 -0.05641 -14.6099997 3.6070001 0 0 0 1 12 2 0 0 0 13.659566
314 5 -15.5500002 -21.3199997 3.6080001 0 0 0 1 10 4 0 0 0 12.9094602
327 4 -1.48 -3.414 14.6099997 0 0 0 2 8 2 0 0 0 11.4366303
335 1 -8.7060004 17.0 -14.9899998 0 0 0 3 6 5 0 0 0 11.1928873
348 4 -8.5240002 2.5109999 12.0299997 0 0 0 2 8 2 0 0 0 12.4882679
360 4 11.5699997 -21.4300003 -7.6869998 0 0 0 1 10 6 0 0 0 14.2727127
364 4 -8.4659996 4.336 -15.0699997 0 0 2 3 8 2 0 0 0 13.5148468
387 4 16.2900009 -11.75 0.7806 0 0 1 0 11 3 0 0 0 12.4489193
397 1 -7.3600001 0.6639 19.0200005 0 0 0 4 6 2 0 0 0 11.2600231
401 4 -13.6499996 12.8299999 11.3500004 0 0 1 1 9 4 0 0 0 12.9780064
410 4 8.4390002 -4.4640003 7.8169999 0 0 0 1 10 3 0 0 0 12.4810829
412 1 -5.6300001 12.6700001 -7.6290002 0 0 0 1 10 2 0 0 0 11.5524092
415 2 -7.1199999 1.411 -12.8999996 0 0 0 0 12 0 0 0 0 11.3935795
419 2 6.322 -10.6199999 -11.3599997 0 0 0 3 6 4 0 0 0 11.5956459
420 5 10.6099997 -10.2200003 -10.6400004 0 0 0 4 4 5 0 0 0 11.6247101
432 5 4.6100002 8.7379999 8.059 0 0 0 2 11 1 0 0 0 12.4959955
438 4 -12.4200001 -19.9200002 16.1700001 0 0 0 1 10 4 0 0 0 13.0312052
439 4 -7.4780002 19.1000004 -16.5699997 0 0 1 4 3 4 2 0 0 12.709817
442 4 5.7989998 16.8299999 -18.3400002 0 0 0 0 12 2 0 0 0 12.4121695
453 4 0.8275 0.8005 7.7550001 0 0 1 1 9 4 0 0 0 13.6151476
459 4 -9.8850002 0.624 -21.3299999 0 0 0 1 10 4 0 0 0 12.4922228
465 3 20.2299996 -10.1099997 -15.6300001 0 0 0 3 8 2 0 0 0 11.8040076
475 2 -1.2920001 21.4599991 11.5699997 0 0 2 2 6 3 0 0 0 12.0013809
477 5 -12.5299998 -4.5560003 -3.4530001 0 0 0 5 4 4 0 0 0 12.1817246
485 4 7.6810003 4.369 -15.5500002 0 0 0 1 10 3 0 0 0 12.156352
515 5 0.2453 -14.29 16.7399998 0 0 0 2 8 4 0 0 0 11.9637108
520 5 6.04 -16.8199997 10.9799996 0 0 0 4 6 3 0 0 0 11.9374218
533 4 11.1700001 4.8930002 -4.6770001 0 0 0 1 10 5 0 0 0 13.3085852
537 2 17.2199993 8.6210003 -9.2749996 0 0 0 2 8 1 0 0 0 10.8059759
539 2 -7.0640001 7.3779998 -21.7600003 0 0 0 2 8 2 0 0 0 11.2623358
540 5 -7.9569998 -17.7299996 0.5777 0 0 0 0 12 0 0 0 0 10.5768976
550 4 8.7659998 -10.3599997 12.1599999 0 0 0 1 10 2 0 0 0 11.7658205
562 2 4.2459998 -13.1300001 -22.0100002 0 0 0 0 12 0 0 0 0 11.5419064
564 4 14.2299996 -1.582 17.1399994 0 0 3 3 4 5 1 0 0 12.7098532
567 4 7.3449998 -14.3000002 20.6900006 0 0 0 0 12 0 0 0 0 11.3541422
574 5 17.6299992 -16.4599991 -12.9399996 0 0 0 1 10 1 2 0 0 11.9976312
576 5 -16.3199997 6.5630002 -16.7999993 0 0 0 0 12 0 0 0 0 11.887495
580 2 17.2199993 -15.6700001 -10.8400002 0 0 0 4 3 3 1 0 0 11.5207844
585 4 12.3100004 -9.2629995 -11.7299996 0 0 0 4 8 2 0 0 0 13.0086222
603 5 -9.3170004 -19.4300003 -0.4344 0 0 0 1 10 2 0 0 0 10.9112806
620 4 2.0420001 16.3799992 8.1870003 0 0 0 2 8 4 0 0 0 13.1282988
622 5 2.3310001 -5.0209999 5.2930002 0 0 0 0 12 2 0 0 0 12.1122713
642 4 -4.7319999 2.2279999 -20.3199997 0 0 0 2 8 5 0 0 0 12.379076
643 5 16.1700001 -0.2852 -17.4400006 0 0 0 3 6 5 0 0 0 12.2704029
650 2 17.9899998 -12.75 17.1700001 0 0 0 0 12 0 0 0 0 11.3137159
653 4 0.7146001 -17.1399994 3.293 0 0 0 1 10 5 0 0 0 12.9298802
654 4 1.814 -8.5570002 -0.5878001 0 0 0 0 12 2 0 0 0 12.7011757
656 4 6.8509998 -14.5200005 15.0900002 0 0 1 1 9 4 0 0 0 12.3793736
665 4 -7.5949998 -7.7659998 -22.1499996 0 0 0 3 6 5 0 0 0 13.2821169
666 4 -9.606 -10.9200002 -0.4248 0 0 0 0 12 2 0 0 0 12.343113
671 2 19.1499996 -0.8644 17.25 0 0 0 0 12 0 0 0 0 11.3422003
673 2 10.2399998 5.5100003 12.4399996 0 0 0 0 12 0 0 0 0 11.151063
679 4 9.8579998 13.25 17.7199993 0 0 0 0 12 0 0 0 0 11.4049349
683 5 -5.6170001 10.9799996 18.9799996 0 0 0 1 10 2 0 0 0 11.890689
687 5 14.9200002 -10.4499998 19.8700008 0 0 0 3 8 3 0 0 0 11.826994
694 5 -15.4700003 15.4899998 5.3400002 0 0 0 1 10 4 0 0 0 12.5209532
716 4 1.702 4.2519999 4.421 0 0 1 2 9 1 2 0 0 12.1855688
717 4 6.909 -20.1200008 1.979 0 0 1 1 9 3 0 0 0 11.8954096
728 5 5.77 -0.01966 3.948 0 0 0 1 12 2 0 0 0 12.8214827
740 2 21.5699997 4.3990002 17.7999993 0 0 0 4 6 2 0 0 0 11.6049319
745 4 1.533 -16.0799999 -17.4099999 0 0 0 3 8 1 0 0 0 11.355402
761 5 -4.4499998 11.8199997 -12.5600004 0 0 0 3 6 4 0 0 0 12.2148142
770 4 -18.4300003 -19.4300003 19.2399998 0 0 0 1 10 3 0 0 0 12.6412192
775 2 -2.2620001 -14.3599997 21.3999996 0 0 0 0 12 0 0 0 0 11.3899756
776 4 19.8299999 6.7329998 4.9640002 0 0 0 4 8 0 0 0 0 11.924677
781 4 -6.605 -20.3099995 -11.2200003 0 0 0 3 8 4 0 0 0 12.6939831
798 5 -7.0 21.2099991 -4.119 0 0 0 2 10 0 0 0 0 10.9268122
806 4 -7.2319999 4.171 16.7099991 0 0 0 5 5 5 1 0 0 13.6432562
841 5 -10.2600002 21.1100006 -11.7399998 0 0 0 2 8 4 0 0 0 12.4220524
843 2 3.5910001 -3.6359999 -8.0880003 0 0 0 3 6 3 0 0 0 11.4613514
846 3 18.9699994 -14.79 -14.25 0 0 0 1 10 2 0 0 0 11.3401489
864 2 6.2319999 -3.6640001 1.006 0 0 0 2 8 2 0 0 0 11.4385948
897 5 6.2670002 -4.5850001 11.0600004 0 0 0 2 8 2 0 0 0 11.6723585
905 4 20.2099991 -3.974 -2.902 0 0 0 0 12 2 0 0 0 11.7529888
917 5 9.4770003 -13.7100001 19.8799992 0 0 0 0 12 0 0 0 0 11.8967486
949 2 14.4200001 3.5339999 21.1599999 0 0 0 2 7 2 1 0 0 11.0522213
952 2 11.4499998 0.5529 1.038 0 0 0 0 12 1 1 0 0 12.6371413
961 2 -0.6381001 -20.4699993 -6.402 0 0 0 3 6 4 0 0 0 11.2040386
980 2 -0.1665 20.2399998 17.1700001 0 0 0 0 12 0 0 0 0 11.0846739
990 4 5.4730001 -14.6999998 -20.4699993 0 0 0 0 12 0 0 0 0 11.8166094
996 5 14.2399998 -9.2089996 15.8800002 0 0 0 1 10 3 0 0 0 11.4672499
999 4 2.1240001 9.1700001 -9.8389998 0 0 0 1 9 4 1 0 0 12.9732294
1009 5 8.6169997 11.2299996 18.25 0 0 0 2 9 2 0 0 0 12.1290855
1018 3 23.7800007 18.6100006 13.5900002 0 0 0 1 10 2 0 0 0 12.2710915
1023 2 17.6399994 -2.962 -16.4699993 0 0 1 5 4 2 1 1 0 12.0968075
1027 4 -5.3119998 -11.3100004 17.4899998 0 0 0 3 7 4 1 0 0 12.68571
1034 4 14.0600004 7.027 -14.3199997 0 0 0 1 10 2 0 0 0 11.8035403
1039 5 10.3900004 10.2399998 -21.1800003 0 0 1 4 3 5 0 0 0 11.5709391
1040 1 9.118 -15.25 -20.8400002 0 0 1 3 5 5 0 0 0 11.9869442
1053 4 -15.75 -0.9665 0.2595 0 0 0 0 12 2 0 0 0 11.8792944
1063 5 18.2600002 -20.0499992 -14.9300004 0 0 0 1 10 2 0 0 0 11.7852068
1067 3 18.75 -6.8779998 -19.1299992 0 0 1 1 9 4 0 0 0 12.9488402
1068 5 -3.649 5.1370001 -2.0179999 0 0 0 1 10 2 0 0 0 11.4873572
1087 4 -12.6400004 16.5699997 -0.2464 0 0 0 3 7 3 1 1 0 13.6619816
1089 4 -2.862 -7.8379998 4.224 0 0 0 3 6 5 0 0 0 12.8493786
1091 5 -0.2522 -16.7000008 8.0129995 0 0 0 3 6 3 0 0 0 11.8419114
1094 5 10.2200003 2.74 19.1100006 0 0 0 3 6 3 0 0 0 11.372181
1101 4 -6.9889998 -17.3199997 10.0 0 0 1 1 9 2 0 0 0 11.5221977
1111 4 -12.1700001 -18.7199993 20.3600006 0 0 0 0 12 0 0 0 0 11.3167668
1113 4 13.9300004 4.5760002 18.6299992 0 0 1 3 7 3 0 0 0 12.3866425
1119 4 18.3299999 -6.7719999 19.7999993 0 0 0 0 12 3 0 0 0 12.5747519
1127 2 -5.1680002 14.9899998 -2.9430002 0 0 0 3 8 2 0 0 0 11.968423
1129 2 18.2399998 19.7900009 19.9799996 0 0 0 0 12 0 0 0 0 11.2452049
1143 5 -4.1999998 11.3599997 -0.08828 0 0 0 3 6 6 0 0 0 13.6983862
1147 4 -11.5100003 0.4521 -10.8400002 0 0 0 2 8 4 0 0 0 12.2783585
1152 2 -10.9099998 -12.4099999 -8.6739998 0 0 1 2 7 2 0 0 0 10.9564296
1158 2 4.0640001 13.25 13.1700001 0 0 0 0 12 0 0 0 0 10.9739228
1161 4 10.5299998 -1.391 -3.108 0 0 0 0 12 3 0 0 0 13.1766691
1167 4 20.9400006 -4.6139999 -0.5858 0 0 0 0 12 0 0 0 0 11.0912514
1171 5 -0.556 -0.9013 14.3599997 0 0 0 2 8 4 0 0 0 12.8323508
1175 4 7.468 17.0200005 15.54 0 0 0 2 12 2 0 0 0 12.2968311
1185 2 9.8310004 -4.467 -21.4300003 0 0 0 0 12 0 0 0 0 11.5665455
1190 2 -8.2100001 -16.0100002 -15.7399998 0 0 0 2 8 2 0 0 0 10.9616128
1191 4 -12.6499996 20.2399998 -12.6499996 0 0 1 4 7 2 2 0 0 13.0997095
1196 2 14.0900002 21.1599999 -19.0400009 0 0 1 2 5 4 0 0 0 10.7081385
1207 5 11.75 18.2399998 18.1599999 0 0 0 0 12 0 0 0 0 11.7559309
1208 4 15.6300001 17.7000008 -4.619 0 0 0 4 6 4 0 0 0 12.5773678
1212 4 10.0200005 -3.3640001 11.3500004 0 0 2 2 6 5 0 0 0 12.3601151
1214 5 17.9599992 4.605 15.8199997 0 0 0 2 8 2 0 0 0 11.1129532
1216 1 10.2700005 21.1700001 -13.6899996 0 0 0 2 8 2 0 0 0 11.3108683
1217 5 -7.152 9.4940005 3.8 0 0 0 2 10 2 0 0 0 12.0109091
1226 4 11.5699997 18.6399994 -16.2399998 0 0 0 2 8 4 0 0 0 11.9138308
1232 4 -16.9799996 5.54 -8.4280005 0 0 0 0 12 3 0 0 0 12.8054667
1245 5 20.25 -14.29 1.078 0 0 0 0 12 0 0 0 0 11.2297812
1246 4 10.4399996 10.8199997 -10.8299999 0 0 1 1 9 5 0 0 0 13.1857529
1249 2 -7.204 -8.5050001 21.0900002 0 0 0 3 6 4 0 0 0 11.396514
1250 2 -5.4520002 11.4700003 6.513 0 0 0 4 6 4 0 0 0 12.6259833
1252 4 -14.2299996 -17.3799992 -19.2900009 0 0 0 3 6 6 0 0 0 12.4973116
1261 4 6.6989999 -1.314 -0.3776 0 0 2 2 8 3 0 0 0 12.4044466
1269 5 -14.5 -19.1900005 -7.1110001 0 0 1 2 8 2 1 1 0 12.3552113
1270 2 0.671 5.8660002 0.2729 0 0 1 2 7 4 0 0 0 11.902669
1295 4 -1.744 -21.8500004 -4.434 0 0 0 3 6 4 0 0 0 11.782773
1305 5 -0.7484 16.5100003 14.3900004 0 0 0 1 9 2 1 0 0 12.2090025
1306 5 -3.4430001 16.2199993 -8.7480002 0 0 0 3 8 5 0 0 0 13.3021107
1318 5 -0.1047 -3.2360001 -13.1000004 0 0 0 1 10 2 0 0 0 11.4713421
1325 4 17.4799996 21.1100006 4.3140001 0 0 1 2 7 2 2 0 0 12.1996994
1328 2 5.9039998 13.7100001 -5.9099998 0 0 0 3 8 2 2 0 0 12.5160141
1335 5 -3.7850001 -0.709 20.6399994 0 0 0 1 10 2 0 0 0 12.4087868
1337 4 17.1299992 -13.5699997 -7.566 0 0 0 3 6 4 0 0 0 11.7739554
1340 4 15.1599999 14.7600003 -0.09715 0 0 0 3 8 4 0 0 0 12.9011928
1352 4 -16.9899998 -20.8999996 17.5799999 0 0 0 1 10 5 0 0 0 13.3664303
1357 5 17.4799996 -9.5539999 -4.855 0 0 0 1 10 4 0 0 0 12.5510254
1371 4 17.6299992 8.889 -1.653 0 0 0 0 12 0 0 0 0 11.2555161
1374 4 17.3199997 -7.0830002 1.757 0 0 0 1 10 4 0 0 0 12.4268952
1386 2 7.9520002 1.123 4.7360001 0 0 0 2 6 4 0 0 0 11.7549534
1388 5 13.0699997 -3.264 -7.2620001 0 0 0 0 12 0 0 0 0 11.2831736
1393 4 4.4029999 -6.4590001 4.923 0 0 1 0 11 1 0 0 0 12.0094891
1415 4 2.9360002 -13.6099997 -2.1960001 0 0 0 1 10 5 0 0 0 13.1957169
1419 4 13.5 -18.2600002 -13.5299998 0 0 0 1 12 1 0 0 0 12.7853146
1427 5 20.2399998 -16.4799996 -2.806 0 0 0 0 12 0 0 0 0 11.9033156
1431 4 -17.6399994 -8.3450003 2.4760001 0 0 0 0 12 4 0 0 0 13.3884249
1433 5 1.8660002 -5.3569999 15.3000002 0 0 0 5 4 4 0 0 0 11.7589903
1444 4 -4.2480002 1.855 11.6899996 0 0 0 1 10 2 0 0 0 12.6068325
1447 4 4.2270002 -20.2700005 14.75 0 0 0 2 8 5 0 0 0 12.9712764
1450 1 18.7999993 5.369 -6.356 0 0 2 4 2 4 2 0 0 12.0493097
1452 4 -8.0150003 -8.7290001 -19.3999996 0 0 0 1 10 3 0 0 0 12.7406225
1469 2 4.7989998 -17.1499996 -1.721 0 0 1 2 8 2 1 0 0 11.989833
1471 5 -16.6100006 -20.1900005 -10.4899998 0 0 2 3 4 5 0 0 0 11.9743338
1487 4 3.1700001 -16.0400009 -8.8009997 0 0 1 3 4 4 1 0 0 11.9055376
1504 5 10.3599997 4.955 -16.7000008 0 0 1 3 5 5 0 0 0 12.2895346
1516 2 17.2900009 18.1499996 -2.8380001 0 0 0 0 12 0 0 0 0 11.1347284
1533 2 9.2690001 1.3200001 -6.0700002 0 0 0 0 12 0 0 0 0 12.1059208
1534 4 8.3599997 15.3400002 0.7094 0 0 0 2 9 2 1 0 0 11.9867144
1543 1 -16.6499996 -16.75 5.5619998 0 0 0 0 10 2 0 0 0 11.1560192
1548 4 11.8599998 -16.25 16.4599991 0 0 0 2 8 5 0 0 0 12.5614758
1550 4 -2.2590001 -14.3800001 -12.9300004 0 0 0 1 10 3 0 0 0 12.5110817
1561 4 -13.3400002 3.951 4.0700002 0 0 0 4 5 5 1 0 0 12.8761578
1566 1 8.7259999 1.306 -8.6520005 0 0 0 1 12 2 0 0 0 12.9834996
1581 2 4.2740002 8.8219996 -4.0980001 0 0 1 2 9 2 0 0 0 11.6170931
1584 2 20.1200008 18.6900006 19.2099991 0 0 0 0 12 0 0 0 0 10.6258602
1585 3 -7.6180001 -19.4500008 14.9499998 0 0 0 0 12 0 0 0 0 11.3144674
1595 5 3.3299999 1.048 -12.4200001 0 0 1 3 5 3 2 0 0 12.5139084
1605 5 7.3429999 -5.5029998 0.001472 0 0 1 2 7 4 0 0 0 12.095995
1618 4 -1.136 -6.5359998 21.2700005 0 0 0 1 10 5 0 0 0 13.3377895
1622 4 8.5950003 14.3599997 -1.624 0 0 0 0 12 3 0 0 0 13.4689799
1625 4 8.6929999 -6.921 8.3699999 0 0 0 1 12 2 0 0 0 13.3958483
1630 4 0.8951 -17.0100002 12.4499998 0 0 0 2 10 3 0 0 0 12.5971174
1632 4 0.01673 -5.7909999 -13.4099999 0 0 0 2 8 4 0 0 0 12.6096764
1644 4 6.2480002 12.7799998 13.8900004 0 0 1 1 9 2 1 0 0 13.4758234
1661 5 21.1499996 2.263 -19.9699994 0 0 0 2 10 1 0 0 0 12.7270422
1667 4 -4.4320002 8.6219998 -8.8199997 0 0 0 2 8 3 0 0 0 12.0894699
1672 4 9.3879995 -19.3799992 -20.1700001 0 0 0 2 8 4 0 0 0 12.1498356
1687 5 15.4799996 -0.7413 14.7299996 0 0 0 2 8 5 0 0 0 12.6389141
1694 2 17.3199997 -0.922 3.283 0 0 0 0 12 0 0 0 0 10.893139
1699 4 18.2999992 -7.8709998 8.342 0 0 0 1 10 2 0 0 0 12.0456705
1700 5 11.9799996 12.3999996 20.8299999 0 0 1 4 4 3 1 0 0 11.4316216
1705 1 -1.265 -14.7600003 -0.5308 0 0 0 1 10 2 0 0 0 12.5763626
1707 4 17.0599995 4.5289998 -12.3599997 0 0 0 3 6 2 2 0 0 12.2908659
1712 2 14.7299996 -14.1999998 -20.0499992 0 0 0 1 10 2 0 0 0 11.7903242
1714 4 17.4699993 0.4974 16.1399994 0 0 0 0 12 0 0 0 0 11.7105837
1724 2 -2.717 -0.2526 -12.6899996 0 0 0 0 12 0 0 0 0 11.2966957
1730 5 -3.602 -2.6970001 18.8500004 0 0 1 1 9 2 2 0 0 13.0529346
1733 1 -6.4470001 -15.3500004 18.8600006 0 0 0 0 12 0 0 0 0 11.4966374
1737 4 12.8000002 -20.3400002 -0.6124 0 0 0 0 12 0 0 0 0 11.3676434
1743 4 -5.3790002 -18.1499996 0.4711 0 0 0 0 12 2 0 0 0 12.3363447
1745 4 -14.4700003 -21.6000004 16.8999996 0 0 0 1 10 2 0 0 0 11.6522541
1750 4 1.361 4.0630002 -1.489 0 0 0 3 8 2 0 0 0 11.6870737
1751 4 -0.6285 -11.6099997 -2.846 0 0 1 3 5 5 0 0 0 12.1044464
1772 2 -6.1069999 21.1599999 -19.9400006 0 0 0 2 8 3 0 0 0 11.5210371
1796 2 12.0500002 -8.3909998 -20.6200009 0 0 0 1 10 2 0 0 0 11.9464828
1803 2 15.3000002 -4.4169998 -6.9770002 0 0 2 0 8 2 2 0 0 11.5015307
1805 4 20.8700008 16.2900009 -18.3600006 0 0 0 0 12 0 0 0 0 11.0774508
1813 4 -14.8000002 -3.319 -8.224 0 0 0 2 10 2 0 0 0 11.4473715
1834 4 18.9899998 17.5 21.0499992 0 0 0 0 12 3 0 0 0 13.4705963
1837 4 -15.1999998 11.1000004 -18.7199993 0 0 0 0 12 4 0 0 0 13.5723505
1838 2 6.5980001 17.9799996 -2.849 0 0 0 0 12 0 0 0 0 11.0555248
1847 4 17.7600003 -15.9700004 -18.1000004 0 0 0 2 8 4 0 0 0 12.9209882
1849 5 -1.867 -7.8579998 -12.9300004 0 0 0 1 10 2 0 0 0 11.8004761
1853 2 19.4500008 21.1499996 -12.6400004 0 0 1 0 11 1 0 0 0 11.6446905
1854 4 16.1200008 -6.8509998 8.4289999 0 0 0 0 12 0 0 0 0 11.998333
1860 2 -8.2399998 -5.1300001 -16.8199997 0 0 0 1 10 2 0 0 0 12.2471628
1865 2 -16.4200001 -8.6870003 14.9200002 0 0 0 3 8 2 0 0 0 11.176918
1868 4 -13.1199999 5.6550002 6.9109998 0 0 0 0 12 3 0 0 0 13.6988364
1873 4 13.7600003 -19.8700008 -8.4519997 0 0 0 0 12 0 0 0 0 11.6173382
1880 5 7.2709999 -19.5200005 20.4599991 0 0 0 0 12 0 0 0 0 10.9676496
1890 4 -11.25 -21.0599995 7.8169999 0 0 0 0 10 2 0 0 0 11.4659481
1893 2 10.3599997 -10.9200002 1.021 0 0 0 0 10 2 0 0 0 11.0909109
1898 5 -12.1499996 17.0599995 20.9099998 0 0 1 0 9 3 0 0 0 11.8173638
1911 4 16.0200005 -13.4200001 5.6599999 0 0 0 3 8 2 0 0 0 12.2141619
1921 4 13.3800001 16.1399994 4.3499999 0 0 0 2 8 3 0 0 0 12.1662464
1925 2 14.0299997 -20.0200005 -14.9899998 0 0 0 2 10 1 0 0 0 12.5381756
1926 4 -2.51 7.626 -7.9759998 0 0 0 0 12 2 0 0 0 12.4390593
1928 4 -1.4980001 5.7119999 1.484 0 0 0 1 12 2 0 0 0 13.1148434
1934 4 -3.6800001 17.0400009 -6.4180002 0 0 1 2 7 4 0 0 0 12.0450296
1935 4 6.1360002 -1.995 5.862 0 0 0 0 12 0 0 0 0 11.5160895
1938 4 -4.6989999 -3.74 -9.2460003 0 0 0 1 10 2 0 0 0 11.7459011
1943 5 -8.1470003 20.3199997 -18.5599995 0 0 0 1 10 3 0 0 0 11.9311304
1947 5 -5.981 1.4450001 17.3600006 0 0 0 2 8 3 0 0 0 12.133462
1948 4 -4.4419999 -4.4419999 -11.5699997 0 0 0 0 12 4 0 0 0 13.1606407
1954 5 -9.4709997 -10.4799996 14.0600004 0 0 0 2 8 4 0 0 0 11.9008732
1986 4 -4.5300002 10.3299999 12.2399998 0 0 0 3 6 4 0 0 0 12.2393417
1993 5 -11.7600003 -7.9190002 -17.2600002 0 0 0 1 9 3 1 0 0 12.6939078
1996 4 -5.0180001 15.0 6.7059999 0 0 1 2 7 3 2 0 0 12.225647
1998 2 -1.412 3.866 7.652 0 0 1 2 6 4 1 0 0 12.1157885
2001 4 9.1409998 -5.7069998 5.6770001 0 0 1 1 9 4 0 0 0 13.0908957
2006 5 -12.5699997 -10.6700001 -20.3199997 0 0 2 2 8 2 0 0 0 12.0594044
2009 4 -11.7200003 -18.3700009 -1.5190001 0 0 0 0 11 2 1 0 0 12.27666
2020 2 13.8100004 -3.063 4.006 0 0 2 1 7 2 1 0 0 12.5050059
2022 5 16.7900009 -12.1899996 19.2399998 0 0 0 0 12 2 0 0 0 12.6222906
2027 4 -3.763 -3.973 14.2200003 0 0 1 4 5 4 0 0 0 12.2027121
2028 2 -8.5670004 6.5370002 1.4650001 0 0 0 2 8 4 0 0 0 11.5651179
2050 2 -15.2799997 -20.4599991 -15.7100001 0 0 1 4 4 4 1 0 0 10.9036884
2052 5 -13.1199999 19.2099991 2.958 0 0 1 1 8 3 1 0 0 12.171814
2055 4 7.881 -3.718 -10.1499996 0 0 0 1 10 4 0 0 0 13.263957
2056 5 16.4799996 11.4499998 9.901 0 0 0 3 8 2 0 0 0 12.8905096
2062 2 8.5900002 15.3900004 -15.5600004 0 0 0 3 6 4 0 0 0 12.099308
2070 2 -9.283 -22.1900005 -14.5500002 0 0 0 2 8 2 0 0 0 11.9788896
2073 4 -3.6180001 -14.5600004 -19.6700001 0 0 2 0 10 2 0 0 0 11.9944602
2081 5 -16.3099995 -14.8900004 1.6360001 0 0 0 1 10 3 0 0 0 11.943163
2082 2 17.3400002 15.7600003 11.6000004 0 0 0 0 12 0 0 0 0 11.5948277
2083 4 -2.54 -19.5900002 -13.8299999 0 0 0 1 10 3 0 0 0 12.8962318
2087 5 -11.4899998 -8.7360001 -6.651 0 0 0 1 10 2 0 0 0 12.1606665
2089 1 18.8600006 -13.9700004 -18.7600003 0 0 1 3 5 5 0 0 0 12.4830609
2093 5 -3.7130001 -15.1800003 11.4600001 0 0 0 0 12 0 0 0 0 12.0140314
2095 4 -1.205 -9.8920002 -20.0599995 0 0 1 2 7 6 0 0 0 13.1181746
2096 5 -18.3500004 -5.3740001 12.8199997 0 0 1 3 5 5 0 0 0 12.4426098
2107 5 -16.2700005 14.6700001 -7.375 0 0 0 1 9 2 1 0 0 12.8474016
2143 2 5.612 2.8610002 16.7000008 0 0 0 3 6 5 0 0 0 12.7344809
2154 4 17.3700009 14.1999998 -1.6490001 0 0 1 2 7 3 0 0 0 12.601985
2160 2 11.8500004 9.3050003 2.8269999 0 0 1 3 5 4 0 0 0 11.1931887
2167 5 17.1900005 14.0 9.5030003 0 0 1 3 7 6 0 0 0 14.2060509
2176 5 8.3579998 13.0 0.7482 0 0 1 3 6 2 1 0 0 11.42902
2178 4 -11.4099999 -19.9699994 -5.5149999 0 0 0 1 10 5 0 0 0 13.1328344
2181 4 -9.3280001 8.368 15.8999996 0 0 0 0 12 4 0 0 0 13.390419
2185 2 -15.5600004 -21.2999992 -6.9000002 0 0 0 3 8 2 0 0 0 11.6628275
2187 2 -3.84 9.651 18.3799992 0 0 0 2 8 2 0 0 0 11.4468327
2197 2 19.8899994 17.1200008 5.8330002 0 0 0 2 8 1 0 0 0 10.9295406
2207 5 14.0200005 -8.6160002 -8.0019999 0 0 2 3 4 3 0 0 0 12.2397041
2212 4 -11.3299999 -5.2420001 -17.0699997 0 0 0 4 5 7 1 0 0 14.0742674
2241 4 4.6020003 -5.5890003 0.8378001 0 0 0 2 10 3 0 0 0 12.4598408
2274 1 -7.3600001 -19.8999996 0.6271 0 0 0 3 6 4 0 0 0 11.4456272
2290 4 -4.4359999 -20.3299999 12.7299996 0 0 0 1 10 2 0 0 0 12.4274264
2291 2 -12.9300004 15.8500004 -14.4600001 0 0 0 1 10 2 0 0 0 11.4420367
2295 1 6.3979998 -1.359 18.1000004 0 0 0 0 12 0 0 0 0 12.6106129
2306 4 22.6499996 8.9020004 4.5760002 0 0 0 2 10 1 0 0 0 12.4229059
2315 4 15.8100004 0.1233 -21.6399994 0 0 0 2 8 1 0 0 0 11.5796633
2324 1 12.3299999 -9.9090004 10.2399998 0 0 1 4 3 5 0 0 0 12.2588873
2325 4 -16.5300007 -7.0689998 -6.8800002 0 0 0 2 8 4 0 0 0 11.8405724
2333 2 8.3500004 21.5499993 19.7199993 0 0 0 1 10 2 0 0 0 11.4251766
2334 5 -1.311 8.6289997 14.7600003 0 0 0 4 4 6 0 0 0 13.299593
2341 4 21.1299992 8.9209996 -9.882 0 0 0 2 8 3 0 0 0 11.4008227
2342 3 1.1490001 6.4699998 -16.1000004 0 0 0 0 12 0 0 0 0 11.5470848
2346 4 -15.9799996 -2.645 4.632 0 0 0 1 10 3 0 0 0 12.8129549
2356 3 18.7600003 -1.7410001 -10.1599999 0 0 0 2 10 2 0 0 0 12.2941933
2377 4 5.0819998 -20.3099995 21.2399998 0 0 0 0 12 0 0 0 0 10.8226481
2388 4 -4.928 7.3959999 -1.803 0 0 0 3 6 5 0 0 0 12.8708726
2389 2 -15.4899998 -15.6300001 -17.5900002 0 0 0 3 6 4 0 0 0 11.752491
2400 2 -13.0299997 -0.8565 20.1599999 0 0 0 3 6 4 0 0 0 11.9958154
2409 5 -6.6589999 21.3500004 19.9099998 0 0 0 3 8 2 0 0 0 12.4278116
2411 4 16.7600003 -18.1499996 -2.6830001 0 0 0 4 8 2 0 0 0 12.3151503
2414 1 1.043 7.4910002 15.3699999 0 0 0 1 10 2 0 0 0 12.2848435
2428 4 -7.5339999 13.9300004 13.6599999 0 0 1 0 11 1 0 0 0 12.2761116
2437 2 -11.8400002 10.0699997 18.7299996 0 0 0 3 6 4 0 0 0 11.7862196
2438 1 9.7869997 -9.9790002 -1.202 0 0 0 0 12 0 0 0 0 10.9932614
2440 4 11.0799999 -12.1800003 -0.9293 0 0 0 3 8 3 0 0 0 12.9448062
2465 5 -2.888 -9.7419997 7.8800002 0 0 1 2 7 4 0 0 0 12.3675947
2476 1 11.1800003 -22.0 19.4899998 0 0 0 2 8 2 0 0 0 11.3008356
2480 4 12.9700004 11.3299999 -20.4200001 0 0 0 0 12 3 0 0 0 13.6341505
2502 4 -7.3790002 -10.8599998 -1.735 0 0 0 3 8 2 0 0 0 12.4551974
2504 2 -9.7349997 -9.2939997 -14.4200001 0 0 1 0 9 1 2 0 0 11.7075815
2509 4 -9.5380001 17.4899998 -21.4699993 0 0 0 4 10 1 0 0 0 12.3166733
2511 5 -6.6180001 6.2090001 -3.9590002 0 0 0 5 2 6 0 0 0 12.4556475
2519 4 7.3140001 -8.8920002 17.3199997 0 0 0 1 10 3 0 0 0 12.091959
2520 4 2.391 -18.8199997 -5.8379998 0 0 1 1 9 5 0 0 0 13.1970291
2521 2 5.2100001 5.1939998 13.3500004 0 0 0 1 10 2 0 0 0 11.6837311
2526 2 -6.329 15.6999998 18.2099991 0 0 1 2 5 5 0 0 0 11.8582126
2534 5 -7.1869998 8.9390002 -17.3500004 0 0 0 3 8 3 0 0 0 12.6469784
2535 5 -6.362 -5.2150002 3.9230002 0 0 1 2 7 6 0 0 0 12.5322705
2565 4 -7.7789998 9.691 -22.0300007 0 0 0 2 8 5 0 0 0 12.1497316
2577 3 -1.597 -3.3699999 10.4700003 0 0 0 0 12 4 0 0 0 13.1679077
2582 2 2.4619999 13.96 -11.6499996 0 0 0 2 10 1 0 0 0 12.4135456
2587 4 23.5400009 16.6399994 9.1680002 0 0 1 1 9 5 0 0 0 13.6846485
2588 2 21.5799999 13.5799999 -10.2200003 0 0 2 2 5 4 1 0 0 11.2180977
2590 4 -7.0040002 11.0100002 11.3900004 0 0 0 1 12 1 0 0 0 12.8064623
2592 3 -13.4399996 14.8599998 -20.5599995 0 0 0 4 6 3 0 0 0 11.772173
2594 2 4.0339999 3.2249999 -17.0 0 0 1 2 7 3 0 0 0 12.0890427
2595 5 -18.75 -15.7600003 2.7780001 0 0 0 2 8 0 2 0 0 11.423831
2600 1 11.9899998 18.4300003 10.3199997 0 0 2 1 8 2 0 0 0 11.0514727
2608 5 3.1889999 -10.1899996 10.1300001 0 0 0 2 8 4 0 0 0 12.5057745
2613 5 -11.2399998 -10.6499996 20.2199993 0 0 0 3 8 3 0 0 0 12.7338619
2615 2 8.132 -20.6200009 6.5289998 0 0 0 2 8 2 0 0 0 11.0011463
2623 3 -16.2399998 2.1770001 -20.4599991 0 0 0 4 10 2 0 0 0 13.8039828
2648 2 2.151 -5.8119998 -14.3000002 0 0 0 0 12 0 0 0 0 11.6934834
2651 4 13.5799999 -20.2299996 9.8479996 0 0 0 0 12 2 0 0 0 12.4071961
2659 4 16.9899998 -3.1429999 -8.7360001 0 0 0 2 10 1 0 0 0 11.7725516
2672 2 -9.7139998 -14.6199999 10.9899998 0 0 0 4 3 4 1 0 0 11.1801214
2677 4 21.2900009 19.1100006 6.1770001 0 0 0 1 10 2 0 0 0 11.8572064
2680 4 16.4899998 -6.9520002 18.3600006 0 0 0 3 6 4 0 0 0 11.8756076
2692 4 -15.8100004 -8.5559998 -5.02 0 0 0 3 6 4 0 0 0 10.9605894
2697 1 -14.4300003 17.8099995 -2.8870002 0 0 1 3 7 4 0 0 0 11.9568158
2706 4 14.5 4.1160002 -12.6800003 0 0 0 1 10 3 0 0 0 13.0929022
2715 4 5.935 -5.1810002 18.0499992 0 0 0 2 8 4 0 0 0 12.4613362
2719 4 1.597 -8.1669998 -11.1700001 0 0 0 0 12 0 0 0 0 12.8677168
2723 4 21.9899998 10.1800003 2.5539999 0 0 0 0 12 4 0 0 0 13.836071
2741 5 13.3500004 13.1400003 1.3350001 0 0 0 0 12 0 0 0 0 11.7622442
2771 5 7.4689999 -18.1000004 9.9560004 0 0 0 3 8 1 0 0 0 11.1508827
2773 2 9.4709997 -18.0900002 -15.1599999 0 0 0 1 10 2 0 0 0 11.5491381
2784 5 -1.854 -20.5499993 1.849 0 0 0 1 10 4 0 0 0 13.1114893
2803 5 -9.5690003 -14.75 -8.5349999 0 0 0 2 10 2 0 0 0 13.1446438
2805 4 14.3500004 11.3299999 -2.573 0 0 0 3 8 4 0 0 0 13.3949022
2813 4 -7.935 -6.8249998 -10.3999996 0 0 0 2 10 3 0 0 0 13.5367718
2823 4 1.155 -21.5900002 20.3199997 0 0 1 2 11 0 0 0 0 12.564621
2830 4 -3.708 21.3400002 11.1599999 0 0 1 2 8 3 1 0 0 12.8068991
2840 2 -5.0970001 19.0799999 3.8110001 0 0 1 2 7 3 0 0 0 12.2581835
2848 4 -3.8410002 -7.9060002 6.5799999 0 0 0 0 12 2 0 0 0 12.1997042
2850 4 -3.56 4.211 11.0900002 0 0 0 2 10 1 0 0 0 11.8653288
2860 1 3.8220001 -1.0420001 -18.6100006 0 0 0 4 6 3 0 0 0 12.1379881
2862 3 18.7999993 -20.3700009 -10.75 0 0 1 1 9 4 0 0 0 12.3492499
2864 4 -4.448 17.4699993 21.3099995 0 0 0 2 8 0 2 0 0 11.494339
2871 5 -8.1309996 15.1099997 -13.0100002 0 0 1 2 7 4 0 0 0 12.5501042
2878 2 1.022 -6.9699998 8.6920004 0 0 0 2 8 4 0 0 0 12.1799851
2900 4 3.388 4.4039998 -21.4799996 0 0 0 2 10 1 0 0 0 11.3285446
2911 4 2.2550001 18.5400009 -12.4399996 0 0 0 0 12 2 0 0 0 11.5926895
2929 4 -13.3000002 -13.6999998 -14.0 0 0 0 1 12 2 0 0 0 12.5250902
2942 4 -3.422 -18.8500004 14.6000004 0 0 0 3 8 2 0 0 0 12.4245806
2961 4 1.7130001 -10.4399996 -9.7880001 0 0 0 1 10 5 0 0 0 13.1344004
2993 4 15.4799996 21.3099995 -17.1900005 0 0 0 1 10 4 0 0 0 12.51752
2994 4 -4.9720002 -9.3990002 -0.8674 0 0 0 1 12 2 0 0 0 13.089982
2995 2 7.4629998 -2.0039999 15.3999996 0 0 2 1 7 4 1 0 0 12.9152966
2997 2 -16.3199997 -8.1280003 -21.2800007 0 0 1 2 6 3 1 0 0 11.8918
2999 2 19.4699993 21.1599999 0.776 0 0 0 3 6 4 0 0 0 11.6448698
3019 4 19.5699997 16.7600003 -8.783 0 0 0 1 10 4 0 0 0 13.1297245
3020 5 16.4899998 6.0139999 -19.1700001 0 0 0 3 6 6 0 0 0 12.6612406
3021 5 -2.8770002 -10.5799999 0.6965 0 0 0 3 8 2 0 0 0 11.7097721
3024 5 -2.731 7.4250002 -21.1599999 0 0 0 3 6 6 0 0 0 12.6360722
3048 4 4.0809999 10.9799996 14.3100004 0 0 1 0 11 4 0 0 0 13.6283856
3056 4 13.2600002 -15.3100004 -7.8179999 0 0 0 2 10 4 0 0 0 13.5736943
3064 2 16.9400006 -14.6199999 -20.2299996 0 0 0 1 10 3 0 0 0 11.9804584
3066 2 -17.1599999 5.0250001 -12.6999998 0 0 0 2 8 2 0 0 0 11.8678752
3070 4 13.9799996 4.9060002 14.5299998 0 0 0 2 8 4 0 0 0 12.217454
3072 4 -12.9399996 -4.7430001 -18.9500008 0 0 0 1 10 2 0 0 0 12.4577322
3083 4 -12.4799996 -10.4300003 -8.8299999 0 0 0 3 8 4 0 0 0 13.1519079
3101 5 21.3400002 1.5880001 -6.112 0 0 0 4 4 4 0 0 0 11.7992306
3110 2 6.7329998 16.8799992 1.554 0 0 0 1 10 2 0 0 0 11.7742319
3119 5 14.29 11.1700001 13.9700004 0 0 1 1 11 1 0 0 0 12.4358368
3126 2 -14.5500002 -1.63 18.1000004 0 0 0 3 8 2 0 0 0 11.3683157
3129 2 2.76 15.1700001 -7.355 0 0 0 3 8 0 0 0 0 11.4246483
3137 2 4.566 -3.4500001 -19.2800007 0 0 0 2 8 2 0 0 0 11.901103
3142 2 -8.0179996 13.2700005 -16.9200002 0 0 0 2 8 4 0 0 0 12.0950956
3145 2 -3.135 -22.0300007 -9.0270004 0 0 0 2 9 2 0 0 0 11.8219338
3164 2 18.2999992 -15.5299998 0.3116 0 0 0 1 10 2 0 0 0 10.9654962
3169 5 -1.948 17.9099998 8.0719996 0 0 0 3 6 4 0 0 0 13.0244446
3174 4 -4.7430001 -3.5209999 16.5300007 0 0 1 3 5 4 2 0 0 12.4959517
3190 2 1.561 14.0 8.7209997 0 0 0 0 12 0 0 0 0 11.5896912
3193 2 17.4899998 2.602 8.6479998 0 0 0 2 8 3 0 0 0 11.7073384
3219 4 -3.6240001 7.2030001 18.9599992 0 0 0 3 8 3 0 0 0 11.91609
3223 4 19.4799996 -15.5900002 -20.6700001 0 0 0 0 12 2 0 0 0 12.884328
3231 5 12.9399996 18.7999993 3.4960001 0 0 0 1 10 4 0 0 0 13.574153
3238 5 3.7000001 -21.6299992 19.2199993 0 0 1 1 9 5 0 0 0 13.5228272
3240 1 -11.4099999 20.3600006 -3.3959999 0 0 0 0 12 0 0 0 0 11.0396538
3242 2 -2.289 0.5194 13.1199999 0 0 0 2 10 1 0 0 0 12.4736386
3248 4 -17.4599991 -6.2729998 6.961 0 0 0 0 12 3 0 0 0 13.4311381
3253 5 8.8389998 4.5900002 10.54 0 0 2 1 8 5 0 0 0 12.5408526
3257 4 3.138 -15.6099997 -21.1900005 0 0 0 1 12 2 0 0 0 13.7079849
3274 2 -1.112 15.4799996 16.6100006 0 0 1 2 7 3 0 0 0 11.2797918
3278 4 16.7700005 -8.1850004 -18.6399994 0 0 1 2 7 4 0 0 0 11.4695292
3282 5 6.414 15.04 20.1900005 0 0 1 1 9 2 2 0 0 12.8060141
3283 4 -14.3199997 17.0100002 -21.7000008 0 0 1 2 9 2 0 0 0 11.5941973
3298 5 -4.4400001 0.261 9.198 0 0 0 3 8 4 0 0 0 12.960414
3303 5 -5.1589999 -8.1630001 14.3400002 0 0 0 1 10 2 0 0 0 11.8960124
3313 2 -1.5570001 -8.691 6.2210002 0 0 0 3 6 5 0 0 0 12.210228
3317 5 14.8400002 4.3600001 1.053 0 0 0 0 12 0 0 0 0 11.4466315
3323 5 13.1800003 14.2799997 -16.4099999 0 0 1 1 9 4 0 0 0 12.505436
3338 5 1.494 -5.7020002 -19.3099995 0 0 0 3 6 4 0 0 0 11.4431744
3344 4 -16.4099999 7.1789999 -0.8265 0 0 0 1 10 2 0 0 0 11.5622864