# LAMMPS data file written by OVITO Basic 3.1.3
1000 atoms
5 atom types
0 50 xlo xhi
0 50 ylo yhi
0 50 zlo zhi
0.0 0.0 0.0 xy xz yz

Atoms  # atomic

1 2 36.7872065188347 0.0 0.0
2 2 30.176538322147152 0.0 0.0
3 2 36.10224106564874 0.0 0.0
4 2 20.09027865585394 0.0 0.0
5 2 37.92584916757493 0.0 0.0
6 2 34.32780835421178 0.0 0.0
7 2 25.144296077492463 0.0 0.0
8 2 3.127757377477952 0.0 0.0
9 2 19.559311827164684 0.0 0.0
10 2 25.364704541656902 0.0 0.0
11 2 47.153384696921165 0.0 0.0
12 2 43.248081763267095 0.0 0.0
13 2 31.711193657865422 0.0 0.0
14 2 34.1369796862314 0.0 0.0
15 2 19.024126375657858 0.0 0.0
16 2 48.4882506920614 0.0 0.0
17 2 35.94889326878719 0.0 0.0
18 2 15.381727827997915 0.0 0.0
19 2 17.57381329534527 0.0 0.0
20 2 42.230659263028066 0.0 0.0
21 2 22.2384403566691 0.0 0.0
22 2 26.43619288457198 0.0 0.0
23 2 37.98815398629433 0.0 0.0
24 2 31.142257579840017 0.0 0.0
25 2 26.232898586970265 0.0 0.0
26 2 48.10014385391049 0.0 0.0
27 2 42.908376726362825 0.0 0.0
28 2 28.276366446304994 0.0 0.0
29 2 47.035088038583 0.0 0.0
30 2 36.22321287771042 0.0 0.0
31 2 39.797773636942296 0.0 0.0
32 2 12.541564712000053 0.0 0.0
33 2 21.40243384794514 0.0 0.0
34 2 49.560897269943545 0.0 0.0
35 2 14.980758251823556 0.0 0.0
36 2 16.421913263891675 0.0 0.0
37 2 24.00465725777357 0.0 0.0
38 2 33.13146167173188 0.0 0.0
39 2 3.680805758813932 0.0 0.0
40 2 31.329623324314955 0.0 0.0
41 2 23.19608538909189 0.0 0.0
42 2 31.377770090418295 0.0 0.0
43 2 5.439266034712237 0.0 0.0
44 2 47.06009118137279 0.0 0.0
45 2 0.0024635375880377453 0.0 0.0
46 2 23.139532613279183 0.0 0.0
47 2 6.551119395233523 0.0 0.0
48 2 21.54323000845609 0.0 0.0
49 2 33.46368271213269 0.0 0.0
50 2 11.782765506456816 0.0 0.0
51 2 36.73800367955422 0.0 0.0
52 2 42.13885461786535 0.0 0.0
53 2 38.96313445291455 0.0 0.0
54 2 2.2765576852070146 0.0 0.0
55 2 36.91188094334886 0.0 0.0
56 2 4.851688154256611 0.0 0.0
57 2 29.286505350122027 0.0 0.0
58 2 35.393198815245555 0.0 0.0
59 2 34.29463443380746 0.0 0.0
60 2 48.496477388163925 0.0 0.0
61 2 32.77656003300394 0.0 0.0
62 2 47.42651922636408 0.0 0.0
63 2 8.57779357590729 0.0 0.0
64 2 48.02346490453202 0.0 0.0
65 2 30.231022214812985 0.0 0.0
66 2 38.88644248459323 0.0 0.0
67 2 5.554070440247982 0.0 0.0
68 2 33.1310722837613 0.0 0.0
69 2 16.181545509983824 0.0 0.0
70 2 27.654471424365934 0.0 0.0
71 2 25.530626357540363 0.0 0.0
72 2 17.42116925790917 0.0 0.0
73 2 46.916832231199606 0.0 0.0
74 2 29.644339841748952 0.0 0.0
75 2 28.993573928694033 0.0 0.0
76 2 10.025478046333713 0.0 0.0
77 2 2.9548243229025273 0.0 0.0
78 2 45.695192274505 0.0 0.0
79 2 39.56295159706424 0.0 0.0
80 2 30.49478389509445 0.0 0.0
81 2 44.5702720048208 0.0 0.0
82 2 24.894685668075144 0.0 0.0
83 2 0.6922162342466953 0.0 0.0
84 2 38.509810343249875 0.0 0.0
85 2 36.00972952912145 0.0 0.0
86 2 10.234333799497103 0.0 0.0
87 2 18.447997234335308 0.0 0.0
88 2 34.8434165394948 0.0 0.0
89 2 14.145680498870616 0.0 0.0
90 2 23.741291793284887 0.0 0.0
91 2 4.512910946127474 0.0 0.0
92 2 5.926559028696321 0.0 0.0
93 2 45.27516913645905 0.0 0.0
94 2 30.022400266213584 0.0 0.0
95 2 3.453403093723967 0.0 0.0
96 2 2.2575479093448148 0.0 0.0
97 2 48.595134475453875 0.0 0.0
98 2 20.067131796401515 0.0 0.0
99 2 45.47817718115724 0.0 0.0
100 2 10.79737854247641 0.0 0.0
101 2 43.52645912572279 0.0 0.0
102 2 49.60975822658936 0.0 0.0
103 2 33.124349585761756 0.0 0.0
104 2 49.152920214452564 0.0 0.0
105 2 14.04755333803428 0.0 0.0
106 2 18.945331883880883 0.0 0.0
107 2 20.403347436443912 0.0 0.0
108 2 49.66470857352046 0.0 0.0
109 2 2.2100216539889694 0.0 0.0
110 2 33.586046889428616 0.0 0.0
111 2 47.08115449119072 0.0 0.0
112 2 18.079213889334415 0.0 0.0
113 2 31.66039739336982 0.0 0.0
114 2 31.842282765668013 0.0 0.0
115 2 45.951168861630464 0.0 0.0
116 2 2.486382599813053 0.0 0.0
117 2 3.470704785920203 0.0 0.0
118 2 24.18511687730162 0.0 0.0
119 2 31.228668190142432 0.0 0.0
120 2 20.49823426079438 0.0 0.0
121 2 40.91384091820724 0.0 0.0
122 2 49.76295958392711 0.0 0.0
123 2 36.28299530212133 0.0 0.0
124 2 17.323096501734497 0.0 0.0
125 2 8.549996167806862 0.0 0.0
126 2 19.24787522378695 0.0 0.0
127 2 32.22556534712401 0.0 0.0
128 2 24.529558052256135 0.0 0.0
129 2 14.248634738454319 0.0 0.0
130 2 10.794043669029751 0.0 0.0
131 2 7.660851148792397 0.0 0.0
132 2 5.509435869195217 0.0 0.0
133 2 17.15386234173138 0.0 0.0
134 2 5.492706469841735 0.0 0.0
135 2 11.392911462496825 0.0 0.0
136 2 20.8221316995022 0.0 0.0
137 2 18.034004734686132 0.0 0.0
138 2 18.134183038357115 0.0 0.0
139 2 4.687374218615226 0.0 0.0
140 2 41.30382994369171 0.0 0.0
141 2 39.098508073815914 0.0 0.0
142 2 13.846933463173306 0.0 0.0
143 2 4.61272624457475 0.0 0.0
144 2 5.816840472730844 0.0 0.0
145 2 44.80428604613493 0.0 0.0
146 2 22.225463422914476 0.0 0.0
147 2 33.95643474941168 0.0 0.0
148 2 35.984973801626666 0.0 0.0
149 2 45.40500876409849 0.0 0.0
150 2 20.673188454103837 0.0 0.0
151 2 30.13697415164757 0.0 0.0
152 2 2.7238355784046044 0.0 0.0
153 2 38.111042133042794 0.0 0.0
154 2 15.98880249285135 0.0 0.0
155 2 13.77173412163965 0.0 0.0
156 2 46.34926623943543 0.0 0.0
157 2 24.74200688802232 0.0 0.0
158 2 47.75443759293848 0.0 0.0
159 2 37.449119507988335 0.0 0.0
160 2 15.884745876808154 0.0 0.0
161 2 39.83480087654628 0.0 0.0
162 2 20.334337857590413 0.0 0.0
163 2 32.30616797658451 0.0 0.0
164 2 24.278852513673204 0.0 0.0
165 2 12.667303825780508 0.0 0.0
166 2 44.24382611950861 0.0 0.0
167 2 4.931001407878166 0.0 0.0
168 2 19.012770262949637 0.0 0.0
169 2 44.59709562071269 0.0 0.0
170 2 39.571345224873674 0.0 0.0
171 2 30.8803164398913 0.0 0.0
172 2 6.397845221141186 0.0 0.0
173 2 7.108457863649931 0.0 0.0
174 2 35.637919892516464 0.0 0.0
175 2 8.390537285643356 0.0 0.0
176 2 46.82005310079691 0.0 0.0
177 2 20.448275444893305 0.0 0.0
178 2 36.51501988029759 0.0 0.0
179 2 5.167375158902127 0.0 0.0
180 2 35.232675840562266 0.0 0.0
181 2 38.340552870447844 0.0 0.0
182 2 4.452729314970716 0.0 0.0
183 2 18.023015511817658 0.0 0.0
184 2 0.720898353941124 0.0 0.0
185 2 14.438433256158289 0.0 0.0
186 2 37.119848565035156 0.0 0.0
187 2 2.50258052570726 0.0 0.0
188 2 34.092864250333726 0.0 0.0
189 2 30.48944983595862 0.0 0.0
190 2 44.74270053277431 0.0 0.0
191 2 2.5624038983995066 0.0 0.0
192 2 20.993925220546032 0.0 0.0
193 2 24.840155548683896 0.0 0.0
194 2 40.84894211317142 0.0 0.0
195 2 31.001408698750467 0.0 0.0
196 2 10.177384633301346 0.0 0.0
197 2 43.63332981307591 0.0 0.0
198 2 46.33680773032852 0.0 0.0
199 2 44.90606575211417 0.0 0.0
200 2 46.762632098217246 0.0 0.0
201 2 24.235065201684904 0.0 0.0
202 2 14.08609465966037 0.0 0.0
203 2 37.82199666900549 0.0 0.0
204 2 4.164473581851086 0.0 0.0
205 2 9.083401035146005 0.0 0.0
206 2 45.700758445606375 0.0 0.0
207 2 21.575856755236604 0.0 0.0
208 2 34.18831469697829 0.0 0.0
209 2 28.901457154647552 0.0 0.0
210 2 12.457904716945645 0.0 0.0
211 2 24.800304871024125 0.0 0.0
212 2 26.71528592749921 0.0 0.0
213 2 46.00851552396377 0.0 0.0
214 2 39.07870736040487 0.0 0.0
215 2 17.34630296780007 0.0 0.0
216 2 4.27962609851964 0.0 0.0
217 2 8.21681504687503 0.0 0.0
218 2 13.598580225721301 0.0 0.0
219 2 14.828795651079579 0.0 0.0
220 2 6.665347475741412 0.0 0.0
221 2 24.9133735985136 0.0 0.0
222 2 27.52111133615081 0.0 0.0
223 2 12.353668941933055 0.0 0.0
224 2 0.09169334200658796 0.0 0.0
225 2 25.209192741062314 0.0 0.0
226 2 46.14078603024205 0.0 0.0
227 2 9.811783910426792 0.0 0.0
228 2 46.18527770060289 0.0 0.0
229 2 31.549610651672786 0.0 0.0
230 2 22.027955394489567 0.0 0.0
231 2 10.413256953707112 0.0 0.0
232 2 25.134057444175127 0.0 0.0
233 2 44.24056770816418 0.0 0.0
234 2 48.97489803325538 0.0 0.0
235 2 32.79360438072142 0.0 0.0
236 2 28.464102778017214 0.0 0.0
237 2 40.44537480569651 0.0 0.0
238 2 48.82096446005853 0.0 0.0
239 2 8.405152610990607 0.0 0.0
240 2 44.16079155145318 0.0 0.0
241 2 29.638580284311754 0.0 0.0
242 2 11.749247083532776 0.0 0.0
243 2 13.382858259024305 0.0 0.0
244 2 35.55623186954507 0.0 0.0
245 2 46.03799662258584 0.0 0.0
246 2 41.0686571817618 0.0 0.0
247 2 48.09772999609558 0.0 0.0
248 2 41.10621871630688 0.0 0.0
249 2 39.348665155619216 0.0 0.0
250 2 44.69668362385548 0.0 0.0
251 2 17.384791346040878 0.0 0.0
252 2 48.17237802708113 0.0 0.0
253 2 18.9557275440432 0.0 0.0
254 2 5.0075638806244935 0.0 0.0
255 2 9.042858782046048 0.0 0.0
256 2 27.352087719464347 0.0 0.0
257 2 30.639699274751013 0.0 0.0
258 2 41.18720375938464 0.0 0.0
259 2 5.688875217530665 0.0 0.0
260 2 24.215578790902036 0.0 0.0
261 2 32.18861580769901 0.0 0.0
262 2 42.03290913110024 0.0 0.0
263 2 21.23346363942062 0.0 0.0
264 2 3.097682168656818 0.0 0.0
265 2 32.00228228049598 0.0 0.0
266 2 12.961118364766616 0.0 0.0
267 2 44.50163711896008 0.0 0.0
268 2 15.44918646141621 0.0 0.0
269 2 44.963003926218555 0.0 0.0
270 2 16.99286379044319 0.0 0.0
271 2 42.16291793977334 0.0 0.0
272 2 13.799190542942085 0.0 0.0
273 2 0.5149888446036255 0.0 0.0
274 2 40.50148428782822 0.0 0.0
275 2 10.748824355616948 0.0 0.0
276 2 19.08611681983806 0.0 0.0
277 2 16.326949169285136 0.0 0.0
278 2 22.756600041978242 0.0 0.0
279 2 34.52256631783462 0.0 0.0
280 2 13.802638431383773 0.0 0.0
281 2 46.78500816899675 0.0 0.0
282 2 25.901149990302237 0.0 0.0
283 2 20.481212957743338 0.0 0.0
284 2 12.782108070599469 0.0 0.0
285 2 16.62513692426883 0.0 0.0
286 2 36.94635207121937 0.0 0.0
287 2 43.14309928060182 0.0 0.0
288 2 27.17782384935153 0.0 0.0
289 2 30.325666065839414 0.0 0.0
290 2 37.50523498307251 0.0 0.0
291 2 33.57144095916868 0.0 0.0
292 2 29.707380790734955 0.0 0.0
293 2 43.4579468939479 0.0 0.0
294 2 14.378975012471162 0.0 0.0
295 2 45.33280412420095 0.0 0.0
296 2 23.608556933518937 0.0 0.0
297 2 40.915059476147995 0.0 0.0
298 2 42.43089835992729 0.0 0.0
299 2 47.93374939348043 0.0 0.0
300 2 12.084357283759989 0.0 0.0
301 2 10.527569579388068 0.0 0.0
302 2 42.18810210714785 0.0 0.0
303 2 28.34435590693053 0.0 0.0
304 2 13.067622265729339 0.0 0.0
305 2 23.500631128919096 0.0 0.0
306 2 15.307378007764926 0.0 0.0
307 2 32.899060580702276 0.0 0.0
308 2 28.127119444678804 0.0 0.0
309 2 23.985441554592295 0.0 0.0
310 2 15.821276892563846 0.0 0.0
311 2 31.109551177704624 0.0 0.0
312 2 9.516927803605203 0.0 0.0
313 2 24.94739829912085 0.0 0.0
314 2 41.18447430442416 0.0 0.0
315 2 32.78068538098639 0.0 0.0
316 2 47.66233464910284 0.0 0.0
317 2 15.673576589491345 0.0 0.0
318 2 16.88707707907662 0.0 0.0
319 2 8.0937685463502 0.0 0.0
320 2 34.92073391302423 0.0 0.0
321 2 46.77407585633408 0.0 0.0
322 2 2.6913396700410597 0.0 0.0
323 2 2.5459389881608674 0.0 0.0
324 2 34.111184857213296 0.0 0.0
325 2 41.11143956674485 0.0 0.0
326 2 15.969400903160514 0.0 0.0
327 2 48.01154213472542 0.0 0.0
328 2 49.85038338566895 0.0 0.0
329 2 34.63221706078377 0.0 0.0
330 2 36.49064463204699 0.0 0.0
331 2 18.975587600351563 0.0 0.0
332 2 35.25332192260971 0.0 0.0
333 2 36.90420367333786 0.0 0.0
334 2 16.25658094049462 0.0 0.0
335 2 49.82399261787776 0.0 0.0
336 2 3.669089619066207 0.0 0.0
337 2 11.954409061300158 0.0 0.0
338 2 25.757414136038825 0.0 0.0
339 2 10.942357269003134 0.0 0.0
340 2 45.64244331124474 0.0 0.0
341 2 24.95634716620193 0.0 0.0
342 2 15.53074701736522 0.0 0.0
343 2 17.899954907541527 0.0 0.0
344 2 14.128280130128456 0.0 0.0
345 2 33.44072453792658 0.0 0.0
346 2 15.58642903069994 0.0 0.0
347 2 43.893165710041046 0.0 0.0
348 2 47.05347900838571 0.0 0.0
349 2 29.914776241763796 0.0 0.0
350 2 27.361364070938997 0.0 0.0
351 2 20.00026068713649 0.0 0.0
352 2 37.83919444471336 0.0 0.0
353 2 29.40177999363401 0.0 0.0
354 2 45.574952709663464 0.0 0.0
355 2 13.219692025289387 0.0 0.0
356 2 16.289131285513665 0.0 0.0
357 2 35.18801232840737 0.0 0.0
358 2 32.470822945468065 0.0 0.0
359 2 30.83703807643163 0.0 0.0
360 2 41.01032025907524 0.0 0.0
361 2 43.93429126533267 0.0 0.0
362 2 44.6686233510104 0.0 0.0
363 2 36.20654585188308 0.0 0.0
364 2 27.640887175131223 0.0 0.0
365 2 15.824948233334386 0.0 0.0
366 2 12.436057051401155 0.0 0.0
367 2 36.860258128757 0.0 0.0
368 2 25.614113865638988 0.0 0.0
369 2 21.567048564628386 0.0 0.0
370 2 30.069927792301904 0.0 0.0
371 2 20.999080283836314 0.0 0.0
372 2 14.983370675614921 0.0 0.0
373 2 42.90943693086314 0.0 0.0
374 2 2.4467149709112848 0.0 0.0
375 2 7.819700268303286 0.0 0.0
376 2 12.592922135591389 0.0 0.0
377 2 43.13288136765968 0.0 0.0
378 2 37.2429427081995 0.0 0.0
379 2 23.95673457929673 0.0 0.0
380 2 24.91069319390325 0.0 0.0
381 2 33.72830463727327 0.0 0.0
382 2 47.07334028868323 0.0 0.0
383 2 29.14088337609456 0.0 0.0
384 2 26.281646042563956 0.0 0.0
385 2 13.532195536881947 0.0 0.0
386 2 35.282474647992856 0.0 0.0
387 2 43.68631844726928 0.0 0.0
388 2 9.860519604448276 0.0 0.0
389 2 24.8617767359251 0.0 0.0
390 2 1.4878138902061744 0.0 0.0
391 2 41.40879777722642 0.0 0.0
392 2 49.54167951570972 0.0 0.0
393 2 33.345676399834936 0.0 0.0
394 2 20.80184072020855 0.0 0.0
395 2 36.050883019035396 0.0 0.0
396 2 20.309988445351628 0.0 0.0
397 2 46.67246189587587 0.0 0.0
398 2 19.53117595355907 0.0 0.0
399 2 27.885712721993055 0.0 0.0
400 2 20.011167984062467 0.0 0.0
401 2 12.559212177478951 0.0 0.0
402 2 21.805007349122533 0.0 0.0
403 2 14.04592881336208 0.0 0.0
404 2 41.417264746659164 0.0 0.0
405 2 48.87967545560158 0.0 0.0
406 2 44.225312490593694 0.0 0.0
407 2 23.686145704329387 0.0 0.0
408 2 18.37401059167112 0.0 0.0
409 2 21.285393507574547 0.0 0.0
410 2 5.500651502032428 0.0 0.0
411 2 40.14883837031167 0.0 0.0
412 2 45.618468724147036 0.0 0.0
413 2 5.053596782356706 0.0 0.0
414 2 36.14425407398174 0.0 0.0
415 2 19.05161555884144 0.0 0.0
416 2 40.281252349752435 0.0 0.0
417 2 1.796474429432865 0.0 0.0
418 2 42.53991691498016 0.0 0.0
419 2 15.70516023761202 0.0 0.0
420 2 34.404052956409814 0.0 0.0
421 2 38.31111147792717 0.0 0.0
422 2 25.819882400086826 0.0 0.0
423 2 46.01676623392983 0.0 0.0
424 2 8.396226211693685 0.0 0.0
425 2 3.948328833669107 0.0 0.0
426 2 24.422833800503618 0.0 0.0
427 2 13.38756471315597 0.0 0.0
428 2 33.69444808263164 0.0 0.0
429 2 15.409538231011744 0.0 0.0
430 2 15.00020912522041 0.0 0.0
431 2 24.923258214194682 0.0 0.0
432 2 33.98091968239786 0.0 0.0
433 2 48.02193399846423 0.0 0.0
434 2 45.742493332875306 0.0 0.0
435 2 6.1154788465712375 0.0 0.0
436 2 6.899423416704203 0.0 0.0
437 2 14.964581221999945 0.0 0.0
438 2 8.824968856618455 0.0 0.0
439 2 38.735028591939866 0.0 0.0
440 2 36.42373171618642 0.0 0.0
441 2 44.8046354887506 0.0 0.0
442 2 0.4356658219553333 0.0 0.0
443 2 22.483661300377168 0.0 0.0
444 2 35.919761616734114 0.0 0.0
445 2 3.4019023967744753 0.0 0.0
446 2 3.218236597937063 0.0 0.0
447 2 10.88338072826271 0.0 0.0
448 2 12.901123576564611 0.0 0.0
449 2 48.54834457985271 0.0 0.0
450 2 36.324584315144534 0.0 0.0
451 2 30.335308966451997 0.0 0.0
452 2 34.922434360663885 0.0 0.0
453 2 41.11578099005001 0.0 0.0
454 2 37.905859921742135 0.0 0.0
455 2 32.88214515488548 0.0 0.0
456 2 39.03205878024893 0.0 0.0
457 2 14.56442383349328 0.0 0.0
458 2 20.270981253903447 0.0 0.0
459 2 20.3333491866601 0.0 0.0
460 2 31.165171606250464 0.0 0.0
461 2 16.98079143660296 0.0 0.0
462 2 2.3359370871868346 0.0 0.0
463 2 44.724167431263794 0.0 0.0
464 2 2.474467266498248 0.0 0.0
465 2 46.344686913064734 0.0 0.0
466 2 35.668791819426254 0.0 0.0
467 2 18.449012314314633 0.0 0.0
468 2 31.04842794836369 0.0 0.0
469 2 44.447641158806604 0.0 0.0
470 2 33.01562560927345 0.0 0.0
471 2 5.228479664048852 0.0 0.0
472 2 8.471178712666033 0.0 0.0
473 2 25.311549999519777 0.0 0.0
474 2 4.151212631497109 0.0 0.0
475 2 47.962945836714525 0.0 0.0
476 2 0.21759284898960618 0.0 0.0
477 2 8.509936702130593 0.0 0.0
478 2 4.475194191234388 0.0 0.0
479 2 34.11847458125807 0.0 0.0
480 2 4.717049981003068 0.0 0.0
481 2 49.164191225558035 0.0 0.0
482 2 41.41075447986178 0.0 0.0
483 2 39.28432274458024 0.0 0.0
484 2 2.790666954490467 0.0 0.0
485 2 23.179054221858475 0.0 0.0
486 2 9.625123572192418 0.0 0.0
487 2 0.2522905483218152 0.0 0.0
488 2 48.53830856712528 0.0 0.0
489 2 8.208189910499419 0.0 0.0
490 2 42.322856504267534 0.0 0.0
491 2 35.6834212693082 0.0 0.0
492 2 29.39639323378776 0.0 0.0
493 2 33.888538192800986 0.0 0.0
494 2 9.390692485991375 0.0 0.0
495 2 9.364519681247224 0.0 0.0
496 2 28.102911795849145 0.0 0.0
497 2 33.66429176975691 0.0 0.0
498 2 22.1381093113594 0.0 0.0
499 2 9.700445631391396 0.0 0.0
500 2 43.90874309615934 0.0 0.0
501 2 7.252376073852773 0.0 0.0
502 2 20.85232219249088 0.0 0.0
503 2 17.53502423941462 0.0 0.0
504 2 49.60447413277308 0.0 0.0
505 2 1.0852734481854254 0.0 0.0
506 2 43.087778712274215 0.0 0.0
507 2 32.95039808081358 0.0 0.0
508 2 1.1716577958438334 0.0 0.0
509 2 6.9774257586498525 0.0 0.0
510 2 36.85150804678765 0.0 0.0
511 2 34.5476071468887 0.0 0.0
512 2 19.755122147059172 0.0 0.0
513 2 6.22351402068953 0.0 0.0
514 2 5.12770902970669 0.0 0.0
515 2 0.4463162862763326 0.0 0.0
516 2 35.05735238768682 0.0 0.0
517 2 29.013486884123562 0.0 0.0
518 2 41.220539978491686 0.0 0.0
519 2 33.08270497030329 0.0 0.0
520 2 17.16728983559178 0.0 0.0
521 2 8.462572153278686 0.0 0.0
522 2 27.79541128721278 0.0 0.0
523 2 32.659369094504626 0.0 0.0
524 2 31.814211041204977 0.0 0.0
525 2 41.385431031089034 0.0 0.0
526 2 27.747659656486178 0.0 0.0
527 2 30.252924782315578 0.0 0.0
528 2 47.83246612593046 0.0 0.0
529 2 43.99775943395059 0.0 0.0
530 2 4.097539652401943 0.0 0.0
531 2 36.68883318998575 0.0 0.0
532 2 4.141506711358095 0.0 0.0
533 2 4.500073482884126 0.0 0.0
534 2 29.851289400387433 0.0 0.0
535 2 26.846119765162708 0.0 0.0
536 2 17.552444691419204 0.0 0.0
537 2 36.9421987142879 0.0 0.0
538 2 46.67596763642028 0.0 0.0
539 2 39.46686168515325 0.0 0.0
540 2 11.151687905772556 0.0 0.0
541 2 22.14311986665718 0.0 0.0
542 2 3.150047505387316 0.0 0.0
543 2 47.76154009264832 0.0 0.0
544 2 5.878303040711369 0.0 0.0
545 2 17.898001947120353 0.0 0.0
546 2 15.002206888981561 0.0 0.0
547 2 49.529214014089945 0.0 0.0
548 2 31.982507205231858 0.0 0.0
549 2 33.57317144236032 0.0 0.0
550 2 40.40948443401678 0.0 0.0
551 2 0.3190560291500333 0.0 0.0
552 2 41.10402597334673 0.0 0.0
553 2 23.725631378126 0.0 0.0
554 2 8.460054013547126 0.0 0.0
555 2 40.48522300391178 0.0 0.0
556 2 4.503954665536214 0.0 0.0
557 2 8.722384465649235 0.0 0.0
558 2 27.278684719004925 0.0 0.0
559 2 41.44985928040069 0.0 0.0
560 2 1.6686580633163695 0.0 0.0
561 2 16.460068365403608 0.0 0.0
562 2 48.75659797559442 0.0 0.0
563 2 4.117845520111296 0.0 0.0
564 2 41.01861025195478 0.0 0.0
565 2 41.52301866033562 0.0 0.0
566 2 7.92491694161272 0.0 0.0
567 2 2.484099381516991 0.0 0.0
568 2 24.005472102342768 0.0 0.0
569 2 14.747134328573663 0.0 0.0
570 2 21.449480179276588 0.0 0.0
571 2 43.00042819999119 0.0 0.0
572 2 49.3827208730082 0.0 0.0
573 2 10.883689143200442 0.0 0.0
574 2 13.822777269450926 0.0 0.0
575 2 26.75891272303952 0.0 0.0
576 2 26.297675154482764 0.0 0.0
577 2 44.40539543285736 0.0 0.0
578 2 37.20196153951647 0.0 0.0
579 2 20.133149517899945 0.0 0.0
580 2 22.77064560820935 0.0 0.0
581 2 6.9848930613032545 0.0 0.0
582 2 29.548546375135587 0.0 0.0
583 2 39.644601137887875 0.0 0.0
584 2 11.588493648554898 0.0 0.0
585 2 28.407255920419534 0.0 0.0
586 2 32.881026172075316 0.0 0.0
587 2 47.15309791934242 0.0 0.0
588 2 26.309155339033918 0.0 0.0
589 2 29.047009308891003 0.0 0.0
590 2 40.91118464964367 0.0 0.0
591 2 14.77122866366095 0.0 0.0
592 2 17.03587140639218 0.0 0.0
593 2 27.53540426132831 0.0 0.0
594 2 38.05447408084247 0.0 0.0
595 2 40.87961883377966 0.0 0.0
596 2 31.717296000848027 0.0 0.0
597 2 20.878927243332683 0.0 0.0
598 2 42.77985770977067 0.0 0.0
599 2 10.63145321868858 0.0 0.0
600 2 3.120961861596505 0.0 0.0
601 2 43.77490247575384 0.0 0.0
602 2 13.611557848604456 0.0 0.0
603 2 11.510403269899816 0.0 0.0
604 2 40.001910067966016 0.0 0.0
605 2 11.926784090873587 0.0 0.0
606 2 39.66243436340814 0.0 0.0
607 2 10.102143247651052 0.0 0.0
608 2 41.97043398872766 0.0 0.0
609 2 8.430711828382115 0.0 0.0
610 2 35.4458777187706 0.0 0.0
611 2 4.341759090264191 0.0 0.0
612 2 15.39575481501908 0.0 0.0
613 2 4.8438528810455574 0.0 0.0
614 2 0.6657266548060425 0.0 0.0
615 2 49.92965528823714 0.0 0.0
616 2 13.277642829573965 0.0 0.0
617 2 17.456172872996472 0.0 0.0
618 2 38.025556341386405 0.0 0.0
619 2 29.23581752534103 0.0 0.0
620 2 42.51624533365836 0.0 0.0
621 2 9.521648852452286 0.0 0.0
622 2 1.5860586231193519 0.0 0.0
623 2 39.22849474786551 0.0 0.0
624 2 16.44734132781479 0.0 0.0
625 2 33.16031260535445 0.0 0.0
626 2 46.35522983945053 0.0 0.0
627 2 44.85970088149303 0.0 0.0
628 2 2.6356070557565 0.0 0.0
629 2 47.177616846682106 0.0 0.0
630 2 3.8603029909269115 0.0 0.0
631 2 34.003839705681166 0.0 0.0
632 2 24.919148292030247 0.0 0.0
633 2 35.53278124103646 0.0 0.0
634 2 30.63691354374958 0.0 0.0
635 2 47.152712514017516 0.0 0.0
636 2 10.367002241914125 0.0 0.0
637 2 21.068019347436547 0.0 0.0
638 2 38.433049676888004 0.0 0.0
639 2 38.56294937452158 0.0 0.0
640 2 47.989556777862354 0.0 0.0
641 2 32.361017893068706 0.0 0.0
642 2 37.0520844140143 0.0 0.0
643 2 2.4118316301380838 0.0 0.0
644 2 28.97876933064783 0.0 0.0
645 2 40.3842049224702 0.0 0.0
646 2 0.5693332369508308 0.0 0.0
647 2 22.29407871604419 0.0 0.0
648 2 25.107855964612902 0.0 0.0
649 2 17.20730347791555 0.0 0.0
650 2 47.6116075938108 0.0 0.0
651 2 20.385597250145533 0.0 0.0
652 2 15.515546644563749 0.0 0.0
653 2 34.894798505845415 0.0 0.0
654 2 5.337664917706608 0.0 0.0
655 2 10.710908626088116 0.0 0.0
656 2 1.7955151585159368 0.0 0.0
657 2 29.77553047093387 0.0 0.0
658 2 32.09109935313325 0.0 0.0
659 2 6.916227006866071 0.0 0.0
660 2 38.558821668961265 0.0 0.0
661 2 2.449960454077077 0.0 0.0
662 2 20.517217473288614 0.0 0.0
663 2 21.40384929732558 0.0 0.0
664 2 10.692436061337068 0.0 0.0
665 2 18.3531554964349 0.0 0.0
666 2 24.787253886016554 0.0 0.0
667 2 33.15467248405259 0.0 0.0
668 2 1.8729224750919093 0.0 0.0
669 2 44.093858677421395 0.0 0.0
670 2 14.208200396130582 0.0 0.0
671 2 4.7718878119828725 0.0 0.0
672 2 43.60960823954898 0.0 0.0
673 2 15.598939717458826 0.0 0.0
674 2 40.44223038941929 0.0 0.0
675 2 49.479210251337946 0.0 0.0
676 2 8.267411640354567 0.0 0.0
677 2 20.447170094304862 0.0 0.0
678 2 4.694697625864852 0.0 0.0
679 2 46.03903671967985 0.0 0.0
680 2 14.672204049637438 0.0 0.0
681 2 26.151111486408674 0.0 0.0
682 2 6.233454225516116 0.0 0.0
683 2 42.06737803714569 0.0 0.0
684 2 23.68687995168691 0.0 0.0
685 2 33.01873492328922 0.0 0.0
686 2 8.30277631860069 0.0 0.0
687 2 42.46544206189019 0.0 0.0
688 2 30.621654532995247 0.0 0.0
689 2 10.720524321968018 0.0 0.0
690 2 10.96842519599852 0.0 0.0
691 2 23.104964348867796 0.0 0.0
692 2 39.89731638733813 0.0 0.0
693 2 7.347860774261244 0.0 0.0
694 2 49.55043711094639 0.0 0.0
695 2 47.98227313056477 0.0 0.0
696 2 5.4353533839083585 0.0 0.0
697 2 4.0740991268366 0.0 0.0
698 2 16.548010254324293 0.0 0.0
699 2 34.755557024387414 0.0 0.0
700 2 7.610554419791371 0.0 0.0
701 2 44.015905147740305 0.0 0.0
702 2 45.581713735087384 0.0 0.0
703 2 47.96719662028636 0.0 0.0
704 2 25.429430545982022 0.0 0.0
705 2 4.149696502447914 0.0 0.0
706 2 48.81385712915982 0.0 0.0
707 2 29.656402490043682 0.0 0.0
708 2 2.250076783019578 0.0 0.0
709 2 41.152492028782106 0.0 0.0
710 2 25.920659861872743 0.0 0.0
711 2 36.391100772948526 0.0 0.0
712 2 24.750487120245367 0.0 0.0
713 2 26.363506784788253 0.0 0.0
714 2 10.94982426565345 0.0 0.0
715 2 43.26184982725869 0.0 0.0
716 2 45.99285438639792 0.0 0.0
717 2 11.424026630008743 0.0 0.0
718 2 7.093847373379347 0.0 0.0
719 2 11.081391848366124 0.0 0.0
720 2 41.49025236095649 0.0 0.0
721 2 30.604869913105514 0.0 0.0
722 2 39.63202410696922 0.0 0.0
723 2 29.832108139789113 0.0 0.0
724 2 30.73228778307951 0.0 0.0
725 2 33.223048254781794 0.0 0.0
726 2 14.074088952532376 0.0 0.0
727 2 25.71137214662169 0.0 0.0
728 2 5.053422546792835 0.0 0.0
729 2 25.372876769143186 0.0 0.0
730 2 45.02847826628372 0.0 0.0
731 2 35.48727426985434 0.0 0.0
732 2 21.554468317291516 0.0 0.0
733 2 6.417155129718704 0.0 0.0
734 2 8.768094435127155 0.0 0.0
735 2 17.223593723709506 0.0 0.0
736 2 6.740248482367389 0.0 0.0
737 2 17.15007367332357 0.0 0.0
738 2 4.606842182746385 0.0 0.0
739 2 33.00683708949899 0.0 0.0
740 2 2.6354787845987158 0.0 0.0
741 2 34.273883791584645 0.0 0.0
742 2 18.92277845958535 0.0 0.0
743 2 9.777829046391595 0.0 0.0
744 2 9.993806886235046 0.0 0.0
745 2 28.77623124609436 0.0 0.0
746 2 13.257570524086281 0.0 0.0
747 2 47.70607882683841 0.0 0.0
748 2 33.16097998242936 0.0 0.0
749 2 28.4562436727252 0.0 0.0
750 2 19.710182990260748 0.0 0.0
751 2 36.164885177331115 0.0 0.0
752 2 40.75458727413396 0.0 0.0
753 2 48.58674723852335 0.0 0.0
754 2 31.82092046124697 0.0 0.0
755 2 45.22532772419667 0.0 0.0
756 2 48.12630503481715 0.0 0.0
757 2 13.594961033569852 0.0 0.0
758 2 35.398669736653474 0.0 0.0
759 2 24.21430770204579 0.0 0.0
760 2 32.8274263014048 0.0 0.0
761 2 45.790901367721595 0.0 0.0
762 2 32.629282486195585 0.0 0.0
763 2 30.802607467111326 0.0 0.0
764 2 22.844398139286444 0.0 0.0
765 2 42.55334783924926 0.0 0.0
766 2 3.0902959541247723 0.0 0.0
767 2 8.300564469356097 0.0 0.0
768 2 45.151246966154346 0.0 0.0
769 2 9.590408848363136 0.0 0.0
770 2 29.736382782148745 0.0 0.0
771 2 16.52094367794647 0.0 0.0
772 2 35.95864132895545 0.0 0.0
773 2 3.227834531373869 0.0 0.0
774 2 25.17902631202694 0.0 0.0
775 2 28.689276821768345 0.0 0.0
776 2 43.365038467991816 0.0 0.0
777 2 47.28963289946212 0.0 0.0
778 2 30.050590317082438 0.0 0.0
779 2 40.325151747930235 0.0 0.0
780 2 5.6997915276056075 0.0 0.0
781 2 36.25701317322759 0.0 0.0
782 2 5.099984357728843 0.0 0.0
783 2 3.8400467561869545 0.0 0.0
784 2 11.92119347618094 0.0 0.0
785 2 42.772750490430184 0.0 0.0
786 2 47.666086513587764 0.0 0.0
787 2 34.62555885282653 0.0 0.0
788 2 17.299519801995732 0.0 0.0
789 2 46.0824533591975 0.0 0.0
790 2 47.62644958411819 0.0 0.0
791 2 14.554500407254878 0.0 0.0
792 2 15.228375517284098 0.0 0.0
793 2 21.52227350581591 0.0 0.0
794 2 11.91115138178655 0.0 0.0
795 2 16.266880414435853 0.0 0.0
796 2 2.5049879503057317 0.0 0.0
797 2 2.1035082216127874 0.0 0.0
798 2 38.36073999688561 0.0 0.0
799 2 20.88540171999468 0.0 0.0
800 2 25.396312823933503 0.0 0.0
801 2 3.8531888765348965 0.0 0.0
802 2 26.767035536470583 0.0 0.0
803 2 28.82835475901302 0.0 0.0
804 2 22.43198611343256 0.0 0.0
805 2 18.446692034666984 0.0 0.0
806 2 46.191805450291724 0.0 0.0
807 2 28.138652102855634 0.0 0.0
808 2 19.37013677378673 0.0 0.0
809 2 14.677244965403158 0.0 0.0
810 2 21.874888681845405 0.0 0.0
811 2 9.562183847621391 0.0 0.0
812 2 38.78990553882873 0.0 0.0
813 2 39.97352212871514 0.0 0.0
814 2 45.7414138405617 0.0 0.0
815 2 25.91376031824647 0.0 0.0
816 2 48.79222425599076 0.0 0.0
817 2 5.787172380900851 0.0 0.0
818 2 45.78045304790248 0.0 0.0
819 2 19.119051502465233 0.0 0.0
820 2 8.636936278408298 0.0 0.0
821 2 9.79144108643828 0.0 0.0
822 2 15.81677432489399 0.0 0.0
823 2 37.19429331210877 0.0 0.0
824 2 5.826289520533029 0.0 0.0
825 2 10.242057453638221 0.0 0.0
826 2 4.573080213138525 0.0 0.0
827 2 12.53050513374976 0.0 0.0
828 2 2.938606989277143 0.0 0.0
829 2 14.298453991382615 0.0 0.0
830 2 42.566284825721496 0.0 0.0
831 2 39.10358624863346 0.0 0.0
832 2 24.312828060273585 0.0 0.0
833 2 44.78778501574812 0.0 0.0
834 2 17.894823264544428 0.0 0.0
835 2 33.66430740570191 0.0 0.0
836 2 39.51505019842785 0.0 0.0
837 2 19.747286301707057 0.0 0.0
838 2 9.545795082588887 0.0 0.0
839 2 35.983432969617375 0.0 0.0
840 2 40.67984683888871 0.0 0.0
841 2 7.162267280814794 0.0 0.0
842 2 5.742407971316682 0.0 0.0
843 2 46.16461965755136 0.0 0.0
844 2 24.974795217413863 0.0 0.0
845 2 37.24309480492943 0.0 0.0
846 2 32.2183088894372 0.0 0.0
847 2 4.713492256353136 0.0 0.0
848 2 35.96181232562356 0.0 0.0
849 2 6.9816647052269145 0.0 0.0
850 2 37.30577937810943 0.0 0.0
851 2 38.26485128166 0.0 0.0
852 2 47.64158555351479 0.0 0.0
853 2 30.690306980527975 0.0 0.0
854 2 35.80473534512025 0.0 0.0
855 2 22.60779222948018 0.0 0.0
856 2 9.763516100801862 0.0 0.0
857 2 33.50063479445428 0.0 0.0
858 2 12.854123916829273 0.0 0.0
859 2 16.383978065040388 0.0 0.0
860 2 34.48405358897726 0.0 0.0
861 2 32.021340537922725 0.0 0.0
862 2 48.235259014332435 0.0 0.0
863 2 23.005811352074474 0.0 0.0
864 2 43.67565337128556 0.0 0.0
865 2 42.776552216043726 0.0 0.0
866 2 40.45522324025057 0.0 0.0
867 2 17.5531068729828 0.0 0.0
868 2 46.092656725617104 0.0 0.0
869 2 34.29723991769818 0.0 0.0
870 2 33.9952439716981 0.0 0.0
871 2 10.048189632039911 0.0 0.0
872 2 5.769186898323708 0.0 0.0
873 2 37.68421939484441 0.0 0.0
874 2 22.388003985220955 0.0 0.0
875 2 47.37824471832577 0.0 0.0
876 2 45.105080966287524 0.0 0.0
877 2 17.09440251543591 0.0 0.0
878 2 24.790746643318514 0.0 0.0
879 2 45.742437870962966 0.0 0.0
880 2 33.69035622795054 0.0 0.0
881 2 39.51985123835826 0.0 0.0
882 2 33.962914683623566 0.0 0.0
883 2 14.336444404780929 0.0 0.0
884 2 3.728717816167876 0.0 0.0
885 2 15.011683441333062 0.0 0.0
886 2 5.936541756244712 0.0 0.0
887 2 39.049392996878844 0.0 0.0
888 2 33.19587823822259 0.0 0.0
889 2 26.242779611473114 0.0 0.0
890 2 42.586350015517596 0.0 0.0
891 2 19.327340637895308 0.0 0.0
892 2 19.275961997023167 0.0 0.0
893 2 34.39769177522665 0.0 0.0
894 2 28.553264163802496 0.0 0.0
895 2 6.522410730465173 0.0 0.0
896 2 42.937617191241735 0.0 0.0
897 2 43.231815972035186 0.0 0.0