# LAMMPS data file written by OVITO Basic 3.1.3
400 atoms
5 atom types
0 50 xlo xhi
0 50 ylo yhi
0 50 zlo zhi
0.0 0.0 0.0 xy xz yz

Atoms  # atomic

1 2 0.0 0.0 0.0
2 2 0.12531328320802004 0.0 0.0
3 2 0.2506265664160401 0.0 0.0
4 2 0.37593984962406013 0.0 0.0
5 2 0.5012531328320802 0.0 0.0
6 2 0.6265664160401002 0.0 0.0
7 2 0.7518796992481203 0.0 0.0
8 2 0.8771929824561403 0.0 0.0
9 2 1.0025062656641603 0.0 0.0
10 2 1.1278195488721803 0.0 0.0
11 2 1.2531328320802004 0.0 0.0
12 2 1.3784461152882206 0.0 0.0
13 2 1.5037593984962405 0.0 0.0
14 2 1.6290726817042605 0.0 0.0
15 2 1.7543859649122806 0.0 0.0
16 2 1.8796992481203008 0.0 0.0
17 2 2.0050125313283207 0.0 0.0
18 2 2.1303258145363406 0.0 0.0
19 2 2.2556390977443606 0.0 0.0
20 2 2.380952380952381 0.0 0.0
21 2 2.506265664160401 0.0 0.0
22 2 2.631578947368421 0.0 0.0
23 2 2.756892230576441 0.0 0.0
24 2 2.882205513784461 0.0 0.0
25 2 3.007518796992481 0.0 0.0
26 2 3.132832080200501 0.0 0.0
27 2 3.258145363408521 0.0 0.0
28 2 3.3834586466165413 0.0 0.0
29 2 3.508771929824561 0.0 0.0
30 2 3.634085213032581 0.0 0.0
31 2 3.7593984962406015 0.0 0.0
32 2 3.8847117794486214 0.0 0.0
33 2 4.010025062656641 0.0 0.0
34 2 4.135338345864661 0.0 0.0
35 2 4.260651629072681 0.0 0.0
36 2 4.385964912280701 0.0 0.0
37 2 4.511278195488721 0.0 0.0
38 2 4.636591478696742 0.0 0.0
39 2 4.761904761904762 0.0 0.0
40 2 4.887218045112782 0.0 0.0
41 2 5.012531328320802 0.0 0.0
42 2 5.137844611528822 0.0 0.0
43 2 5.263157894736842 0.0 0.0
44 2 5.3884711779448615 0.0 0.0
45 2 5.513784461152882 0.0 0.0
46 2 5.639097744360902 0.0 0.0
47 2 5.764411027568922 0.0 0.0
48 2 5.889724310776942 0.0 0.0
49 2 6.015037593984962 0.0 0.0
50 2 6.140350877192982 0.0 0.0
51 2 6.265664160401002 0.0 0.0
52 2 6.390977443609022 0.0 0.0
53 2 6.516290726817042 0.0 0.0
54 2 6.641604010025063 0.0 0.0
55 2 6.7669172932330826 0.0 0.0
56 2 6.8922305764411025 0.0 0.0
57 2 7.017543859649122 0.0 0.0
58 2 7.142857142857142 0.0 0.0
59 2 7.268170426065162 0.0 0.0
60 2 7.393483709273182 0.0 0.0
61 2 7.518796992481203 0.0 0.0
62 2 7.644110275689223 0.0 0.0
63 2 7.769423558897243 0.0 0.0
64 2 7.894736842105263 0.0 0.0
65 2 8.020050125313283 0.0 0.0
66 2 8.145363408521304 0.0 0.0
67 2 8.270676691729323 0.0 0.0
68 2 8.395989974937343 0.0 0.0
69 2 8.521303258145362 0.0 0.0
70 2 8.646616541353383 0.0 0.0
71 2 8.771929824561402 0.0 0.0
72 2 8.897243107769423 0.0 0.0
73 2 9.022556390977442 0.0 0.0
74 2 9.147869674185463 0.0 0.0
75 2 9.273182957393484 0.0 0.0
76 2 9.398496240601503 0.0 0.0
77 2 9.523809523809524 0.0 0.0
78 2 9.649122807017543 0.0 0.0
79 2 9.774436090225564 0.0 0.0
80 2 9.899749373433583 0.0 0.0
81 2 10.025062656641603 0.0 0.0
82 2 10.150375939849624 0.0 0.0
83 2 10.275689223057643 0.0 0.0
84 2 10.401002506265664 0.0 0.0
85 2 10.526315789473683 0.0 0.0
86 2 10.651629072681704 0.0 0.0
87 2 10.776942355889723 0.0 0.0
88 2 10.902255639097744 0.0 0.0
89 2 11.027568922305765 0.0 0.0
90 2 11.152882205513784 0.0 0.0
91 2 11.278195488721805 0.0 0.0
92 2 11.403508771929824 0.0 0.0
93 2 11.528822055137844 0.0 0.0
94 2 11.654135338345863 0.0 0.0
95 2 11.779448621553884 0.0 0.0
96 2 11.904761904761903 0.0 0.0
97 2 12.030075187969924 0.0 0.0
98 2 12.155388471177945 0.0 0.0
99 2 12.280701754385964 0.0 0.0
100 2 12.406015037593985 0.0 0.0
101 2 12.531328320802004 0.0 0.0
102 2 12.656641604010025 0.0 0.0
103 2 12.781954887218044 0.0 0.0
104 2 12.907268170426065 0.0 0.0
105 2 13.032581453634084 0.0 0.0
106 2 13.157894736842104 0.0 0.0
107 2 13.283208020050125 0.0 0.0
108 2 13.408521303258144 0.0 0.0
109 2 13.533834586466165 0.0 0.0
110 2 13.659147869674184 0.0 0.0
111 2 13.784461152882205 0.0 0.0
112 2 13.909774436090224 0.0 0.0
113 2 14.035087719298245 0.0 0.0
114 2 14.160401002506266 0.0 0.0
115 2 14.285714285714285 0.0 0.0
116 2 14.411027568922306 0.0 0.0
117 2 14.536340852130325 0.0 0.0
118 2 14.661654135338345 0.0 0.0
119 2 14.786967418546364 0.0 0.0
120 2 14.912280701754385 0.0 0.0
121 2 15.037593984962406 0.0 0.0
122 2 15.162907268170425 0.0 0.0
123 2 15.288220551378446 0.0 0.0
124 2 15.413533834586465 0.0 0.0
125 2 15.538847117794486 0.0 0.0
126 2 15.664160401002505 0.0 0.0
127 2 15.789473684210526 0.0 0.0
128 2 15.914786967418545 0.0 0.0
129 2 16.040100250626566 0.0 0.0
130 2 16.165413533834585 0.0 0.0
131 2 16.290726817042607 0.0 0.0
132 2 16.416040100250626 0.0 0.0
133 2 16.541353383458645 0.0 0.0
134 2 16.666666666666664 0.0 0.0
135 2 16.791979949874687 0.0 0.0
136 2 16.917293233082706 0.0 0.0
137 2 17.042606516290725 0.0 0.0
138 2 17.167919799498748 0.0 0.0
139 2 17.293233082706767 0.0 0.0
140 2 17.418546365914786 0.0 0.0
141 2 17.543859649122805 0.0 0.0
142 2 17.669172932330827 0.0 0.0
143 2 17.794486215538846 0.0 0.0
144 2 17.919799498746865 0.0 0.0
145 2 18.045112781954884 0.0 0.0
146 2 18.170426065162907 0.0 0.0
147 2 18.295739348370926 0.0 0.0
148 2 18.421052631578945 0.0 0.0
149 2 18.546365914786968 0.0 0.0
150 2 18.671679197994987 0.0 0.0
151 2 18.796992481203006 0.0 0.0
152 2 18.922305764411025 0.0 0.0
153 2 19.047619047619047 0.0 0.0
154 2 19.172932330827066 0.0 0.0
155 2 19.298245614035086 0.0 0.0
156 2 19.423558897243108 0.0 0.0
157 2 19.548872180451127 0.0 0.0
158 2 19.674185463659146 0.0 0.0
159 2 19.799498746867165 0.0 0.0
160 2 19.924812030075188 0.0 0.0
161 2 20.050125313283207 0.0 0.0
162 2 20.175438596491226 0.0 0.0
163 2 20.30075187969925 0.0 0.0
164 2 20.426065162907268 0.0 0.0
165 2 20.551378446115287 0.0 0.0
166 2 20.676691729323306 0.0 0.0
167 2 20.80200501253133 0.0 0.0
168 2 20.927318295739347 0.0 0.0
169 2 21.052631578947366 0.0 0.0
170 2 21.17794486215539 0.0 0.0
171 2 21.303258145363408 0.0 0.0
172 2 21.428571428571427 0.0 0.0
173 2 21.553884711779446 0.0 0.0
174 2 21.67919799498747 0.0 0.0
175 2 21.804511278195488 0.0 0.0
176 2 21.929824561403507 0.0 0.0
177 2 22.05513784461153 0.0 0.0
178 2 22.18045112781955 0.0 0.0
179 2 22.305764411027567 0.0 0.0
180 2 22.431077694235587 0.0 0.0
181 2 22.55639097744361 0.0 0.0
182 2 22.681704260651628 0.0 0.0
183 2 22.807017543859647 0.0 0.0
184 2 22.932330827067666 0.0 0.0
185 2 23.05764411027569 0.0 0.0
186 2 23.182957393483708 0.0 0.0
187 2 23.308270676691727 0.0 0.0
188 2 23.43358395989975 0.0 0.0
189 2 23.55889724310777 0.0 0.0
190 2 23.684210526315788 0.0 0.0
191 2 23.809523809523807 0.0 0.0
192 2 23.93483709273183 0.0 0.0
193 2 24.06015037593985 0.0 0.0
194 2 24.185463659147867 0.0 0.0
195 2 24.31077694235589 0.0 0.0
196 2 24.43609022556391 0.0 0.0
197 2 24.561403508771928 0.0 0.0
198 2 24.686716791979947 0.0 0.0
199 2 24.81203007518797 0.0 0.0
200 2 24.93734335839599 0.0 0.0
201 2 25.062656641604008 0.0 0.0
202 2 25.18796992481203 0.0 0.0
203 2 25.31328320802005 0.0 0.0
204 2 25.43859649122807 0.0 0.0
205 2 25.563909774436087 0.0 0.0
206 2 25.68922305764411 0.0 0.0
207 2 25.81453634085213 0.0 0.0
208 2 25.939849624060148 0.0 0.0
209 2 26.065162907268167 0.0 0.0
210 2 26.19047619047619 0.0 0.0
211 2 26.31578947368421 0.0 0.0
212 2 26.441102756892228 0.0 0.0
213 2 26.56641604010025 0.0 0.0
214 2 26.69172932330827 0.0 0.0
215 2 26.81704260651629 0.0 0.0
216 2 26.942355889724308 0.0 0.0
217 2 27.06766917293233 0.0 0.0
218 2 27.19298245614035 0.0 0.0
219 2 27.31829573934837 0.0 0.0
220 2 27.44360902255639 0.0 0.0
221 2 27.56892230576441 0.0 0.0
222 2 27.69423558897243 0.0 0.0
223 2 27.819548872180448 0.0 0.0
224 2 27.94486215538847 0.0 0.0
225 2 28.07017543859649 0.0 0.0
226 2 28.19548872180451 0.0 0.0
227 2 28.32080200501253 0.0 0.0
228 2 28.44611528822055 0.0 0.0
229 2 28.57142857142857 0.0 0.0
230 2 28.69674185463659 0.0 0.0
231 2 28.82205513784461 0.0 0.0
232 2 28.94736842105263 0.0 0.0
233 2 29.07268170426065 0.0 0.0
234 2 29.19799498746867 0.0 0.0
235 2 29.32330827067669 0.0 0.0
236 2 29.44862155388471 0.0 0.0
237 2 29.57393483709273 0.0 0.0
238 2 29.69924812030075 0.0 0.0
239 2 29.82456140350877 0.0 0.0
240 2 29.94987468671679 0.0 0.0
241 2 30.075187969924812 0.0 0.0
242 2 30.20050125313283 0.0 0.0
243 2 30.32581453634085 0.0 0.0
244 2 30.45112781954887 0.0 0.0
245 2 30.576441102756892 0.0 0.0
246 2 30.70175438596491 0.0 0.0
247 2 30.82706766917293 0.0 0.0
248 2 30.95238095238095 0.0 0.0
249 2 31.07769423558897 0.0 0.0
250 2 31.20300751879699 0.0 0.0
251 2 31.32832080200501 0.0 0.0
252 2 31.453634085213032 0.0 0.0
253 2 31.57894736842105 0.0 0.0
254 2 31.70426065162907 0.0 0.0
255 2 31.82957393483709 0.0 0.0
256 2 31.954887218045112 0.0 0.0
257 2 32.08020050125313 0.0 0.0
258 2 32.205513784461154 0.0 0.0
259 2 32.33082706766917 0.0 0.0
260 2 32.45614035087719 0.0 0.0
261 2 32.581453634085214 0.0 0.0
262 2 32.70676691729323 0.0 0.0
263 2 32.83208020050125 0.0 0.0
264 2 32.95739348370927 0.0 0.0
265 2 33.08270676691729 0.0 0.0
266 2 33.20802005012531 0.0 0.0
267 2 33.33333333333333 0.0 0.0
268 2 33.45864661654135 0.0 0.0
269 2 33.583959899749374 0.0 0.0
270 2 33.70927318295739 0.0 0.0
271 2 33.83458646616541 0.0 0.0
272 2 33.959899749373434 0.0 0.0
273 2 34.08521303258145 0.0 0.0
274 2 34.21052631578947 0.0 0.0
275 2 34.335839598997495 0.0 0.0
276 2 34.46115288220551 0.0 0.0
277 2 34.58646616541353 0.0 0.0
278 2 34.71177944862155 0.0 0.0
279 2 34.83709273182957 0.0 0.0
280 2 34.962406015037594 0.0 0.0
281 2 35.08771929824561 0.0 0.0
282 2 35.21303258145363 0.0 0.0
283 2 35.338345864661655 0.0 0.0
284 2 35.46365914786967 0.0 0.0
285 2 35.58897243107769 0.0 0.0
286 2 35.714285714285715 0.0 0.0
287 2 35.83959899749373 0.0 0.0
288 2 35.96491228070175 0.0 0.0
289 2 36.09022556390977 0.0 0.0
290 2 36.21553884711779 0.0 0.0
291 2 36.340852130325814 0.0 0.0
292 2 36.46616541353383 0.0 0.0
293 2 36.59147869674185 0.0 0.0
294 2 36.716791979949875 0.0 0.0
295 2 36.84210526315789 0.0 0.0
296 2 36.96741854636591 0.0 0.0
297 2 37.092731829573935 0.0 0.0
298 2 37.21804511278195 0.0 0.0
299 2 37.34335839598997 0.0 0.0
300 2 37.468671679197996 0.0 0.0
301 2 37.59398496240601 0.0 0.0
302 2 37.719298245614034 0.0 0.0
303 2 37.84461152882205 0.0 0.0
304 2 37.96992481203007 0.0 0.0
305 2 38.095238095238095 0.0 0.0
306 2 38.22055137844611 0.0 0.0
307 2 38.34586466165413 0.0 0.0
308 2 38.471177944862156 0.0 0.0
309 2 38.59649122807017 0.0 0.0
310 2 38.721804511278194 0.0 0.0
311 2 38.847117794486216 0.0 0.0
312 2 38.97243107769423 0.0 0.0
313 2 39.097744360902254 0.0 0.0
314 2 39.22305764411028 0.0 0.0
315 2 39.34837092731829 0.0 0.0
316 2 39.473684210526315 0.0 0.0
317 2 39.59899749373433 0.0 0.0
318 2 39.72431077694235 0.0 0.0
319 2 39.849624060150376 0.0 0.0
320 2 39.97493734335839 0.0 0.0
321 2 40.100250626566414 0.0 0.0
322 2 40.225563909774436 0.0 0.0
323 2 40.35087719298245 0.0 0.0
324 2 40.476190476190474 0.0 0.0
325 2 40.6015037593985 0.0 0.0
326 2 40.72681704260651 0.0 0.0
327 2 40.852130325814535 0.0 0.0
328 2 40.97744360902255 0.0 0.0
329 2 41.10275689223057 0.0 0.0
330 2 41.228070175438596 0.0 0.0
331 2 41.35338345864661 0.0 0.0
332 2 41.478696741854634 0.0 0.0
333 2 41.60401002506266 0.0 0.0
334 2 41.72932330827067 0.0 0.0
335 2 41.854636591478695 0.0 0.0
336 2 41.97994987468672 0.0 0.0
337 2 42.10526315789473 0.0 0.0
338 2 42.230576441102755 0.0 0.0
339 2 42.35588972431078 0.0 0.0
340 2 42.48120300751879 0.0 0.0
341 2 42.606516290726816 0.0 0.0
342 2 42.73182957393483 0.0 0.0
343 2 42.857142857142854 0.0 0.0
344 2 42.98245614035088 0.0 0.0
345 2 43.10776942355889 0.0 0.0
346 2 43.233082706766915 0.0 0.0
347 2 43.35839598997494 0.0 0.0
348 2 43.48370927318295 0.0 0.0
349 2 43.609022556390975 0.0 0.0
350 2 43.734335839599 0.0 0.0
351 2 43.859649122807014 0.0 0.0
352 2 43.984962406015036 0.0 0.0
353 2 44.11027568922306 0.0 0.0
354 2 44.235588972431074 0.0 0.0
355 2 44.3609022556391 0.0 0.0
356 2 44.48621553884711 0.0 0.0
357 2 44.611528822055135 0.0 0.0
358 2 44.73684210526316 0.0 0.0
359 2 44.86215538847117 0.0 0.0
360 2 44.987468671679196 0.0 0.0
361 2 45.11278195488722 0.0 0.0
362 2 45.238095238095234 0.0 0.0
363 2 45.363408521303256 0.0 0.0
364 2 45.48872180451128 0.0 0.0
365 2 45.614035087719294 0.0 0.0
366 2 45.73934837092732 0.0 0.0
367 2 45.86466165413533 0.0 0.0
368 2 45.989974937343355 0.0 0.0
369 2 46.11528822055138 0.0 0.0
370 2 46.24060150375939 0.0 0.0
371 2 46.365914786967416 0.0 0.0
372 2 46.49122807017544 0.0 0.0
373 2 46.616541353383454 0.0 0.0
374 2 46.741854636591476 0.0 0.0
375 2 46.8671679197995 0.0 0.0
376 2 46.992481203007515 0.0 0.0
377 2 47.11779448621554 0.0 0.0
378 2 47.24310776942356 0.0 0.0
379 2 47.368421052631575 0.0 0.0
380 2 47.4937343358396 0.0 0.0
381 2 47.61904761904761 0.0 0.0
382 2 47.744360902255636 0.0 0.0
383 2 47.86967418546366 0.0 0.0
384 2 47.994987468671674 0.0 0.0
385 2 48.1203007518797 0.0 0.0
386 2 48.24561403508772 0.0 0.0
387 2 48.370927318295735 0.0 0.0
388 2 48.49624060150376 0.0 0.0
389 2 48.62155388471178 0.0 0.0
390 2 48.746867167919795 0.0 0.0
391 2 48.87218045112782 0.0 0.0
392 2 48.99749373433583 0.0 0.0
393 2 49.122807017543856 0.0 0.0
394 2 49.24812030075188 0.0 0.0
395 2 49.373433583959894 0.0 0.0
396 2 49.49874686716792 0.0 0.0
397 2 49.62406015037594 0.0 0.0
398 2 49.749373433583955 0.0 0.0
399 2 49.87468671679198 0.0 0.0
400 2 50.0 0.0 0.0

