# LAMMPS data file written by OVITO Basic 3.1.3
1000 atoms
5 atom types
0 50 xlo xhi
0 50 ylo yhi
0 50 zlo zhi
0.0 0.0 0.0 xy xz yz

Atoms  # atomic

1 2 0.0 0.0 0.0
2 2 0.05005005005005005 0.0 0.0
3 2 0.1001001001001001 0.0 0.0
4 2 0.15015015015015015 0.0 0.0
5 2 0.2002002002002002 0.0 0.0
6 2 0.2502502502502503 0.0 0.0
7 2 0.3003003003003003 0.0 0.0
8 2 0.3503503503503504 0.0 0.0
9 2 0.4004004004004004 0.0 0.0
10 2 0.45045045045045046 0.0 0.0
11 2 0.5005005005005005 0.0 0.0
12 2 0.5505505505505506 0.0 0.0
13 2 0.6006006006006006 0.0 0.0
14 2 0.6506506506506506 0.0 0.0
15 2 0.7007007007007008 0.0 0.0
16 2 0.7507507507507508 0.0 0.0
17 2 0.8008008008008008 0.0 0.0
18 2 0.8508508508508509 0.0 0.0
19 2 0.9009009009009009 0.0 0.0
20 2 0.9509509509509511 0.0 0.0
21 2 1.001001001001001 0.0 0.0
22 2 1.0510510510510511 0.0 0.0
23 2 1.1011011011011012 0.0 0.0
24 2 1.1511511511511512 0.0 0.0
25 2 1.2012012012012012 0.0 0.0
26 2 1.2512512512512513 0.0 0.0
27 2 1.3013013013013013 0.0 0.0
28 2 1.3513513513513515 0.0 0.0
29 2 1.4014014014014016 0.0 0.0
30 2 1.4514514514514516 0.0 0.0
31 2 1.5015015015015016 0.0 0.0
32 2 1.5515515515515517 0.0 0.0
33 2 1.6016016016016017 0.0 0.0
34 2 1.6516516516516517 0.0 0.0
35 2 1.7017017017017018 0.0 0.0
36 2 1.7517517517517518 0.0 0.0
37 2 1.8018018018018018 0.0 0.0
38 2 1.8518518518518519 0.0 0.0
39 2 1.9019019019019021 0.0 0.0
40 2 1.9519519519519521 0.0 0.0
41 2 2.002002002002002 0.0 0.0
42 2 2.052052052052052 0.0 0.0
43 2 2.1021021021021022 0.0 0.0
44 2 2.1521521521521523 0.0 0.0
45 2 2.2022022022022023 0.0 0.0
46 2 2.2522522522522523 0.0 0.0
47 2 2.3023023023023024 0.0 0.0
48 2 2.3523523523523524 0.0 0.0
49 2 2.4024024024024024 0.0 0.0
50 2 2.4524524524524525 0.0 0.0
51 2 2.5025025025025025 0.0 0.0
52 2 2.5525525525525525 0.0 0.0
53 2 2.6026026026026026 0.0 0.0
54 2 2.6526526526526526 0.0 0.0
55 2 2.702702702702703 0.0 0.0
56 2 2.752752752752753 0.0 0.0
57 2 2.802802802802803 0.0 0.0
58 2 2.852852852852853 0.0 0.0
59 2 2.902902902902903 0.0 0.0
60 2 2.9529529529529532 0.0 0.0
61 2 3.0030030030030033 0.0 0.0
62 2 3.0530530530530533 0.0 0.0
63 2 3.1031031031031033 0.0 0.0
64 2 3.1531531531531534 0.0 0.0
65 2 3.2032032032032034 0.0 0.0
66 2 3.2532532532532534 0.0 0.0
67 2 3.3033033033033035 0.0 0.0
68 2 3.3533533533533535 0.0 0.0
69 2 3.4034034034034035 0.0 0.0
70 2 3.4534534534534536 0.0 0.0
71 2 3.5035035035035036 0.0 0.0
72 2 3.5535535535535536 0.0 0.0
73 2 3.6036036036036037 0.0 0.0
74 2 3.6536536536536537 0.0 0.0
75 2 3.7037037037037037 0.0 0.0
76 2 3.753753753753754 0.0 0.0
77 2 3.8038038038038042 0.0 0.0
78 2 3.8538538538538543 0.0 0.0
79 2 3.9039039039039043 0.0 0.0
80 2 3.9539539539539543 0.0 0.0
81 2 4.004004004004004 0.0 0.0
82 2 4.054054054054054 0.0 0.0
83 2 4.104104104104104 0.0 0.0
84 2 4.1541541541541545 0.0 0.0
85 2 4.2042042042042045 0.0 0.0
86 2 4.2542542542542545 0.0 0.0
87 2 4.3043043043043046 0.0 0.0
88 2 4.354354354354355 0.0 0.0
89 2 4.404404404404405 0.0 0.0
90 2 4.454454454454455 0.0 0.0
91 2 4.504504504504505 0.0 0.0
92 2 4.554554554554555 0.0 0.0
93 2 4.604604604604605 0.0 0.0
94 2 4.654654654654655 0.0 0.0
95 2 4.704704704704705 0.0 0.0
96 2 4.754754754754755 0.0 0.0
97 2 4.804804804804805 0.0 0.0
98 2 4.854854854854855 0.0 0.0
99 2 4.904904904904905 0.0 0.0
100 2 4.954954954954955 0.0 0.0
101 2 5.005005005005005 0.0 0.0
102 2 5.055055055055055 0.0 0.0
103 2 5.105105105105105 0.0 0.0
104 2 5.155155155155155 0.0 0.0
105 2 5.205205205205205 0.0 0.0
106 2 5.255255255255255 0.0 0.0
107 2 5.305305305305305 0.0 0.0
108 2 5.355355355355356 0.0 0.0
109 2 5.405405405405406 0.0 0.0
110 2 5.455455455455456 0.0 0.0
111 2 5.505505505505506 0.0 0.0
112 2 5.555555555555556 0.0 0.0
113 2 5.605605605605606 0.0 0.0
114 2 5.655655655655656 0.0 0.0
115 2 5.705705705705706 0.0 0.0
116 2 5.755755755755756 0.0 0.0
117 2 5.805805805805806 0.0 0.0
118 2 5.855855855855856 0.0 0.0
119 2 5.9059059059059065 0.0 0.0
120 2 5.9559559559559565 0.0 0.0
121 2 6.0060060060060065 0.0 0.0
122 2 6.056056056056057 0.0 0.0
123 2 6.106106106106107 0.0 0.0
124 2 6.156156156156157 0.0 0.0
125 2 6.206206206206207 0.0 0.0
126 2 6.256256256256257 0.0 0.0
127 2 6.306306306306307 0.0 0.0
128 2 6.356356356356357 0.0 0.0
129 2 6.406406406406407 0.0 0.0
130 2 6.456456456456457 0.0 0.0
131 2 6.506506506506507 0.0 0.0
132 2 6.556556556556557 0.0 0.0
133 2 6.606606606606607 0.0 0.0
134 2 6.656656656656657 0.0 0.0
135 2 6.706706706706707 0.0 0.0
136 2 6.756756756756757 0.0 0.0
137 2 6.806806806806807 0.0 0.0
138 2 6.856856856856857 0.0 0.0
139 2 6.906906906906907 0.0 0.0
140 2 6.956956956956957 0.0 0.0
141 2 7.007007007007007 0.0 0.0
142 2 7.057057057057057 0.0 0.0
143 2 7.107107107107107 0.0 0.0
144 2 7.157157157157157 0.0 0.0
145 2 7.207207207207207 0.0 0.0
146 2 7.257257257257257 0.0 0.0
147 2 7.307307307307307 0.0 0.0
148 2 7.357357357357357 0.0 0.0
149 2 7.407407407407407 0.0 0.0
150 2 7.4574574574574575 0.0 0.0
151 2 7.507507507507508 0.0 0.0
152 2 7.557557557557558 0.0 0.0
153 2 7.6076076076076085 0.0 0.0
154 2 7.6576576576576585 0.0 0.0
155 2 7.7077077077077085 0.0 0.0
156 2 7.7577577577577586 0.0 0.0
157 2 7.807807807807809 0.0 0.0
158 2 7.857857857857859 0.0 0.0
159 2 7.907907907907909 0.0 0.0
160 2 7.957957957957959 0.0 0.0
161 2 8.008008008008009 0.0 0.0
162 2 8.058058058058059 0.0 0.0
163 2 8.108108108108109 0.0 0.0
164 2 8.158158158158159 0.0 0.0
165 2 8.208208208208209 0.0 0.0
166 2 8.258258258258259 0.0 0.0
167 2 8.308308308308309 0.0 0.0
168 2 8.358358358358359 0.0 0.0
169 2 8.408408408408409 0.0 0.0
170 2 8.458458458458459 0.0 0.0
171 2 8.508508508508509 0.0 0.0
172 2 8.558558558558559 0.0 0.0
173 2 8.608608608608609 0.0 0.0
174 2 8.65865865865866 0.0 0.0
175 2 8.70870870870871 0.0 0.0
176 2 8.75875875875876 0.0 0.0
177 2 8.80880880880881 0.0 0.0
178 2 8.85885885885886 0.0 0.0
179 2 8.90890890890891 0.0 0.0
180 2 8.95895895895896 0.0 0.0
181 2 9.00900900900901 0.0 0.0
182 2 9.05905905905906 0.0 0.0
183 2 9.10910910910911 0.0 0.0
184 2 9.15915915915916 0.0 0.0
185 2 9.20920920920921 0.0 0.0
186 2 9.25925925925926 0.0 0.0
187 2 9.30930930930931 0.0 0.0
188 2 9.35935935935936 0.0 0.0
189 2 9.40940940940941 0.0 0.0
190 2 9.45945945945946 0.0 0.0
191 2 9.50950950950951 0.0 0.0
192 2 9.55955955955956 0.0 0.0
193 2 9.60960960960961 0.0 0.0
194 2 9.65965965965966 0.0 0.0
195 2 9.70970970970971 0.0 0.0
196 2 9.75975975975976 0.0 0.0
197 2 9.80980980980981 0.0 0.0
198 2 9.85985985985986 0.0 0.0
199 2 9.90990990990991 0.0 0.0
200 2 9.95995995995996 0.0 0.0
201 2 10.01001001001001 0.0 0.0
202 2 10.06006006006006 0.0 0.0
203 2 10.11011011011011 0.0 0.0
204 2 10.16016016016016 0.0 0.0
205 2 10.21021021021021 0.0 0.0
206 2 10.26026026026026 0.0 0.0
207 2 10.31031031031031 0.0 0.0
208 2 10.36036036036036 0.0 0.0
209 2 10.41041041041041 0.0 0.0
210 2 10.46046046046046 0.0 0.0
211 2 10.51051051051051 0.0 0.0
212 2 10.56056056056056 0.0 0.0
213 2 10.61061061061061 0.0 0.0
214 2 10.66066066066066 0.0 0.0
215 2 10.710710710710712 0.0 0.0
216 2 10.760760760760762 0.0 0.0
217 2 10.810810810810812 0.0 0.0
218 2 10.860860860860862 0.0 0.0
219 2 10.910910910910912 0.0 0.0
220 2 10.960960960960962 0.0 0.0
221 2 11.011011011011012 0.0 0.0
222 2 11.061061061061062 0.0 0.0
223 2 11.111111111111112 0.0 0.0
224 2 11.161161161161163 0.0 0.0
225 2 11.211211211211213 0.0 0.0
226 2 11.261261261261263 0.0 0.0
227 2 11.311311311311313 0.0 0.0
228 2 11.361361361361363 0.0 0.0
229 2 11.411411411411413 0.0 0.0
230 2 11.461461461461463 0.0 0.0
231 2 11.511511511511513 0.0 0.0
232 2 11.561561561561563 0.0 0.0
233 2 11.611611611611613 0.0 0.0
234 2 11.661661661661663 0.0 0.0
235 2 11.711711711711713 0.0 0.0
236 2 11.761761761761763 0.0 0.0
237 2 11.811811811811813 0.0 0.0
238 2 11.861861861861863 0.0 0.0
239 2 11.911911911911913 0.0 0.0
240 2 11.961961961961963 0.0 0.0
241 2 12.012012012012013 0.0 0.0
242 2 12.062062062062063 0.0 0.0
243 2 12.112112112112113 0.0 0.0
244 2 12.162162162162163 0.0 0.0
245 2 12.212212212212213 0.0 0.0
246 2 12.262262262262263 0.0 0.0
247 2 12.312312312312313 0.0 0.0
248 2 12.362362362362363 0.0 0.0
249 2 12.412412412412413 0.0 0.0
250 2 12.462462462462463 0.0 0.0
251 2 12.512512512512513 0.0 0.0
252 2 12.562562562562563 0.0 0.0
253 2 12.612612612612613 0.0 0.0
254 2 12.662662662662663 0.0 0.0
255 2 12.712712712712714 0.0 0.0
256 2 12.762762762762764 0.0 0.0
257 2 12.812812812812814 0.0 0.0
258 2 12.862862862862864 0.0 0.0
259 2 12.912912912912914 0.0 0.0
260 2 12.962962962962964 0.0 0.0
261 2 13.013013013013014 0.0 0.0
262 2 13.063063063063064 0.0 0.0
263 2 13.113113113113114 0.0 0.0
264 2 13.163163163163164 0.0 0.0
265 2 13.213213213213214 0.0 0.0
266 2 13.263263263263264 0.0 0.0
267 2 13.313313313313314 0.0 0.0
268 2 13.363363363363364 0.0 0.0
269 2 13.413413413413414 0.0 0.0
270 2 13.463463463463464 0.0 0.0
271 2 13.513513513513514 0.0 0.0
272 2 13.563563563563564 0.0 0.0
273 2 13.613613613613614 0.0 0.0
274 2 13.663663663663664 0.0 0.0
275 2 13.713713713713714 0.0 0.0
276 2 13.763763763763764 0.0 0.0
277 2 13.813813813813814 0.0 0.0
278 2 13.863863863863864 0.0 0.0
279 2 13.913913913913914 0.0 0.0
280 2 13.963963963963964 0.0 0.0
281 2 14.014014014014014 0.0 0.0
282 2 14.064064064064064 0.0 0.0
283 2 14.114114114114114 0.0 0.0
284 2 14.164164164164164 0.0 0.0
285 2 14.214214214214214 0.0 0.0
286 2 14.264264264264265 0.0 0.0
287 2 14.314314314314315 0.0 0.0
288 2 14.364364364364365 0.0 0.0
289 2 14.414414414414415 0.0 0.0
290 2 14.464464464464465 0.0 0.0
291 2 14.514514514514515 0.0 0.0
292 2 14.564564564564565 0.0 0.0
293 2 14.614614614614615 0.0 0.0
294 2 14.664664664664665 0.0 0.0
295 2 14.714714714714715 0.0 0.0
296 2 14.764764764764765 0.0 0.0
297 2 14.814814814814815 0.0 0.0
298 2 14.864864864864865 0.0 0.0
299 2 14.914914914914915 0.0 0.0
300 2 14.964964964964967 0.0 0.0
301 2 15.015015015015017 0.0 0.0
302 2 15.065065065065067 0.0 0.0
303 2 15.115115115115117 0.0 0.0
304 2 15.165165165165167 0.0 0.0
305 2 15.215215215215217 0.0 0.0
306 2 15.265265265265267 0.0 0.0
307 2 15.315315315315317 0.0 0.0
308 2 15.365365365365367 0.0 0.0
309 2 15.415415415415417 0.0 0.0
310 2 15.465465465465467 0.0 0.0
311 2 15.515515515515517 0.0 0.0
312 2 15.565565565565567 0.0 0.0
313 2 15.615615615615617 0.0 0.0
314 2 15.665665665665667 0.0 0.0
315 2 15.715715715715717 0.0 0.0
316 2 15.765765765765767 0.0 0.0
317 2 15.815815815815817 0.0 0.0
318 2 15.865865865865867 0.0 0.0
319 2 15.915915915915917 0.0 0.0
320 2 15.965965965965967 0.0 0.0
321 2 16.016016016016017 0.0 0.0
322 2 16.066066066066067 0.0 0.0
323 2 16.116116116116117 0.0 0.0
324 2 16.166166166166168 0.0 0.0
325 2 16.216216216216218 0.0 0.0
326 2 16.266266266266268 0.0 0.0
327 2 16.316316316316318 0.0 0.0
328 2 16.366366366366368 0.0 0.0
329 2 16.416416416416418 0.0 0.0
330 2 16.466466466466468 0.0 0.0
331 2 16.516516516516518 0.0 0.0
332 2 16.566566566566568 0.0 0.0
333 2 16.616616616616618 0.0 0.0
334 2 16.666666666666668 0.0 0.0
335 2 16.716716716716718 0.0 0.0
336 2 16.766766766766768 0.0 0.0
337 2 16.816816816816818 0.0 0.0
338 2 16.866866866866868 0.0 0.0
339 2 16.916916916916918 0.0 0.0
340 2 16.966966966966968 0.0 0.0
341 2 17.017017017017018 0.0 0.0
342 2 17.067067067067068 0.0 0.0
343 2 17.117117117117118 0.0 0.0
344 2 17.167167167167168 0.0 0.0
345 2 17.217217217217218 0.0 0.0
346 2 17.26726726726727 0.0 0.0
347 2 17.31731731731732 0.0 0.0
348 2 17.36736736736737 0.0 0.0
349 2 17.41741741741742 0.0 0.0
350 2 17.46746746746747 0.0 0.0
351 2 17.51751751751752 0.0 0.0
352 2 17.56756756756757 0.0 0.0
353 2 17.61761761761762 0.0 0.0
354 2 17.66766766766767 0.0 0.0
355 2 17.71771771771772 0.0 0.0
356 2 17.76776776776777 0.0 0.0
357 2 17.81781781781782 0.0 0.0
358 2 17.86786786786787 0.0 0.0
359 2 17.91791791791792 0.0 0.0
360 2 17.96796796796797 0.0 0.0
361 2 18.01801801801802 0.0 0.0
362 2 18.06806806806807 0.0 0.0
363 2 18.11811811811812 0.0 0.0
364 2 18.16816816816817 0.0 0.0
365 2 18.21821821821822 0.0 0.0
366 2 18.26826826826827 0.0 0.0
367 2 18.31831831831832 0.0 0.0
368 2 18.36836836836837 0.0 0.0
369 2 18.41841841841842 0.0 0.0
370 2 18.46846846846847 0.0 0.0
371 2 18.51851851851852 0.0 0.0
372 2 18.56856856856857 0.0 0.0
373 2 18.61861861861862 0.0 0.0
374 2 18.66866866866867 0.0 0.0
375 2 18.71871871871872 0.0 0.0
376 2 18.76876876876877 0.0 0.0
377 2 18.81881881881882 0.0 0.0
378 2 18.86886886886887 0.0 0.0
379 2 18.91891891891892 0.0 0.0
380 2 18.96896896896897 0.0 0.0
381 2 19.01901901901902 0.0 0.0
382 2 19.06906906906907 0.0 0.0
383 2 19.11911911911912 0.0 0.0
384 2 19.16916916916917 0.0 0.0
385 2 19.21921921921922 0.0 0.0
386 2 19.26926926926927 0.0 0.0
387 2 19.31931931931932 0.0 0.0
388 2 19.36936936936937 0.0 0.0
389 2 19.41941941941942 0.0 0.0
390 2 19.46946946946947 0.0 0.0
391 2 19.51951951951952 0.0 0.0
392 2 19.56956956956957 0.0 0.0
393 2 19.61961961961962 0.0 0.0
394 2 19.66966966966967 0.0 0.0
395 2 19.71971971971972 0.0 0.0
396 2 19.76976976976977 0.0 0.0
397 2 19.81981981981982 0.0 0.0
398 2 19.86986986986987 0.0 0.0
399 2 19.91991991991992 0.0 0.0
400 2 19.96996996996997 0.0 0.0
401 2 20.02002002002002 0.0 0.0
402 2 20.07007007007007 0.0 0.0
403 2 20.12012012012012 0.0 0.0
404 2 20.17017017017017 0.0 0.0
405 2 20.22022022022022 0.0 0.0
406 2 20.27027027027027 0.0 0.0
407 2 20.32032032032032 0.0 0.0
408 2 20.37037037037037 0.0 0.0
409 2 20.42042042042042 0.0 0.0
410 2 20.47047047047047 0.0 0.0
411 2 20.52052052052052 0.0 0.0
412 2 20.57057057057057 0.0 0.0
413 2 20.62062062062062 0.0 0.0
414 2 20.67067067067067 0.0 0.0
415 2 20.72072072072072 0.0 0.0
416 2 20.77077077077077 0.0 0.0
417 2 20.82082082082082 0.0 0.0
418 2 20.87087087087087 0.0 0.0
419 2 20.92092092092092 0.0 0.0
420 2 20.97097097097097 0.0 0.0
421 2 21.02102102102102 0.0 0.0
422 2 21.07107107107107 0.0 0.0
423 2 21.12112112112112 0.0 0.0
424 2 21.17117117117117 0.0 0.0
425 2 21.22122122122122 0.0 0.0
426 2 21.27127127127127 0.0 0.0
427 2 21.32132132132132 0.0 0.0
428 2 21.371371371371374 0.0 0.0
429 2 21.421421421421424 0.0 0.0
430 2 21.471471471471475 0.0 0.0
431 2 21.521521521521525 0.0 0.0
432 2 21.571571571571575 0.0 0.0
433 2 21.621621621621625 0.0 0.0
434 2 21.671671671671675 0.0 0.0
435 2 21.721721721721725 0.0 0.0
436 2 21.771771771771775 0.0 0.0
437 2 21.821821821821825 0.0 0.0
438 2 21.871871871871875 0.0 0.0
439 2 21.921921921921925 0.0 0.0
440 2 21.971971971971975 0.0 0.0
441 2 22.022022022022025 0.0 0.0
442 2 22.072072072072075 0.0 0.0
443 2 22.122122122122125 0.0 0.0
444 2 22.172172172172175 0.0 0.0
445 2 22.222222222222225 0.0 0.0
446 2 22.272272272272275 0.0 0.0
447 2 22.322322322322325 0.0 0.0
448 2 22.372372372372375 0.0 0.0
449 2 22.422422422422425 0.0 0.0
450 2 22.472472472472475 0.0 0.0
451 2 22.522522522522525 0.0 0.0
452 2 22.572572572572575 0.0 0.0
453 2 22.622622622622625 0.0 0.0
454 2 22.672672672672675 0.0 0.0
455 2 22.722722722722725 0.0 0.0
456 2 22.772772772772775 0.0 0.0
457 2 22.822822822822825 0.0 0.0
458 2 22.872872872872875 0.0 0.0
459 2 22.922922922922925 0.0 0.0
460 2 22.972972972972975 0.0 0.0
461 2 23.023023023023026 0.0 0.0
462 2 23.073073073073076 0.0 0.0
463 2 23.123123123123126 0.0 0.0
464 2 23.173173173173176 0.0 0.0
465 2 23.223223223223226 0.0 0.0
466 2 23.273273273273276 0.0 0.0
467 2 23.323323323323326 0.0 0.0
468 2 23.373373373373376 0.0 0.0
469 2 23.423423423423426 0.0 0.0
470 2 23.473473473473476 0.0 0.0
471 2 23.523523523523526 0.0 0.0
472 2 23.573573573573576 0.0 0.0
473 2 23.623623623623626 0.0 0.0
474 2 23.673673673673676 0.0 0.0
475 2 23.723723723723726 0.0 0.0
476 2 23.773773773773776 0.0 0.0
477 2 23.823823823823826 0.0 0.0
478 2 23.873873873873876 0.0 0.0
479 2 23.923923923923926 0.0 0.0
480 2 23.973973973973976 0.0 0.0
481 2 24.024024024024026 0.0 0.0
482 2 24.074074074074076 0.0 0.0
483 2 24.124124124124126 0.0 0.0
484 2 24.174174174174176 0.0 0.0
485 2 24.224224224224226 0.0 0.0
486 2 24.274274274274276 0.0 0.0
487 2 24.324324324324326 0.0 0.0
488 2 24.374374374374376 0.0 0.0
489 2 24.424424424424426 0.0 0.0
490 2 24.474474474474476 0.0 0.0
491 2 24.524524524524526 0.0 0.0
492 2 24.574574574574577 0.0 0.0
493 2 24.624624624624627 0.0 0.0
494 2 24.674674674674677 0.0 0.0
495 2 24.724724724724727 0.0 0.0
496 2 24.774774774774777 0.0 0.0
497 2 24.824824824824827 0.0 0.0
498 2 24.874874874874877 0.0 0.0
499 2 24.924924924924927 0.0 0.0
500 2 24.974974974974977 0.0 0.0
501 2 25.025025025025027 0.0 0.0
502 2 25.075075075075077 0.0 0.0
503 2 25.125125125125127 0.0 0.0
504 2 25.175175175175177 0.0 0.0
505 2 25.225225225225227 0.0 0.0
506 2 25.275275275275277 0.0 0.0
507 2 25.325325325325327 0.0 0.0
508 2 25.375375375375377 0.0 0.0
509 2 25.425425425425427 0.0 0.0
510 2 25.475475475475477 0.0 0.0
511 2 25.525525525525527 0.0 0.0
512 2 25.575575575575577 0.0 0.0
513 2 25.625625625625627 0.0 0.0
514 2 25.675675675675677 0.0 0.0
515 2 25.725725725725727 0.0 0.0
516 2 25.775775775775777 0.0 0.0
517 2 25.825825825825827 0.0 0.0
518 2 25.875875875875877 0.0 0.0
519 2 25.925925925925927 0.0 0.0
520 2 25.975975975975977 0.0 0.0
521 2 26.026026026026027 0.0 0.0
522 2 26.076076076076077 0.0 0.0
523 2 26.126126126126128 0.0 0.0
524 2 26.176176176176178 0.0 0.0
525 2 26.226226226226228 0.0 0.0
526 2 26.276276276276278 0.0 0.0
527 2 26.326326326326328 0.0 0.0
528 2 26.376376376376378 0.0 0.0
529 2 26.426426426426428 0.0 0.0
530 2 26.476476476476478 0.0 0.0
531 2 26.526526526526528 0.0 0.0
532 2 26.576576576576578 0.0 0.0
533 2 26.626626626626628 0.0 0.0
534 2 26.676676676676678 0.0 0.0
535 2 26.726726726726728 0.0 0.0
536 2 26.776776776776778 0.0 0.0
537 2 26.826826826826828 0.0 0.0
538 2 26.876876876876878 0.0 0.0
539 2 26.926926926926928 0.0 0.0
540 2 26.976976976976978 0.0 0.0
541 2 27.027027027027028 0.0 0.0
542 2 27.077077077077078 0.0 0.0
543 2 27.127127127127128 0.0 0.0
544 2 27.177177177177178 0.0 0.0
545 2 27.227227227227228 0.0 0.0
546 2 27.27727727727728 0.0 0.0
547 2 27.32732732732733 0.0 0.0
548 2 27.37737737737738 0.0 0.0
549 2 27.42742742742743 0.0 0.0
550 2 27.47747747747748 0.0 0.0
551 2 27.52752752752753 0.0 0.0
552 2 27.57757757757758 0.0 0.0
553 2 27.62762762762763 0.0 0.0
554 2 27.67767767767768 0.0 0.0
555 2 27.72772772772773 0.0 0.0
556 2 27.77777777777778 0.0 0.0
557 2 27.82782782782783 0.0 0.0
558 2 27.87787787787788 0.0 0.0
559 2 27.92792792792793 0.0 0.0
560 2 27.97797797797798 0.0 0.0
561 2 28.02802802802803 0.0 0.0
562 2 28.07807807807808 0.0 0.0
563 2 28.12812812812813 0.0 0.0
564 2 28.17817817817818 0.0 0.0
565 2 28.22822822822823 0.0 0.0
566 2 28.27827827827828 0.0 0.0
567 2 28.32832832832833 0.0 0.0
568 2 28.37837837837838 0.0 0.0
569 2 28.42842842842843 0.0 0.0
570 2 28.47847847847848 0.0 0.0
571 2 28.52852852852853 0.0 0.0
572 2 28.57857857857858 0.0 0.0
573 2 28.62862862862863 0.0 0.0
574 2 28.67867867867868 0.0 0.0
575 2 28.72872872872873 0.0 0.0
576 2 28.77877877877878 0.0 0.0
577 2 28.82882882882883 0.0 0.0
578 2 28.87887887887888 0.0 0.0
579 2 28.92892892892893 0.0 0.0
580 2 28.97897897897898 0.0 0.0
581 2 29.02902902902903 0.0 0.0
582 2 29.07907907907908 0.0 0.0
583 2 29.12912912912913 0.0 0.0
584 2 29.17917917917918 0.0 0.0
585 2 29.22922922922923 0.0 0.0
586 2 29.27927927927928 0.0 0.0
587 2 29.32932932932933 0.0 0.0
588 2 29.37937937937938 0.0 0.0
589 2 29.42942942942943 0.0 0.0
590 2 29.47947947947948 0.0 0.0
591 2 29.52952952952953 0.0 0.0
592 2 29.57957957957958 0.0 0.0
593 2 29.62962962962963 0.0 0.0
594 2 29.67967967967968 0.0 0.0
595 2 29.72972972972973 0.0 0.0
596 2 29.77977977977978 0.0 0.0
597 2 29.82982982982983 0.0 0.0
598 2 29.87987987987988 0.0 0.0
599 2 29.929929929929934 0.0 0.0
600 2 29.979979979979984 0.0 0.0
601 2 30.030030030030034 0.0 0.0
602 2 30.080080080080084 0.0 0.0
603 2 30.130130130130134 0.0 0.0
604 2 30.180180180180184 0.0 0.0
605 2 30.230230230230234 0.0 0.0
606 2 30.280280280280284 0.0 0.0
607 2 30.330330330330334 0.0 0.0
608 2 30.380380380380384 0.0 0.0
609 2 30.430430430430434 0.0 0.0
610 2 30.480480480480484 0.0 0.0
611 2 30.530530530530534 0.0 0.0
612 2 30.580580580580584 0.0 0.0
613 2 30.630630630630634 0.0 0.0
614 2 30.680680680680684 0.0 0.0
615 2 30.730730730730734 0.0 0.0
616 2 30.780780780780784 0.0 0.0
617 2 30.830830830830834 0.0 0.0
618 2 30.880880880880884 0.0 0.0
619 2 30.930930930930934 0.0 0.0
620 2 30.980980980980984 0.0 0.0
621 2 31.031031031031034 0.0 0.0
622 2 31.081081081081084 0.0 0.0
623 2 31.131131131131134 0.0 0.0
624 2 31.181181181181184 0.0 0.0
625 2 31.231231231231234 0.0 0.0
626 2 31.281281281281284 0.0 0.0
627 2 31.331331331331334 0.0 0.0
628 2 31.381381381381384 0.0 0.0
629 2 31.431431431431434 0.0 0.0
630 2 31.481481481481485 0.0 0.0
631 2 31.531531531531535 0.0 0.0
632 2 31.581581581581585 0.0 0.0
633 2 31.631631631631635 0.0 0.0
634 2 31.681681681681685 0.0 0.0
635 2 31.731731731731735 0.0 0.0
636 2 31.781781781781785 0.0 0.0
637 2 31.831831831831835 0.0 0.0
638 2 31.881881881881885 0.0 0.0
639 2 31.931931931931935 0.0 0.0
640 2 31.981981981981985 0.0 0.0
641 2 32.032032032032035 0.0 0.0
642 2 32.08208208208208 0.0 0.0
643 2 32.132132132132135 0.0 0.0
644 2 32.18218218218218 0.0 0.0
645 2 32.232232232232235 0.0 0.0
646 2 32.28228228228228 0.0 0.0
647 2 32.332332332332335 0.0 0.0
648 2 32.38238238238238 0.0 0.0
649 2 32.432432432432435 0.0 0.0
650 2 32.48248248248248 0.0 0.0
651 2 32.532532532532535 0.0 0.0
652 2 32.58258258258258 0.0 0.0
653 2 32.632632632632635 0.0 0.0
654 2 32.68268268268268 0.0 0.0
655 2 32.732732732732735 0.0 0.0
656 2 32.78278278278278 0.0 0.0
657 2 32.832832832832835 0.0 0.0
658 2 32.88288288288288 0.0 0.0
659 2 32.932932932932935 0.0 0.0
660 2 32.98298298298298 0.0 0.0
661 2 33.033033033033036 0.0 0.0
662 2 33.08308308308308 0.0 0.0
663 2 33.133133133133136 0.0 0.0
664 2 33.18318318318318 0.0 0.0
665 2 33.233233233233236 0.0 0.0
666 2 33.28328328328328 0.0 0.0
667 2 33.333333333333336 0.0 0.0
668 2 33.38338338338338 0.0 0.0
669 2 33.433433433433436 0.0 0.0
670 2 33.48348348348348 0.0 0.0
671 2 33.533533533533536 0.0 0.0
672 2 33.58358358358358 0.0 0.0
673 2 33.633633633633636 0.0 0.0
674 2 33.68368368368368 0.0 0.0
675 2 33.733733733733736 0.0 0.0
676 2 33.78378378378378 0.0 0.0
677 2 33.833833833833836 0.0 0.0
678 2 33.88388388388388 0.0 0.0
679 2 33.933933933933936 0.0 0.0
680 2 33.98398398398398 0.0 0.0
681 2 34.034034034034036 0.0 0.0
682 2 34.08408408408408 0.0 0.0
683 2 34.134134134134136 0.0 0.0
684 2 34.18418418418419 0.0 0.0
685 2 34.234234234234236 0.0 0.0
686 2 34.28428428428429 0.0 0.0
687 2 34.334334334334336 0.0 0.0
688 2 34.38438438438439 0.0 0.0
689 2 34.434434434434436 0.0 0.0
690 2 34.48448448448449 0.0 0.0
691 2 34.53453453453454 0.0 0.0
692 2 34.58458458458459 0.0 0.0
693 2 34.63463463463464 0.0 0.0
694 2 34.68468468468469 0.0 0.0
695 2 34.73473473473474 0.0 0.0
696 2 34.78478478478479 0.0 0.0
697 2 34.83483483483484 0.0 0.0
698 2 34.88488488488489 0.0 0.0
699 2 34.93493493493494 0.0 0.0
700 2 34.98498498498499 0.0 0.0
701 2 35.03503503503504 0.0 0.0
702 2 35.08508508508509 0.0 0.0
703 2 35.13513513513514 0.0 0.0
704 2 35.18518518518519 0.0 0.0
705 2 35.23523523523524 0.0 0.0
706 2 35.28528528528529 0.0 0.0
707 2 35.33533533533534 0.0 0.0
708 2 35.38538538538539 0.0 0.0
709 2 35.43543543543544 0.0 0.0
710 2 35.48548548548549 0.0 0.0
711 2 35.53553553553554 0.0 0.0
712 2 35.58558558558559 0.0 0.0
713 2 35.63563563563564 0.0 0.0
714 2 35.68568568568569 0.0 0.0
715 2 35.73573573573574 0.0 0.0
716 2 35.78578578578579 0.0 0.0
717 2 35.83583583583584 0.0 0.0
718 2 35.88588588588589 0.0 0.0
719 2 35.93593593593594 0.0 0.0
720 2 35.98598598598599 0.0 0.0
721 2 36.03603603603604 0.0 0.0
722 2 36.08608608608609 0.0 0.0
723 2 36.13613613613614 0.0 0.0
724 2 36.18618618618619 0.0 0.0
725 2 36.23623623623624 0.0 0.0
726 2 36.28628628628629 0.0 0.0
727 2 36.33633633633634 0.0 0.0
728 2 36.38638638638639 0.0 0.0
729 2 36.43643643643644 0.0 0.0
730 2 36.48648648648649 0.0 0.0
731 2 36.53653653653654 0.0 0.0
732 2 36.58658658658659 0.0 0.0
733 2 36.63663663663664 0.0 0.0
734 2 36.68668668668669 0.0 0.0
735 2 36.73673673673674 0.0 0.0
736 2 36.78678678678679 0.0 0.0
737 2 36.83683683683684 0.0 0.0
738 2 36.88688688688689 0.0 0.0
739 2 36.93693693693694 0.0 0.0
740 2 36.98698698698699 0.0 0.0
741 2 37.03703703703704 0.0 0.0
742 2 37.08708708708709 0.0 0.0
743 2 37.13713713713714 0.0 0.0
744 2 37.18718718718719 0.0 0.0
745 2 37.23723723723724 0.0 0.0
746 2 37.28728728728729 0.0 0.0
747 2 37.33733733733734 0.0 0.0
748 2 37.38738738738739 0.0 0.0
749 2 37.43743743743744 0.0 0.0
750 2 37.48748748748749 0.0 0.0
751 2 37.53753753753754 0.0 0.0
752 2 37.58758758758759 0.0 0.0
753 2 37.63763763763764 0.0 0.0
754 2 37.68768768768769 0.0 0.0
755 2 37.73773773773774 0.0 0.0
756 2 37.78778778778779 0.0 0.0
757 2 37.83783783783784 0.0 0.0
758 2 37.88788788788789 0.0 0.0
759 2 37.93793793793794 0.0 0.0
760 2 37.98798798798799 0.0 0.0
761 2 38.03803803803804 0.0 0.0
762 2 38.08808808808809 0.0 0.0
763 2 38.13813813813814 0.0 0.0
764 2 38.18818818818819 0.0 0.0
765 2 38.23823823823824 0.0 0.0
766 2 38.28828828828829 0.0 0.0
767 2 38.33833833833834 0.0 0.0
768 2 38.38838838838839 0.0 0.0
769 2 38.43843843843844 0.0 0.0
770 2 38.48848848848849 0.0 0.0
771 2 38.53853853853854 0.0 0.0
772 2 38.58858858858859 0.0 0.0
773 2 38.63863863863864 0.0 0.0
774 2 38.68868868868869 0.0 0.0
775 2 38.73873873873874 0.0 0.0
776 2 38.78878878878879 0.0 0.0
777 2 38.83883883883884 0.0 0.0
778 2 38.88888888888889 0.0 0.0
779 2 38.93893893893894 0.0 0.0
780 2 38.98898898898899 0.0 0.0
781 2 39.03903903903904 0.0 0.0
782 2 39.08908908908909 0.0 0.0
783 2 39.13913913913914 0.0 0.0
784 2 39.18918918918919 0.0 0.0
785 2 39.23923923923924 0.0 0.0
786 2 39.28928928928929 0.0 0.0
787 2 39.33933933933934 0.0 0.0
788 2 39.38938938938939 0.0 0.0
789 2 39.43943943943944 0.0 0.0
790 2 39.48948948948949 0.0 0.0
791 2 39.53953953953954 0.0 0.0
792 2 39.58958958958959 0.0 0.0
793 2 39.63963963963964 0.0 0.0
794 2 39.68968968968969 0.0 0.0
795 2 39.73973973973974 0.0 0.0
796 2 39.78978978978979 0.0 0.0
797 2 39.83983983983984 0.0 0.0
798 2 39.88988988988989 0.0 0.0
799 2 39.93993993993994 0.0 0.0
800 2 39.98998998998999 0.0 0.0
801 2 40.04004004004004 0.0 0.0
802 2 40.090090090090094 0.0 0.0
803 2 40.14014014014014 0.0 0.0
804 2 40.190190190190194 0.0 0.0
805 2 40.24024024024024 0.0 0.0
806 2 40.290290290290294 0.0 0.0
807 2 40.34034034034034 0.0 0.0
808 2 40.390390390390394 0.0 0.0
809 2 40.44044044044044 0.0 0.0
810 2 40.490490490490494 0.0 0.0
811 2 40.54054054054054 0.0 0.0
812 2 40.590590590590594 0.0 0.0
813 2 40.64064064064064 0.0 0.0
814 2 40.690690690690694 0.0 0.0
815 2 40.74074074074074 0.0 0.0
816 2 40.790790790790794 0.0 0.0
817 2 40.84084084084084 0.0 0.0
818 2 40.890890890890894 0.0 0.0
819 2 40.94094094094094 0.0 0.0
820 2 40.990990990990994 0.0 0.0
821 2 41.04104104104104 0.0 0.0
822 2 41.091091091091094 0.0 0.0
823 2 41.14114114114114 0.0 0.0
824 2 41.191191191191194 0.0 0.0
825 2 41.24124124124124 0.0 0.0
826 2 41.291291291291294 0.0 0.0
827 2 41.34134134134134 0.0 0.0
828 2 41.391391391391394 0.0 0.0
829 2 41.44144144144144 0.0 0.0
830 2 41.491491491491495 0.0 0.0
831 2 41.54154154154154 0.0 0.0
832 2 41.591591591591595 0.0 0.0
833 2 41.64164164164164 0.0 0.0
834 2 41.691691691691695 0.0 0.0
835 2 41.74174174174174 0.0 0.0
836 2 41.791791791791795 0.0 0.0
837 2 41.84184184184184 0.0 0.0
838 2 41.891891891891895 0.0 0.0
839 2 41.94194194194194 0.0 0.0
840 2 41.991991991991995 0.0 0.0
841 2 42.04204204204204 0.0 0.0
842 2 42.092092092092095 0.0 0.0
843 2 42.14214214214214 0.0 0.0
844 2 42.192192192192195 0.0 0.0
845 2 42.24224224224224 0.0 0.0
846 2 42.292292292292295 0.0 0.0
847 2 42.34234234234234 0.0 0.0
848 2 42.392392392392395 0.0 0.0
849 2 42.44244244244244 0.0 0.0
850 2 42.492492492492495 0.0 0.0
851 2 42.54254254254254 0.0 0.0
852 2 42.592592592592595 0.0 0.0
853 2 42.64264264264264 0.0 0.0
854 2 42.692692692692695 0.0 0.0
855 2 42.74274274274275 0.0 0.0
856 2 42.792792792792795 0.0 0.0
857 2 42.84284284284285 0.0 0.0
858 2 42.892892892892895 0.0 0.0
859 2 42.94294294294295 0.0 0.0
860 2 42.992992992992995 0.0 0.0
861 2 43.04304304304305 0.0 0.0
862 2 43.093093093093096 0.0 0.0
863 2 43.14314314314315 0.0 0.0
864 2 43.193193193193196 0.0 0.0
865 2 43.24324324324325 0.0 0.0
866 2 43.293293293293296 0.0 0.0
867 2 43.34334334334335 0.0 0.0
868 2 43.393393393393396 0.0 0.0
869 2 43.44344344344345 0.0 0.0
870 2 43.493493493493496 0.0 0.0
871 2 43.54354354354355 0.0 0.0
872 2 43.593593593593596 0.0 0.0
873 2 43.64364364364365 0.0 0.0
874 2 43.693693693693696 0.0 0.0
875 2 43.74374374374375 0.0 0.0
876 2 43.793793793793796 0.0 0.0
877 2 43.84384384384385 0.0 0.0
878 2 43.893893893893896 0.0 0.0
879 2 43.94394394394395 0.0 0.0
880 2 43.993993993993996 0.0 0.0
881 2 44.04404404404405 0.0 0.0
882 2 44.094094094094096 0.0 0.0
883 2 44.14414414414415 0.0 0.0
884 2 44.194194194194196 0.0 0.0
885 2 44.24424424424425 0.0 0.0
886 2 44.294294294294296 0.0 0.0
887 2 44.34434434434435 0.0 0.0
888 2 44.394394394394396 0.0 0.0
889 2 44.44444444444445 0.0 0.0
890 2 44.4944944944945 0.0 0.0
891 2 44.54454454454455 0.0 0.0
892 2 44.5945945945946 0.0 0.0
893 2 44.64464464464465 0.0 0.0
894 2 44.6946946946947 0.0 0.0
895 2 44.74474474474475 0.0 0.0