# LAMMPS data file written by OVITO Basic 3.1.3
3 atoms
5 atom types
0 50 xlo xhi
0 50 ylo yhi
0 50 zlo zhi
0.0 0.0 0.0 xy xz yz

Atoms  # atomic id

1 2 0.4 0.44 0.0
2 2 0.0 0.0 0.0
3 2 0.5 0.0 0.0
#4 2 0.0 0.5 0.0

#1 2 0.378614 0.0 0.0 
#2 2 0.0 0.0 0.0
