# LAMMPS data file written by OVITO Basic 3.1.3
1000 atoms
5 atom types
0 50 xlo xhi
0 50 ylo yhi
0 50 zlo zhi
0.0 0.0 0.0 xy xz yz

Atoms  # atomic

1 2 42.80261418519534 9.677008005411242 33.8072668920892
2 2 49.73749922750172 42.24355225821155 25.27435867558526
3 2 12.420755701650476 2.2119900142142157 22.30979351223017
4 2 3.018061771810565 10.982530438520143 42.01421086569466
5 2 26.831838401108847 11.199003695267324 42.00893265310924
6 2 8.540646226178977 41.5761443681825 37.050269933954475
7 2 28.187844853345755 21.802858566480932 39.149772162323934
8 2 35.24376797176057 10.102933391196933 3.6366351365887786
9 2 35.20380850718182 40.419050700440486 23.65577776926181
10 2 6.8211051761535915 34.563032511445236 4.020688805366213
11 2 38.09672831941809 14.217743254784127 16.651955974337497
12 2 42.33546316398308 5.4741236796328145 11.628522655751262
13 2 48.655456201942364 15.267644242164346 13.489239781360995
14 2 42.40487014345924 49.6901908329503 39.26864924552114
15 2 45.46239192768125 23.896880095472216 41.66400008199297
16 2 8.452790565525737 31.237778391101497 45.415478455047605
17 2 49.772748552230425 44.51158784313953 11.08826356384735
18 2 20.33266669310818 23.504699904961978 31.019726356195896
19 2 34.953066700498304 8.939339267716056 44.480392454574805
20 2 41.16036679934652 34.14233216813106 5.207924292821403
21 2 39.845826083646166 23.27397126208779 34.052252085449595
22 2 20.29251516834001 17.498872180106655 29.40021382291121
23 2 17.730227200869997 23.441570037324468 36.411081168933435
24 2 45.18441729917969 6.528116961944042 9.002240530027034
25 2 41.908626213570656 0.5708695278912379 48.11627468971644
26 2 12.040248564768602 9.391580699651653 17.72699679401175
27 2 0.07404445052327513 14.295351680432027 20.958185103985222
28 2 32.86072189062974 19.888886847165526 49.833355998403945
29 2 3.405760740098618 19.393763752402737 20.86594749703182
30 2 4.429597182562933 34.1971673947737 12.948540949605047
31 2 46.32065774464258 38.294185535474384 7.825128561896938
32 2 23.708904288978104 34.75176588622466 27.783403883914637
33 2 45.93041245374156 39.54308494638339 5.786508621377118
34 2 30.89452145282174 31.049559308193558 30.160366213264982
35 2 33.5706127795911 15.369188349747276 17.38612239856244
36 2 13.47062763715824 39.284471875116076 39.86736155260628
37 2 7.3645762109707915 25.550330364239866 41.71778862287268
38 2 46.21466434573399 33.261706544005136 33.81418486681904
39 2 31.108985447056032 19.926011777873935 34.74329206383157
40 2 47.77804664057375 23.975102365122105 38.33392067030544
41 2 12.729578815488306 35.225520261361375 26.685130592152507
42 2 14.965455762909702 5.858763776233916 45.57917684968827
43 2 12.954158164226136 35.76517174111619 26.32966987508435
44 2 49.783650137700214 32.59422690556397 17.441529643253944
45 2 48.88279568239457 40.59187760153704 25.692186595858185
46 2 8.667852844460084 9.02107265486648 25.77001361060576
47 2 22.84167097927111 22.787373358125944 45.05027695232442
48 2 8.439699384378258 16.2814373247596 28.358541996876667
49 2 15.626965996600056 21.493066266821366 20.66154486809568
50 2 24.101587077578035 40.64672790598344 13.962093070575188
51 2 40.43386566110773 34.15276738787305 33.893049942520996
52 2 10.948433289338356 20.290606522285177 20.495562063261342
53 2 37.3946277035231 33.86883897796827 38.2950932789865
54 2 4.362670472012098 19.01294014225841 13.619923512039001
55 2 11.170958749224823 48.158432852983466 49.642267300624695
56 2 3.3631143084910384 24.630300527592176 46.032529591140715
57 2 6.414387410028771 28.5648505284389 24.732753998399165
58 2 8.217103332739095 11.221698835224736 29.770977672907684
59 2 8.082088836363793 3.5303071745140855 40.01048567382607
60 2 39.729041031688354 40.628999491934245 30.971195752501128
61 2 44.13388356849989 45.24730449360826 14.26658294228943
62 2 10.748269743706157 22.587064788031046 43.91583423931417
63 2 49.22672567170977 38.5818164584026 24.08954458697798
64 2 45.37737378538715 17.95344853041932 32.7008476064133
65 2 46.99247624734576 3.893234991364708 10.62728702225445
66 2 29.388483776683778 48.55744794869559 28.699187506107066
67 2 34.05957221549226 23.125287825350206 2.610223444555815
68 2 14.95598999458183 3.200227716673798 32.02928889585506
69 2 30.811337945154836 43.602724683149155 16.640065171843744
70 2 37.0126648076625 34.02011500237354 9.961222656916219
71 2 31.174000964219108 22.55516617903493 31.80435418414998
72 2 4.951785793658581 39.15024664587417 5.61520265919207
73 2 26.72574816848184 16.629319521489 45.2129013672896
74 2 28.30917221005426 26.07306185634708 40.14934315626607
75 2 1.9798903368451637 3.1397435313799074 6.115483174512221
76 2 38.27716224699337 32.23959075849479 35.977488021403666
77 2 8.889183789295629 17.355064182394813 16.30138775706369
78 2 35.788742582208 6.0690381367693895 48.64568023617136
79 2 42.37394177372399 34.751476840237345 8.053126566800833
80 2 35.943081204458814 7.103126113132552 43.974737910233415
81 2 42.04643369607127 35.271734937445494 28.46867433384814
82 2 8.669254961346585 16.45146093412615 11.017721851521062
83 2 2.4939240113795114 33.31524547099215 24.89326703664091
84 2 11.088606085565717 8.539137628663656 48.853765589058334
85 2 37.52096324660404 11.240042943337153 8.32581308492824
86 2 3.054782716524179 28.01637234457855 17.715867536857427
87 2 5.850800996609401 11.607169631228093 20.282296265053557
88 2 21.951944340865037 6.876882105496046 24.213009766288717
89 2 24.90195205063132 31.047868069902094 4.3337831366206006
90 2 26.103045929816236 30.42436580812828 39.74431711975646
91 2 33.85828909532814 16.29319507332314 47.75767939569462
92 2 12.371579241376901 36.74273261247629 9.622797482411011
93 2 6.695224521762472 15.360659717786508 35.49796848969789
94 2 30.6068886612089 18.862774609919725 15.267040328143505
95 2 25.799614451385132 18.485648091735428 23.975737373456557
96 2 46.57940134899896 28.062994506615276 42.432550653607926
97 2 9.303175718879675 10.18662623521227 18.954410213110883
98 2 4.979697991466403 18.610451346928397 32.309776633948964
99 2 0.8282358582584581 38.380256462526866 18.289867259897242
100 2 44.95771603988745 40.84837194591033 9.897552137664551
101 2 13.434063169023307 41.196429338561344 7.511964515184416
102 2 13.609921460136443 48.76210020624654 30.35916677055099
103 2 38.66891227121573 44.59649495900801 22.08393373153647
104 2 32.80090584449189 35.1095492985333 13.285861924018622
105 2 37.18863829058605 27.948315719647464 19.917848556817226
106 2 13.973881251716064 5.8308763641948484 40.93540635544166
107 2 2.9036462636825187 17.523906180268188 35.37600860033433
108 2 25.6301626933296 47.37472187564953 44.768933752823195
109 2 24.092724553750294 21.568779014836892 11.075095131101842
110 2 38.98741260546114 45.8927993765568 39.337213338951
111 2 18.648789530500288 44.48764174081021 41.22196022225204
112 2 12.092389122773561 27.434196008037993 13.014458667686851
113 2 44.726252819098704 39.871116244185906 37.56424181225968
114 2 31.5563128189524 5.807293260239549 29.06930428622599
115 2 21.325797099203836 35.98985639741376 25.757956265162317
116 2 37.72579972523791 14.396751798211655 0.07630316536454962
117 2 23.818240618717674 13.052936597954846 41.92307209754872
118 2 42.62665716445315 19.528229734964636 15.067698056353102
119 2 17.68584549955462 0.5270750727927764 29.00247579992193
120 2 26.523545953519783 25.67250991871307 32.88988002614358
121 2 12.003554155938534 10.410782391981188 2.5092867876913285
122 2 0.4825238662359288 32.23662428643353 1.9504157620626517
123 2 45.32162025014759 12.581628493597542 3.2112253921604825
124 2 35.61548636939455 26.781395705047778 5.671829137368678
125 2 46.5873233163946 32.20490114490311 38.503364730487775
126 2 26.25022437966139 3.6202537721260364 19.419578137950595
127 2 15.049150083229978 41.338648627024064 8.881574303868428
128 2 3.4116115467869355 17.415946467796147 20.733889385327338
129 2 19.232813304533465 42.95297512507686 31.092920997990635
130 2 37.28410526174757 6.060079154727132 29.195139705847573
131 2 33.619530506703065 16.11661063927058 16.272138510432143
132 2 35.72658760552765 6.124151198089373 14.526906113647598
133 2 39.22947994650564 12.326161445181382 21.111735170320735
134 2 0.5558582298884118 16.8420724449712 27.479540646214133
135 2 41.50327027489234 14.840531790862205 6.661415621366884
136 2 43.4262377547894 46.41574010402498 15.68233613835764
137 2 23.001267346746673 8.150109050095795 44.770693426298514
138 2 19.723325812167964 13.378507337442535 26.325882779184806
139 2 38.828509366805974 13.133582821331768 20.711333311826643
140 2 6.633579498407616 38.04407013059421 42.8613283592189
141 2 1.011770934316919 22.767803843260698 20.91943496042246
142 2 34.64526166655561 37.251177206135175 19.659499387563546
143 2 15.821757954584054 37.0248459212087 3.8068188830426286
144 2 47.75911505166635 8.705521112041698 45.93278982277257
145 2 25.480261265091585 22.94802813738902 40.78655471773125
146 2 15.665635929411014 13.894964903439188 6.5394179618898205
147 2 10.798328431046222 3.9353908758057496 39.40887301561045
148 2 27.772598445199296 27.526126519951738 5.458127614194991
149 2 3.9749236551110014 46.923611040414 48.9689271546779
150 2 28.529996766690115 44.34163299894812 40.13157268855364
151 2 12.669025162522374 26.05925796111206 43.88752015705638
152 2 8.708011409513484 25.18934400373258 19.52511786913989
153 2 26.159872663738803 24.657840402194225 36.49686124422873
154 2 13.676490849498807 48.68714806643984 18.524595031357364
155 2 16.802064296288528 39.68073845332783 15.187268290866236
156 2 29.739670301235492 31.553665701244988 26.73426272312684
157 2 37.04885842400212 19.976114702748752 4.073333675220975
158 2 21.63618012520434 28.09030430750326 2.014461655442706
159 2 35.45699126471781 40.014929733267124 38.59851676649386
160 2 10.60493196635049 27.66961619462713 27.24817237550851
161 2 31.596242196694647 23.283601820695697 24.38449333967766
162 2 3.616137886691395 9.381317000780198 29.153165345403426
163 2 17.92349795805045 25.96360274426679 36.22920237670793
164 2 3.155527634982308 34.13539333620589 47.26828034746879
165 2 26.14071884023162 40.31948808691171 10.403797707789803
166 2 17.141804054643394 5.678000064006178 30.312097509352498
167 2 17.905674009235344 47.29664453514057 18.351598131503387
168 2 46.93303636212576 19.38912721472188 16.099330083445253
169 2 22.490579008222817 12.692744481926061 29.56476612935837
170 2 32.797353879271675 41.14570111235497 36.329655073343524
171 2 4.895664354183893 20.846943926622203 24.376860368184694
172 2 46.55497032011355 1.9190982216796493 37.573167356940054
173 2 10.303247672079003 14.851927019384625 27.7135212906997
174 2 15.196592448415164 28.10439430321137 33.050993879859064
175 2 36.204277727066184 5.224135410979197 44.110561640468696
176 2 14.859114079315361 12.83474225860976 25.736293593780697
177 2 16.338279073027046 42.84348689456765 21.831701670000736
178 2 36.46006224610601 17.514069326192594 16.602752174596553
179 2 46.15084565559739 23.869769634711975 15.043020083257941
180 2 15.937651494273164 26.675397516726402 34.05703401254543
181 2 28.035516923016868 39.58342175309471 43.01792511096049
182 2 25.676292455289868 1.1045333626950093 38.94924108400164
183 2 42.23814269354831 24.09040491898522 27.34339783406051
184 2 38.33446343964656 4.278591636709949 9.35069919167319
185 2 18.385215699209272 30.62250033936069 10.075856645336378
186 2 46.84652888893781 29.117334022900863 46.96922667908506
187 2 23.456067142641025 32.04160118380027 19.410597725964013
188 2 9.709337645108885 15.260349905588061 6.021129016774762
189 2 36.42670779240612 48.06733617947378 48.937500596581415
190 2 32.487110272281335 20.18813729703285 2.8328671208697473
191 2 48.6565696338889 30.986546160029903 19.76220206556121
192 2 2.2461200530559386 40.20582004888271 24.922258227037
193 2 34.887015014262914 45.725730963154064 20.007498371492126
194 2 20.358410907104744 24.87718141163976 6.734825435285835
195 2 46.698191549600445 33.81110028067773 23.701400345301376
196 2 8.60205003690348 16.95387384119379 32.1727512868809
197 2 14.141422875662697 22.724725558471086 31.376097302862494
198 2 8.938752830218489 47.612303237376224 45.03491886523792
199 2 20.705718926908734 19.108315258309865 47.660308291395864
200 2 40.02078954278766 12.137939014124976 16.976815301982988
201 2 12.49067777108715 5.555737570118535 45.337748754610445
202 2 44.46855386283155 23.374353235189027 12.665730005315567
203 2 15.975392630203068 29.034498434086053 17.283856998667837
204 2 39.66825494680775 38.67181655444313 8.790972736134634
205 2 33.53115615985637 46.733007268145386 41.465101049790675
206 2 41.263762090282476 21.12359412537264 27.338501586983842
207 2 33.55080673872415 47.7951805192431 41.30647586065769
208 2 46.83466880636754 40.826137482393605 42.87496771080554
209 2 11.19122630012306 40.81311839179722 22.64284693652187
210 2 45.11026356195512 11.525320879716949 14.165877136170907
211 2 35.65636097628674 43.066267972843455 20.76400266824856
212 2 42.165113372026 22.569848649250286 27.744201225368048
213 2 13.224631943060844 5.875719226464549 6.586993773587685
214 2 11.517760471450678 10.51174250392114 39.974892407819425
215 2 43.08228039909213 21.92227840277455 32.15434539314357
216 2 4.579285355336548 21.417490841655727 36.83786459528974
217 2 15.487913662344793 33.531488295103074 40.518325977794156
218 2 4.989093527147798 22.91579470321882 20.01066500147255
219 2 17.870050105904305 15.022303083020066 11.330885751867125
220 2 11.876730164401827 12.251143888471066 13.046509385203848
221 2 1.404062640917375 47.792884922407104 27.88582342109977
222 2 35.496748022226626 22.637044652564768 12.855881426453314
223 2 12.536987748151397 40.02410119200987 6.67862652404655
224 2 35.40236398285524 0.6892130193326185 35.16725409483261
225 2 40.92391336196411 3.980625084225864 14.578576726685732
226 2 10.097547052290079 41.758100207878144 27.95084110201663
227 2 25.03088424623397 18.92710995926265 38.99068299967021
228 2 0.30324228654264873 15.884768059832604 35.1419160798239
229 2 35.2176034524572 33.037163772783124 1.9696250120358083
230 2 23.936755155662198 17.649987049691486 20.036956589490647
231 2 4.323845354491146 12.962756769043398 35.64615373995006
232 2 49.21384540156513 2.4029885531867192 40.15067394168026
233 2 0.9252620962106772 48.57457784612943 8.63939860629932
234 2 22.648678831245427 39.756160899863175 34.752765966765345
235 2 28.993039157466207 25.78541208183806 43.319621464611515
236 2 28.31531707276897 15.517214317834128 38.9586825023091
237 2 49.18443769891114 39.7227637146309 33.56907119216851
238 2 18.583227216085195 33.06418526805308 24.171742377412464
239 2 38.1346754219504 28.905357649599495 39.334004546255905
240 2 48.89219553896213 33.66305586289705 28.566887876095088
241 2 35.09354851888941 21.878818218109252 48.64621504802153
242 2 21.781099807217778 35.198614795904184 23.13185220146651
243 2 22.01012560607128 33.68329992910059 46.98601423398155
244 2 7.367767763541311 17.95827961960534 48.26048527630215
245 2 10.335426584075375 3.037589218275988 37.98746820617839
246 2 30.00629636559929 5.479103904210081 31.946482823987637
247 2 48.68950577601637 0.22109435526727617 7.816023406860562
248 2 11.101826785917607 48.72972624746691 6.290742957496098
249 2 39.1386304710364 29.160017192246094 47.46192714696197
250 2 20.963023972619094 46.51473513391013 27.54299660026696
251 2 35.93971314746213 41.08202471611733 28.13253623591439
252 2 42.93698772190982 38.769025449321184 18.350984870127473
253 2 15.6645204716858 10.931527485592007 42.913586742241066
254 2 46.967320907819484 39.48171656566322 10.283143738525597
255 2 46.484511985581406 1.1380801637115079 8.264300293610438
256 2 28.5609965052734 44.09529337679071 20.06601880140721
257 2 24.725069636060237 1.261063741793278 14.176859986199474
258 2 29.224186098174084 18.44260115024918 41.759838583043226
259 2 47.80389771184825 11.335307205350215 21.808372082492138
260 2 45.14476601698962 11.544083074237953 1.877067590012399
261 2 40.93849133905992 32.038602098274914 1.8742347679449212
262 2 16.84361848782489 32.48509483421693 33.473781785843585
263 2 30.098309164649027 30.57165972775882 39.21966863491291
264 2 16.90558772752717 20.304414804172623 30.767428933740476
265 2 8.21088313058525 32.5527326113533 11.999560230271017
266 2 25.451767046014854 22.508722499534972 1.1221592407836212
267 2 37.695090181138355 20.474247470984213 18.288455155582117
268 2 44.78195350239101 21.95023047647512 4.5444933335052005
269 2 34.6240462802071 42.0066164287077 15.746258517641026
270 2 24.28095685158945 7.5369535759375825 18.11411137271794
271 2 3.242506667767092 17.9064613888758 34.59176811131435
272 2 7.916953657238684 0.5552619991291474 36.86377673145371
273 2 32.38127612736786 49.124317479696025 16.492843782354065
274 2 44.04946270849629 42.380795295707756 9.378911166773369
275 2 42.41969709600827 7.797686012157756 26.113189136930043
276 2 15.86573162915127 18.945180330097127 33.852980342523665
277 2 3.314356778120109 34.947132372970735 4.809388838398193
278 2 35.771715418511576 23.922965956782317 32.780871330893866
279 2 2.0525412576657964 20.18499679718379 16.41000617135282
280 2 41.02719602061878 23.408952761428104 21.959014456382437
281 2 13.145753882843403 37.76208597705206 30.380027212125825
282 2 26.55110594974343 35.03453633139975 11.96523469895207
283 2 46.59198341822226 7.459838569911953 36.2013899592795
284 2 25.63215471415753 11.253568783389051 42.550646775507964
285 2 46.250275727449484 25.54749949578318 13.757102330394483
286 2 39.491022867410564 31.09614226282385 25.482667418139783
287 2 20.102241400285536 12.268137402579887 31.99786829456741
288 2 37.98391748526056 38.01856944368114 17.85719973577838
289 2 27.452664594749976 1.2068899527013843 9.758773827578288
290 2 10.282345111834983 18.318441606304404 33.688874145344755
291 2 29.670119775255145 8.749674638827804 18.059499409669034
292 2 5.850768758943542 31.6493000377362 26.5247449817144
293 2 40.84334365885791 32.79593262281729 15.240427550598735
294 2 3.5767195037059443 2.1374609950843118 43.72679216076904
295 2 44.6306792624823 25.22724979218749 41.932593633160394
296 2 6.187314561655638 2.6336263434846687 3.788607705496344
297 2 6.947340464835272 46.16068477559347 2.1553645214352435
298 2 32.026842127528404 26.324703326975246 21.59228057231647
299 2 12.311699524086855 28.878685342024234 34.337154578669676
300 2 22.47464422455722 31.863446190595617 26.80787872606489
301 2 7.564407658148776 10.024180344876509 32.332413966457274
302 2 6.45145319932216 31.16568830757929 24.60759106860281
303 2 42.03945864673425 41.45369905498823 18.244973274932892
304 2 26.19037262338606 1.1072440527910343 14.530451318275
305 2 20.836793157852807 42.37421931961339 8.408299163497807
306 2 35.35419657311415 18.573360921889982 35.902903167883046
307 2 42.963703679540686 16.19363253591155 40.61087887451035
308 2 27.76002117347253 16.996779980701078 19.7649230527461
309 2 42.94029661055275 40.09745411713913 23.05166131154779
310 2 33.47273521733013 30.099111881890444 47.98830052009095
311 2 29.556439675127073 19.607090807880446 7.8708380489305725
312 2 20.481847557866246 17.41715361154002 1.0202180106199776
313 2 44.29160253520633 17.595264847569737 41.687071109113724
314 2 47.62361509202558 15.436600775157117 37.193921977427074
315 2 13.065207641722182 49.0579582296279 34.76495027680212
316 2 39.16889723551058 27.88101788711068 33.00356792427059
317 2 20.997253259163596 23.327815912400705 7.42328795099168
318 2 24.78837760115925 39.040425487051735 3.192370936919442
319 2 22.39659522648394 17.260823796745445 13.299728316140763
320 2 30.190779432442127 0.7122538453283034 23.817419223794968
321 2 48.169302991520865 18.02800704738142 5.420972305564814
322 2 12.676882314983878 28.585764532385255 45.08977150148736
323 2 7.338853289127306 45.50119881905657 35.63106001659144
324 2 23.97439265078071 25.054734345377828 33.703333271209
325 2 2.1355469544256547 48.31070017673406 0.25464674001122733
326 2 45.98683309130064 42.46283710933936 17.469695214207388
327 2 35.262894941134334 2.1651098995569438 6.974426775496995
328 2 20.29554801494124 23.763996456175683 24.043186635185933
329 2 31.83435401591556 49.99295773578919 5.220274336105884
330 2 3.8062464624301127 37.566914057659275 47.63160715454478
331 2 44.23428846657272 33.816464149110146 11.93411493700891
332 2 24.563298761339457 26.32610793601364 6.489897850137972
333 2 21.528984527312083 21.79712224080781 2.7339795773139333
334 2 38.8863528706588 34.30929083890547 35.18769414898546
335 2 14.25700878826785 22.01392709184478 20.082239313755483
336 2 9.342411310094562 38.92408326244497 38.00784415526085
337 2 38.6034321910713 14.770460260172896 28.04802225527783
338 2 33.39167158405901 4.609757953194393 7.86847271783197
339 2 25.125071299223144 5.750862851467336 2.3497731264481017
340 2 34.841319076445124 17.50488314251318 15.918511650156619
341 2 7.834297551426972 19.036262114281367 14.536145832774611
342 2 7.044277546770273 5.910360333446368 20.59604952258181
343 2 43.85754879118953 34.08924861539453 39.35511538565961
344 2 1.4925539368343788 47.64391118823797 0.28503861623551674
345 2 35.2650302219421 41.275575133205564 5.651276959674945
346 2 25.28849352615862 39.406042041082515 40.85503371535382
347 2 41.17066478159742 31.161281143629573 48.721114847216356
348 2 21.36997394687589 49.00196376624439 47.83698259686907
349 2 17.432524194566952 1.0474853839641196 1.4809970281098372
350 2 4.984479101510159 44.005567702826625 47.67793618063903
351 2 28.26086432593129 42.744982411613044 21.94838329876213
352 2 40.58350083782851 45.50139009075676 47.919988188249725
353 2 7.805349878004658 30.637432931787284 21.060468517290992
354 2 20.123682734523353 42.343631691189366 7.945650481934797
355 2 39.01631870369298 30.91376466106947 11.881532278023032
356 2 14.158444935725623 5.672374436681999 12.682018380521953
357 2 1.8978466551050122 12.634067876459376 44.9767814260331
358 2 46.585525718383096 44.32999396416103 47.53770211637659
359 2 16.204486673505293 44.109042026518594 2.5778256716799843
360 2 39.686157327027935 27.946924664552498 4.651873289244096
361 2 34.27897793464875 4.789126223624907 19.21470032449153
362 2 30.581560824666592 38.34927595328727 30.90249648203705
363 2 13.50660092498095 30.81390228777789 37.7003912421874
364 2 24.325910221565355 42.57128578487233 21.602610614031388
365 2 7.828546627020605 36.406153206847904 43.95824672132053
366 2 13.441173216032754 15.17636565251072 25.346615436027513
367 2 3.068623991307656 10.62893282123158 34.16868932743708
368 2 31.222103392052663 32.53948973817698 1.6125116673258277
369 2 37.60097922905321 34.595042824499835 49.37432850141783
370 2 2.571048304739698 27.548754776481037 15.097830056530348
371 2 27.59130373167608 3.543848345712619 24.609034048521107
372 2 23.757253547315916 45.953069151575555 44.21527012062206
373 2 35.581072328310356 31.268989709685798 13.797019646620118
374 2 43.99083111398803 0.4455610451050862 13.698509629220384
375 2 44.605388582589796 42.291388042995024 12.047437263681909
376 2 14.254692562301457 45.87086033842303 41.047343180876254
377 2 13.36036060660738 0.8609644683744089 18.428159895431033
378 2 13.924407336188954 12.82197201456617 2.660881686772054
379 2 12.710216670531338 28.265037727582982 34.142842437403395
380 2 14.822371423889674 17.809296206855795 2.586606026500399
381 2 17.62998503916152 35.48434601094454 3.0645948050678107
382 2 3.0611408643142326 32.46153270925608 13.478297267137702
383 2 18.90595295020512 18.05177871730932 44.747658258476164
384 2 22.35307645519884 1.1395760950537681 15.227452386666052
385 2 40.30718695990008 47.725068342076746 44.92262490750204
386 2 44.92978348734758 0.39286390288517103 37.29635078411948
387 2 40.66608725391277 44.07134433677266 22.124528037497303
388 2 24.361095221262737 0.831646773411282 21.14694634515605
389 2 22.489186400879234 38.74457882117957 5.209715960160271
390 2 39.30275901529251 32.36913189159456 7.691329069600145
391 2 0.8283494561006188 11.702984240376518 39.91939002568566
392 2 7.202152525140221 14.096336985386081 29.340235178541835
393 2 42.307251795895 44.87317655674314 13.412491310294843
394 2 18.582025300608912 19.543698057682207 3.4099642245618234
395 2 46.72977526953508 17.42687896408055 19.91192415805234
396 2 46.091694515863836 42.98922433660867 39.759785595138986
397 2 6.472160948867428 7.430361659193341 4.330101621532828
398 2 19.556176260939793 44.696528970609265 25.284224250478935
399 2 25.203740301571127 40.69880506615078 42.18988210386236
400 2 13.445447672509408 21.16818385385571 10.846139417459872
401 2 3.8012113671647088 37.69870605979035 10.148496157805798
402 2 21.875126955598645 2.3468937442131574 25.154435921455047
403 2 24.533341569373736 43.08260899828823 0.5436041951752513
404 2 2.1511639794702884 33.12708753193647 34.986353497396706
405 2 34.06296966440877 19.869082372733715 26.449195075704086
406 2 8.83804523308364 10.16439655787677 7.972307558926916
407 2 31.98539969251747 1.2801244934863842 6.2318850273558155
408 2 13.447194954849657 38.26574115039618 2.550122192276516
409 2 20.500129829320358 15.481566332040742 16.986485681422337
410 2 0.22756420550613665 19.88553789874119 8.64714245713903
411 2 29.468029747652146 14.70574889555873 10.09714457836331
412 2 37.91915074083307 9.593145484677407 8.987641060353024
413 2 38.861467664255514 5.041769809487084 28.631470569417335
414 2 38.63247718461378 34.97713428290742 3.4457578634108197
415 2 42.73415252514663 21.922901948457373 45.03069596438307
416 2 5.679245501384189 17.575878029235287 27.225416811501802
417 2 8.853263229114777 29.1010294356922 10.84993661248439
418 2 1.273428974833779 41.42081001599243 40.79651113640024
419 2 49.444554354938525 23.904951281918773 32.17209551351799
420 2 19.644286441183628 16.22579410334349 44.53333870206385
421 2 37.322082658369496 23.344924829726132 15.81325363510675
422 2 1.7394011258882514 20.484895528297365 32.82967629106948
423 2 46.17311076934875 29.3052099422227 32.96396056675539
424 2 15.739358908959943 49.55848225283249 35.30985297960434
425 2 7.7880745989047595 25.541799783301038 44.07823998306623
426 2 21.366923881262146 30.038994308612455 42.355262934199104
427 2 49.74633891046407 9.062590051354679 35.878342499595135
428 2 40.17709659828936 4.138405527825939 18.980642347248956
429 2 22.89868115389988 18.74194195500397 45.23479550785059
430 2 22.73019077311816 18.40362722307973 16.42158408854074
431 2 43.467014695915914 42.327234903140834 22.076869647821944
432 2 12.538247662208807 46.202633199734215 34.61492463926424
433 2 45.316740322617335 42.39238333936272 39.3020459089029
434 2 26.32159774592113 8.752424938800496 45.51252343178992
435 2 12.807210562509292 23.743393394012184 49.10853018959928
436 2 28.35845668216968 39.58306218166034 25.45444934613132
437 2 27.312999097181812 11.001637260860047 46.12731896737608
438 2 17.06696289745765 12.75482009458322 44.88944700643921
439 2 25.17052221306701 37.5956938039224 39.813265653190896
440 2 45.4103174599708 9.034665984918956 49.900536791930925
441 2 9.782222710170323 32.882361984295635 28.087968512588073
442 2 11.99330514207525 29.16448640078387 7.439551325376814
443 2 47.4160822795898 36.46516413081453 41.03033737787932
444 2 31.121859074358802 30.3763881974416 12.940266377700048
445 2 18.50932897865203 35.708346636296724 49.75242599125231
446 2 6.8580154910002245 20.225881106221987 22.433227624229495
447 2 30.95762398466016 33.59577191238146 19.3513351942869
448 2 2.341478938810315 46.869401279369654 13.81928468913866
449 2 4.047888048355508 6.230402758088527 30.747773385718745
450 2 38.90454308000276 4.020343514585084 42.452437540620885
451 2 8.681917825162843 23.330773019137162 10.909235887466256
452 2 34.504976634148996 34.4988581374303 3.515866555561109
453 2 3.368378402109512 10.248105395007961 21.401933792113926
454 2 37.4220656982579 7.594541097625052 48.34404077535645
455 2 39.556778354178036 33.88147677177286 6.452425064667178
456 2 30.971894751816436 14.634632888799842 45.27453818644484
457 2 20.42041062835183 0.7489727286001058 3.34610704691653
458 2 28.80605711475081 3.6391164056566225 6.316145839362636
459 2 32.66964965985261 2.497585624950643 47.9300272218823
460 2 35.646155185474214 12.565829049203298 21.98880489651554
461 2 24.775656821234467 14.91438462657121 2.447302688732006
462 2 47.20334195962642 40.222013158245815 9.761037652128913
463 2 25.97199437080196 24.545135677472757 18.785078495020834
464 2 1.2150409259183703 40.19094821284306 8.032397965123806
465 2 21.753520509259467 35.50995645708607 25.243019067906296
466 2 22.910850294221063 20.085321814599716 35.5669550282735
467 2 7.3633036541657315 38.001222311237136 1.2307895424439275
468 2 45.056211835546314 6.809912913224836 7.100253877666623
469 2 18.596049463113605 33.17167656240804 6.576119549065307
470 2 35.51578066023493 45.660646434783644 43.07779238395667
471 2 30.972889263619685 5.937302322967048 31.031152969747254
472 2 49.7844265544878 19.573020459193362 49.53762793816641
473 2 34.17093398205322 12.26612434103475 15.978570467713753
474 2 9.164694232105264 22.576275581602207 12.466942834773349
475 2 27.99007772562397 19.351896439792466 6.0057066335511555
476 2 36.527650546030266 17.3659235409979 13.425076900519562
477 2 5.8136590241864905 44.069489847292395 5.816171403589476
478 2 21.9759623818174 24.71191440594811 45.688937961973885
479 2 8.0877008427653 26.076543443897656 19.379971368557964
480 2 46.727036509035585 15.700672289574102 19.051392508009595
481 2 43.39322303986099 28.16039435262974 48.3444245902558