ITEM: TIMESTEP
0
ITEM: NUMBER OF ATOMS
2
ITEM: BOX BOUNDS xy xz yz pp pp pp
0.0000000000000000e+00 5.0000000000000000e+01 0.0000000000000000e+00
0.0000000000000000e+00 5.0000000000000000e+01 0.0000000000000000e+00
0.0000000000000000e+00 5.0000000000000000e+01 0.0000000000000000e+00
ITEM: ATOMS id type x y z c_1[1] c_1[2] c_1[3] c_1[4] c_1[5] c_1[6] c_1[7] c_1[22]
1 2 0.378614 0.321535 0 -1.99547e+08 -1.43915e+08 -0 -1.69463e+08 -0 -0 1.04481e+08 7.53531e+07
2 2 0 0 0 -1.99547e+08 -1.43915e+08 -0 -1.69463e+08 -0 -0 1.04481e+08 7.53531e+07
ITEM: TIMESTEP
1
ITEM: NUMBER OF ATOMS
2
ITEM: BOX BOUNDS xy xz yz pp pp pp
0.0000000000000000e+00 5.0000000000000000e+01 0.0000000000000000e+00
0.0000000000000000e+00 5.0000000000000000e+01 0.0000000000000000e+00
0.0000000000000000e+00 5.0000000000000000e+01 0.0000000000000000e+00
ITEM: ATOMS id type x y z c_1[1] c_1[2] c_1[3] c_1[4] c_1[5] c_1[6] c_1[7] c_1[22]
1 2 0.376586 0.323907 0 -1.97415e+08 -1.46047e+08 -0 -1.698e+08 -0 -0 1.00179e+08 7.41121e+07
2 2 0 0 0 -1.97415e+08 -1.46047e+08 -0 -1.698e+08 -0 -0 1.00179e+08 7.41121e+07
ITEM: TIMESTEP
2
ITEM: NUMBER OF ATOMS
2
ITEM: BOX BOUNDS xy xz yz pp pp pp
0.0000000000000000e+00 5.0000000000000000e+01 0.0000000000000000e+00
0.0000000000000000e+00 5.0000000000000000e+01 0.0000000000000000e+00
0.0000000000000000e+00 5.0000000000000000e+01 0.0000000000000000e+00
ITEM: ATOMS id type x y z c_1[1] c_1[2] c_1[3] c_1[4] c_1[5] c_1[6] c_1[7] c_1[22]
1 2 0.374544 0.326267 0 -1.95279e+08 -1.48183e+08 -0 -1.70109e+08 -0 -0 9.59376e+07 7.27997e+07
2 2 0 0 0 -1.95279e+08 -1.48183e+08 -0 -1.70109e+08 -0 -0 9.59376e+07 7.27997e+07
ITEM: TIMESTEP
3
ITEM: NUMBER OF ATOMS
2
ITEM: BOX BOUNDS xy xz yz pp pp pp
0.0000000000000000e+00 5.0000000000000000e+01 0.0000000000000000e+00
0.0000000000000000e+00 5.0000000000000000e+01 0.0000000000000000e+00
0.0000000000000000e+00 5.0000000000000000e+01 0.0000000000000000e+00
ITEM: ATOMS id type x y z c_1[1] c_1[2] c_1[3] c_1[4] c_1[5] c_1[6] c_1[7] c_1[22]
1 2 0.372486 0.328614 0 -1.9314e+08 -1.50322e+08 -0 -1.70391e+08 -0 -0 9.17579e+07 7.14158e+07
2 2 0 0 0 -1.9314e+08 -1.50322e+08 -0 -1.70391e+08 -0 -0 9.17579e+07 7.14158e+07
ITEM: TIMESTEP
4
ITEM: NUMBER OF ATOMS
2
ITEM: BOX BOUNDS xy xz yz pp pp pp
0.0000000000000000e+00 5.0000000000000000e+01 0.0000000000000000e+00
0.0000000000000000e+00 5.0000000000000000e+01 0.0000000000000000e+00
0.0000000000000000e+00 5.0000000000000000e+01 0.0000000000000000e+00
ITEM: ATOMS id type x y z c_1[1] c_1[2] c_1[3] c_1[4] c_1[5] c_1[6] c_1[7] c_1[22]
1 2 0.370414 0.330948 0 -1.90997e+08 -1.52465e+08 -0 -1.70647e+08 -0 -0 8.76411e+07 6.99603e+07
2 2 0 0 0 -1.90997e+08 -1.52465e+08 -0 -1.70647e+08 -0 -0 8.76411e+07 6.99603e+07
ITEM: TIMESTEP
5
ITEM: NUMBER OF ATOMS
2
ITEM: BOX BOUNDS xy xz yz pp pp pp
0.0000000000000000e+00 5.0000000000000000e+01 0.0000000000000000e+00
0.0000000000000000e+00 5.0000000000000000e+01 0.0000000000000000e+00
0.0000000000000000e+00 5.0000000000000000e+01 0.0000000000000000e+00
ITEM: ATOMS id type x y z c_1[1] c_1[2] c_1[3] c_1[4] c_1[5] c_1[6] c_1[7] c_1[22]
1 2 0.368328 0.333269 0 -1.88851e+08 -1.54611e+08 -0 -1.70876e+08 -0 -0 8.35882e+07 6.84329e+07
2 2 0 0 0 -1.88851e+08 -1.54611e+08 -0 -1.70876e+08 -0 -0 8.35882e+07 6.84329e+07
ITEM: TIMESTEP
6
ITEM: NUMBER OF ATOMS
2
ITEM: BOX BOUNDS xy xz yz pp pp pp
0.0000000000000000e+00 5.0000000000000000e+01 0.0000000000000000e+00
0.0000000000000000e+00 5.0000000000000000e+01 0.0000000000000000e+00
0.0000000000000000e+00 5.0000000000000000e+01 0.0000000000000000e+00
ITEM: ATOMS id type x y z c_1[1] c_1[2] c_1[3] c_1[4] c_1[5] c_1[6] c_1[7] c_1[22]
1 2 0.366226 0.335576 0 -1.86703e+08 -1.56759e+08 -0 -1.71077e+08 -0 -0 7.96e+07 6.68338e+07
2 2 0 0 0 -1.86703e+08 -1.56759e+08 -0 -1.71077e+08 -0 -0 7.96e+07 6.68338e+07
ITEM: TIMESTEP
7
ITEM: NUMBER OF ATOMS
2
ITEM: BOX BOUNDS xy xz yz pp pp pp
0.0000000000000000e+00 5.0000000000000000e+01 0.0000000000000000e+00
0.0000000000000000e+00 5.0000000000000000e+01 0.0000000000000000e+00
0.0000000000000000e+00 5.0000000000000000e+01 0.0000000000000000e+00
ITEM: ATOMS id type x y z c_1[1] c_1[2] c_1[3] c_1[4] c_1[5] c_1[6] c_1[7] c_1[22]
1 2 0.364111 0.337871 0 -1.84552e+08 -1.5891e+08 -0 -1.71252e+08 -0 -0 7.56774e+07 6.5163e+07
2 2 0 0 0 -1.84552e+08 -1.5891e+08 -0 -1.71252e+08 -0 -0 7.56774e+07 6.5163e+07
ITEM: TIMESTEP
8
ITEM: NUMBER OF ATOMS
2
ITEM: BOX BOUNDS xy xz yz pp pp pp
0.0000000000000000e+00 5.0000000000000000e+01 0.0000000000000000e+00
0.0000000000000000e+00 5.0000000000000000e+01 0.0000000000000000e+00
0.0000000000000000e+00 5.0000000000000000e+01 0.0000000000000000e+00
ITEM: ATOMS id type x y z c_1[1] c_1[2] c_1[3] c_1[4] c_1[5] c_1[6] c_1[7] c_1[22]
1 2 0.361981 0.340152 0 -1.82399e+08 -1.61063e+08 -0 -1.71399e+08 -0 -0 7.18213e+07 6.34203e+07
2 2 0 0 0 -1.82399e+08 -1.61063e+08 -0 -1.71399e+08 -0 -0 7.18213e+07 6.34203e+07
ITEM: TIMESTEP
9
ITEM: NUMBER OF ATOMS
2
ITEM: BOX BOUNDS xy xz yz pp pp pp
0.0000000000000000e+00 5.0000000000000000e+01 0.0000000000000000e+00
0.0000000000000000e+00 5.0000000000000000e+01 0.0000000000000000e+00
0.0000000000000000e+00 5.0000000000000000e+01 0.0000000000000000e+00
ITEM: ATOMS id type x y z c_1[1] c_1[2] c_1[3] c_1[4] c_1[5] c_1[6] c_1[7] c_1[22]
1 2 0.359836 0.342419 0 -1.80244e+08 -1.63218e+08 -0 -1.7152e+08 -0 -0 6.80325e+07 6.16061e+07
2 2 0 0 0 -1.80244e+08 -1.63218e+08 -0 -1.7152e+08 -0 -0 6.80325e+07 6.16061e+07
ITEM: TIMESTEP
10
ITEM: NUMBER OF ATOMS
2
ITEM: BOX BOUNDS xy xz yz pp pp pp
0.0000000000000000e+00 5.0000000000000000e+01 0.0000000000000000e+00
0.0000000000000000e+00 5.0000000000000000e+01 0.0000000000000000e+00
0.0000000000000000e+00 5.0000000000000000e+01 0.0000000000000000e+00
ITEM: ATOMS id type x y z c_1[1] c_1[2] c_1[3] c_1[4] c_1[5] c_1[6] c_1[7] c_1[22]
1 2 0.357678 0.344674 0 -1.78088e+08 -1.65374e+08 -0 -1.71613e+08 -0 -0 6.43117e+07 5.97204e+07
2 2 0 0 0 -1.78088e+08 -1.65374e+08 -0 -1.71613e+08 -0 -0 6.43117e+07 5.97204e+07
ITEM: TIMESTEP
11
ITEM: NUMBER OF ATOMS
2
ITEM: BOX BOUNDS xy xz yz pp pp pp
0.0000000000000000e+00 5.0000000000000000e+01 0.0000000000000000e+00
0.0000000000000000e+00 5.0000000000000000e+01 0.0000000000000000e+00
0.0000000000000000e+00 5.0000000000000000e+01 0.0000000000000000e+00
ITEM: ATOMS id type x y z c_1[1] c_1[2] c_1[3] c_1[4] c_1[5] c_1[6] c_1[7] c_1[22]
1 2 0.355505 0.346914 0 -1.75931e+08 -1.67531e+08 -0 -1.7168e+08 -0 -0 6.06595e+07 5.77633e+07
2 2 0 0 0 -1.75931e+08 -1.67531e+08 -0 -1.7168e+08 -0 -0 6.06595e+07 5.77633e+07
ITEM: TIMESTEP
12
ITEM: NUMBER OF ATOMS
2
ITEM: BOX BOUNDS xy xz yz pp pp pp
0.0000000000000000e+00 5.0000000000000000e+01 0.0000000000000000e+00
0.0000000000000000e+00 5.0000000000000000e+01 0.0000000000000000e+00
0.0000000000000000e+00 5.0000000000000000e+01 0.0000000000000000e+00
ITEM: ATOMS id type x y z c_1[1] c_1[2] c_1[3] c_1[4] c_1[5] c_1[6] c_1[7] c_1[22]
1 2 0.353318 0.349141 0 -1.73773e+08 -1.69689e+08 -0 -1.71719e+08 -0 -0 5.70768e+07 5.57351e+07
2 2 0 0 0 -1.73773e+08 -1.69689e+08 -0 -1.71719e+08 -0 -0 5.70768e+07 5.57351e+07
ITEM: TIMESTEP
13
ITEM: NUMBER OF ATOMS
2
ITEM: BOX BOUNDS xy xz yz pp pp pp
0.0000000000000000e+00 5.0000000000000000e+01 0.0000000000000000e+00
0.0000000000000000e+00 5.0000000000000000e+01 0.0000000000000000e+00
0.0000000000000000e+00 5.0000000000000000e+01 0.0000000000000000e+00
ITEM: ATOMS id type x y z c_1[1] c_1[2] c_1[3] c_1[4] c_1[5] c_1[6] c_1[7] c_1[22]
1 2 0.351117 0.351354 0 -1.71615e+08 -1.71847e+08 -0 -1.71731e+08 -0 -0 5.3564e+07 5.36362e+07
2 2 0 0 0 -1.71615e+08 -1.71847e+08 -0 -1.71731e+08 -0 -0 5.3564e+07 5.36362e+07
ITEM: TIMESTEP
14
ITEM: NUMBER OF ATOMS
2
ITEM: BOX BOUNDS xy xz yz pp pp pp
0.0000000000000000e+00 5.0000000000000000e+01 0.0000000000000000e+00
0.0000000000000000e+00 5.0000000000000000e+01 0.0000000000000000e+00
0.0000000000000000e+00 5.0000000000000000e+01 0.0000000000000000e+00
ITEM: ATOMS id type x y z c_1[1] c_1[2] c_1[3] c_1[4] c_1[5] c_1[6] c_1[7] c_1[22]
1 2 0.348903 0.353553 0 -1.69457e+08 -1.74005e+08 -0 -1.71716e+08 -0 -0 5.01217e+07 5.14667e+07
2 2 0 0 0 -1.69457e+08 -1.74005e+08 -0 -1.71716e+08 -0 -0 5.01217e+07 5.14667e+07
ITEM: TIMESTEP
15
ITEM: NUMBER OF ATOMS
2
ITEM: BOX BOUNDS xy xz yz pp pp pp
0.0000000000000000e+00 5.0000000000000000e+01 0.0000000000000000e+00
0.0000000000000000e+00 5.0000000000000000e+01 0.0000000000000000e+00
0.0000000000000000e+00 5.0000000000000000e+01 0.0000000000000000e+00
ITEM: ATOMS id type x y z c_1[1] c_1[2] c_1[3] c_1[4] c_1[5] c_1[6] c_1[7] c_1[22]
1 2 0.346675 0.355738 0 -1.673e+08 -1.76162e+08 -0 -1.71674e+08 -0 -0 4.67506e+07 4.92271e+07
2 2 0 0 0 -1.673e+08 -1.76162e+08 -0 -1.71674e+08 -0 -0 4.67506e+07 4.92271e+07
ITEM: TIMESTEP
16
ITEM: NUMBER OF ATOMS
2
ITEM: BOX BOUNDS xy xz yz pp pp pp
0.0000000000000000e+00 5.0000000000000000e+01 0.0000000000000000e+00
0.0000000000000000e+00 5.0000000000000000e+01 0.0000000000000000e+00
0.0000000000000000e+00 5.0000000000000000e+01 0.0000000000000000e+00
ITEM: ATOMS id type x y z c_1[1] c_1[2] c_1[3] c_1[4] c_1[5] c_1[6] c_1[7] c_1[22]
1 2 0.344433 0.35791 0 -1.65143e+08 -1.78319e+08 -0 -1.71605e+08 -0 -0 4.3451e+07 4.69178e+07
2 2 0 0 0 -1.65143e+08 -1.78319e+08 -0 -1.71605e+08 -0 -0 4.3451e+07 4.69178e+07
ITEM: TIMESTEP
17
ITEM: NUMBER OF ATOMS
2
ITEM: BOX BOUNDS xy xz yz pp pp pp
0.0000000000000000e+00 5.0000000000000000e+01 0.0000000000000000e+00
0.0000000000000000e+00 5.0000000000000000e+01 0.0000000000000000e+00
0.0000000000000000e+00 5.0000000000000000e+01 0.0000000000000000e+00
ITEM: ATOMS id type x y z c_1[1] c_1[2] c_1[3] c_1[4] c_1[5] c_1[6] c_1[7] c_1[22]
1 2 0.342177 0.360067 0 -1.62987e+08 -1.80475e+08 -0 -1.71508e+08 -0 -0 4.02233e+07 4.45392e+07
2 2 0 0 0 -1.62987e+08 -1.80475e+08 -0 -1.71508e+08 -0 -0 4.02233e+07 4.45392e+07
ITEM: TIMESTEP
18
ITEM: NUMBER OF ATOMS
2
ITEM: BOX BOUNDS xy xz yz pp pp pp
0.0000000000000000e+00 5.0000000000000000e+01 0.0000000000000000e+00
0.0000000000000000e+00 5.0000000000000000e+01 0.0000000000000000e+00
0.0000000000000000e+00 5.0000000000000000e+01 0.0000000000000000e+00
ITEM: ATOMS id type x y z c_1[1] c_1[2] c_1[3] c_1[4] c_1[5] c_1[6] c_1[7] c_1[22]
1 2 0.339908 0.362209 0 -1.60833e+08 -1.8263e+08 -0 -1.71385e+08 -0 -0 3.70681e+07 4.20918e+07
2 2 0 0 0 -1.60833e+08 -1.8263e+08 -0 -1.71385e+08 -0 -0 3.70681e+07 4.20918e+07
ITEM: TIMESTEP
19
ITEM: NUMBER OF ATOMS
2
ITEM: BOX BOUNDS xy xz yz pp pp pp
0.0000000000000000e+00 5.0000000000000000e+01 0.0000000000000000e+00
0.0000000000000000e+00 5.0000000000000000e+01 0.0000000000000000e+00
0.0000000000000000e+00 5.0000000000000000e+01 0.0000000000000000e+00
ITEM: ATOMS id type x y z c_1[1] c_1[2] c_1[3] c_1[4] c_1[5] c_1[6] c_1[7] c_1[22]
1 2 0.337625 0.364338 0 -1.5868e+08 -1.84782e+08 -0 -1.71234e+08 -0 -0 3.39855e+07 3.95761e+07
2 2 0 0 0 -1.5868e+08 -1.84782e+08 -0 -1.71234e+08 -0 -0 3.39855e+07 3.95761e+07
ITEM: TIMESTEP
20
ITEM: NUMBER OF ATOMS
2
ITEM: BOX BOUNDS xy xz yz pp pp pp
0.0000000000000000e+00 5.0000000000000000e+01 0.0000000000000000e+00
0.0000000000000000e+00 5.0000000000000000e+01 0.0000000000000000e+00
0.0000000000000000e+00 5.0000000000000000e+01 0.0000000000000000e+00
ITEM: ATOMS id type x y z c_1[1] c_1[2] c_1[3] c_1[4] c_1[5] c_1[6] c_1[7] c_1[22]
1 2 0.33533 0.366452 0 -1.56529e+08 -1.86933e+08 -0 -1.71057e+08 -0 -0 3.0976e+07 3.69928e+07
2 2 0 0 0 -1.56529e+08 -1.86933e+08 -0 -1.71057e+08 -0 -0 3.0976e+07 3.69928e+07
ITEM: TIMESTEP
21
ITEM: NUMBER OF ATOMS
2
ITEM: BOX BOUNDS xy xz yz pp pp pp
0.0000000000000000e+00 5.0000000000000000e+01 0.0000000000000000e+00
0.0000000000000000e+00 5.0000000000000000e+01 0.0000000000000000e+00
0.0000000000000000e+00 5.0000000000000000e+01 0.0000000000000000e+00
ITEM: ATOMS id type x y z c_1[1] c_1[2] c_1[3] c_1[4] c_1[5] c_1[6] c_1[7] c_1[22]
1 2 0.33302 0.368552 0 -1.54381e+08 -1.89081e+08 -0 -1.70852e+08 -0 -0 2.80398e+07 3.43424e+07
2 2 0 0 0 -1.54381e+08 -1.89081e+08 -0 -1.70852e+08 -0 -0 2.80398e+07 3.43424e+07
ITEM: TIMESTEP
22
ITEM: NUMBER OF ATOMS
2
ITEM: BOX BOUNDS xy xz yz pp pp pp
0.0000000000000000e+00 5.0000000000000000e+01 0.0000000000000000e+00
0.0000000000000000e+00 5.0000000000000000e+01 0.0000000000000000e+00
0.0000000000000000e+00 5.0000000000000000e+01 0.0000000000000000e+00
ITEM: ATOMS id type x y z c_1[1] c_1[2] c_1[3] c_1[4] c_1[5] c_1[6] c_1[7] c_1[22]
1 2 0.330698 0.370637 0 -1.52235e+08 -1.91227e+08 -0 -1.70621e+08 -0 -0 2.51771e+07 3.16257e+07
2 2 0 0 0 -1.52235e+08 -1.91227e+08 -0 -1.70621e+08 -0 -0 2.51771e+07 3.16257e+07
ITEM: TIMESTEP
23
ITEM: NUMBER OF ATOMS
2
ITEM: BOX BOUNDS xy xz yz pp pp pp
0.0000000000000000e+00 5.0000000000000000e+01 0.0000000000000000e+00
0.0000000000000000e+00 5.0000000000000000e+01 0.0000000000000000e+00
0.0000000000000000e+00 5.0000000000000000e+01 0.0000000000000000e+00
ITEM: ATOMS id type x y z c_1[1] c_1[2] c_1[3] c_1[4] c_1[5] c_1[6] c_1[7] c_1[22]
1 2 0.328363 0.372708 0 -1.50093e+08 -1.93369e+08 -0 -1.70362e+08 -0 -0 2.23881e+07 2.88433e+07
2 2 0 0 0 -1.50093e+08 -1.93369e+08 -0 -1.70362e+08 -0 -0 2.23881e+07 2.88433e+07
ITEM: TIMESTEP
24
ITEM: NUMBER OF ATOMS
2
ITEM: BOX BOUNDS xy xz yz pp pp pp
0.0000000000000000e+00 5.0000000000000000e+01 0.0000000000000000e+00
0.0000000000000000e+00 5.0000000000000000e+01 0.0000000000000000e+00
0.0000000000000000e+00 5.0000000000000000e+01 0.0000000000000000e+00
ITEM: ATOMS id type x y z c_1[1] c_1[2] c_1[3] c_1[4] c_1[5] c_1[6] c_1[7] c_1[22]
1 2 0.326015 0.374763 0 -1.47954e+08 -1.95508e+08 -0 -1.70077e+08 -0 -0 1.96728e+07 2.5996e+07
2 2 0 0 0 -1.47954e+08 -1.95508e+08 -0 -1.70077e+08 -0 -0 1.96728e+07 2.5996e+07
ITEM: TIMESTEP
25
ITEM: NUMBER OF ATOMS
2
ITEM: BOX BOUNDS xy xz yz pp pp pp
0.0000000000000000e+00 5.0000000000000000e+01 0.0000000000000000e+00
0.0000000000000000e+00 5.0000000000000000e+01 0.0000000000000000e+00
0.0000000000000000e+00 5.0000000000000000e+01 0.0000000000000000e+00
ITEM: ATOMS id type x y z c_1[1] c_1[2] c_1[3] c_1[4] c_1[5] c_1[6] c_1[7] c_1[22]
1 2 0.323654 0.376804 0 -1.45818e+08 -1.97644e+08 -0 -1.69765e+08 -0 -0 1.70314e+07 2.30846e+07
2 2 0 0 0 -1.45818e+08 -1.97644e+08 -0 -1.69765e+08 -0 -0 1.70314e+07 2.30846e+07
ITEM: TIMESTEP
26
ITEM: NUMBER OF ATOMS
2
ITEM: BOX BOUNDS xy xz yz pp pp pp
0.0000000000000000e+00 5.0000000000000000e+01 0.0000000000000000e+00
0.0000000000000000e+00 5.0000000000000000e+01 0.0000000000000000e+00
0.0000000000000000e+00 5.0000000000000000e+01 0.0000000000000000e+00
ITEM: ATOMS id type x y z c_1[1] c_1[2] c_1[3] c_1[4] c_1[5] c_1[6] c_1[7] c_1[22]
1 2 0.32128 0.37883 0 -1.43687e+08 -1.99775e+08 -0 -1.69426e+08 -0 -0 1.44639e+07 2.01099e+07
2 2 0 0 0 -1.43687e+08 -1.99775e+08 -0 -1.69426e+08 -0 -0 1.44639e+07 2.01099e+07
ITEM: TIMESTEP
27
ITEM: NUMBER OF ATOMS
2
ITEM: BOX BOUNDS xy xz yz pp pp pp
0.0000000000000000e+00 5.0000000000000000e+01 0.0000000000000000e+00
0.0000000000000000e+00 5.0000000000000000e+01 0.0000000000000000e+00
0.0000000000000000e+00 5.0000000000000000e+01 0.0000000000000000e+00
ITEM: ATOMS id type x y z c_1[1] c_1[2] c_1[3] c_1[4] c_1[5] c_1[6] c_1[7] c_1[22]
1 2 0.318893 0.380842 0 -1.4156e+08 -2.01902e+08 -0 -1.6906e+08 -0 -0 1.19703e+07 1.70728e+07
2 2 0 0 0 -1.4156e+08 -2.01902e+08 -0 -1.6906e+08 -0 -0 1.19703e+07 1.70728e+07
ITEM: TIMESTEP
28
ITEM: NUMBER OF ATOMS
2
ITEM: BOX BOUNDS xy xz yz pp pp pp
0.0000000000000000e+00 5.0000000000000000e+01 0.0000000000000000e+00
0.0000000000000000e+00 5.0000000000000000e+01 0.0000000000000000e+00
0.0000000000000000e+00 5.0000000000000000e+01 0.0000000000000000e+00
ITEM: ATOMS id type x y z c_1[1] c_1[2] c_1[3] c_1[4] c_1[5] c_1[6] c_1[7] c_1[22]
1 2 0.316494 0.382838 0 -1.39438e+08 -2.04024e+08 -0 -1.68668e+08 -0 -0 9.55062e+06 1.39743e+07
2 2 0 0 0 -1.39438e+08 -2.04024e+08 -0 -1.68668e+08 -0 -0 9.55062e+06 1.39743e+07
ITEM: TIMESTEP
29
ITEM: NUMBER OF ATOMS
2
ITEM: BOX BOUNDS xy xz yz pp pp pp
0.0000000000000000e+00 5.0000000000000000e+01 0.0000000000000000e+00
0.0000000000000000e+00 5.0000000000000000e+01 0.0000000000000000e+00
0.0000000000000000e+00 5.0000000000000000e+01 0.0000000000000000e+00
ITEM: ATOMS id type x y z c_1[1] c_1[2] c_1[3] c_1[4] c_1[5] c_1[6] c_1[7] c_1[22]
1 2 0.314082 0.384819 0 -1.37321e+08 -2.06141e+08 -0 -1.68248e+08 -0 -0 7.20464e+06 1.08153e+07
2 2 0 0 0 -1.37321e+08 -2.06141e+08 -0 -1.68248e+08 -0 -0 7.20464e+06 1.08153e+07
ITEM: TIMESTEP
30
ITEM: NUMBER OF ATOMS
2
ITEM: BOX BOUNDS xy xz yz pp pp pp
0.0000000000000000e+00 5.0000000000000000e+01 0.0000000000000000e+00
0.0000000000000000e+00 5.0000000000000000e+01 0.0000000000000000e+00
0.0000000000000000e+00 5.0000000000000000e+01 0.0000000000000000e+00
ITEM: ATOMS id type x y z c_1[1] c_1[2] c_1[3] c_1[4] c_1[5] c_1[6] c_1[7] c_1[22]
1 2 0.311658 0.386785 0 -1.3521e+08 -2.08252e+08 -0 -1.67803e+08 -0 -0 4.93229e+06 7.59678e+06
2 2 0 0 0 -1.3521e+08 -2.08252e+08 -0 -1.67803e+08 -0 -0 4.93229e+06 7.59678e+06
ITEM: TIMESTEP
31
ITEM: NUMBER OF ATOMS
2
ITEM: BOX BOUNDS xy xz yz pp pp pp
0.0000000000000000e+00 5.0000000000000000e+01 0.0000000000000000e+00
0.0000000000000000e+00 5.0000000000000000e+01 0.0000000000000000e+00
0.0000000000000000e+00 5.0000000000000000e+01 0.0000000000000000e+00
ITEM: ATOMS id type x y z c_1[1] c_1[2] c_1[3] c_1[4] c_1[5] c_1[6] c_1[7] c_1[22]
1 2 0.309222 0.388735 0 -1.33104e+08 -2.10358e+08 -0 -1.67331e+08 -0 -0 2.73337e+06 4.31983e+06
2 2 0 0 0 -1.33104e+08 -2.10358e+08 -0 -1.67331e+08 -0 -0 2.73337e+06 4.31983e+06
ITEM: TIMESTEP
32
ITEM: NUMBER OF ATOMS
2
ITEM: BOX BOUNDS xy xz yz pp pp pp
0.0000000000000000e+00 5.0000000000000000e+01 0.0000000000000000e+00
0.0000000000000000e+00 5.0000000000000000e+01 0.0000000000000000e+00
0.0000000000000000e+00 5.0000000000000000e+01 0.0000000000000000e+00
ITEM: ATOMS id type x y z c_1[1] c_1[2] c_1[3] c_1[4] c_1[5] c_1[6] c_1[7] c_1[22]
1 2 0.306773 0.39067 0 -1.31004e+08 -2.12458e+08 -0 -1.66832e+08 -0 -0 607684 985517
2 2 0 0 0 -1.31004e+08 -2.12458e+08 -0 -1.66832e+08 -0 -0 607684 985517
ITEM: TIMESTEP
33
ITEM: NUMBER OF ATOMS
2
ITEM: BOX BOUNDS xy xz yz pp pp pp
0.0000000000000000e+00 5.0000000000000000e+01 0.0000000000000000e+00
0.0000000000000000e+00 5.0000000000000000e+01 0.0000000000000000e+00
0.0000000000000000e+00 5.0000000000000000e+01 0.0000000000000000e+00
ITEM: ATOMS id type x y z c_1[1] c_1[2] c_1[3] c_1[4] c_1[5] c_1[6] c_1[7] c_1[22]
1 2 0.304312 0.39259 0 -1.28911e+08 -2.14551e+08 -0 -1.66307e+08 -0 -0 -1.44505e+06 -2.40503e+06
2 2 0 0 0 -1.28911e+08 -2.14551e+08 -0 -1.66307e+08 -0 -0 -1.44505e+06 -2.40503e+06
ITEM: TIMESTEP
34
ITEM: NUMBER OF ATOMS
2
ITEM: BOX BOUNDS xy xz yz pp pp pp
0.0000000000000000e+00 5.0000000000000000e+01 0.0000000000000000e+00
0.0000000000000000e+00 5.0000000000000000e+01 0.0000000000000000e+00
0.0000000000000000e+00 5.0000000000000000e+01 0.0000000000000000e+00
ITEM: ATOMS id type x y z c_1[1] c_1[2] c_1[3] c_1[4] c_1[5] c_1[6] c_1[7] c_1[22]
1 2 0.30184 0.394494 0 -1.26825e+08 -2.16637e+08 -0 -1.65756e+08 -0 -0 -3.42512e+06 -5.85066e+06
2 2 0 0 0 -1.26825e+08 -2.16637e+08 -0 -1.65756e+08 -0 -0 -3.42512e+06 -5.85066e+06
ITEM: TIMESTEP
35
ITEM: NUMBER OF ATOMS
2
ITEM: BOX BOUNDS xy xz yz pp pp pp
0.0000000000000000e+00 5.0000000000000000e+01 0.0000000000000000e+00
0.0000000000000000e+00 5.0000000000000000e+01 0.0000000000000000e+00
0.0000000000000000e+00 5.0000000000000000e+01 0.0000000000000000e+00
ITEM: ATOMS id type x y z c_1[1] c_1[2] c_1[3] c_1[4] c_1[5] c_1[6] c_1[7] c_1[22]
1 2 0.299355 0.396383 0 -1.24745e+08 -2.18717e+08 -0 -1.65178e+08 -0 -0 -5.33288e+06 -9.35015e+06
2 2 0 0 0 -1.24745e+08 -2.18717e+08 -0 -1.65178e+08 -0 -0 -5.33288e+06 -9.35015e+06
ITEM: TIMESTEP
36
ITEM: NUMBER OF ATOMS
2
ITEM: BOX BOUNDS xy xz yz pp pp pp
0.0000000000000000e+00 5.0000000000000000e+01 0.0000000000000000e+00
0.0000000000000000e+00 5.0000000000000000e+01 0.0000000000000000e+00
0.0000000000000000e+00 5.0000000000000000e+01 0.0000000000000000e+00
ITEM: ATOMS id type x y z c_1[1] c_1[2] c_1[3] c_1[4] c_1[5] c_1[6] c_1[7] c_1[22]
1 2 0.296859 0.398256 0 -1.22674e+08 -2.20789e+08 -0 -1.64575e+08 -0 -0 -7.16871e+06 -1.29023e+07
2 2 0 0 0 -1.22674e+08 -2.20789e+08 -0 -1.64575e+08 -0 -0 -7.16871e+06 -1.29023e+07
ITEM: TIMESTEP
37
ITEM: NUMBER OF ATOMS
2
ITEM: BOX BOUNDS xy xz yz pp pp pp
0.0000000000000000e+00 5.0000000000000000e+01 0.0000000000000000e+00
0.0000000000000000e+00 5.0000000000000000e+01 0.0000000000000000e+00
0.0000000000000000e+00 5.0000000000000000e+01 0.0000000000000000e+00
ITEM: ATOMS id type x y z c_1[1] c_1[2] c_1[3] c_1[4] c_1[5] c_1[6] c_1[7] c_1[22]
1 2 0.294351 0.400114 0 -1.20609e+08 -2.22853e+08 -0 -1.63945e+08 -0 -0 -8.93303e+06 -1.65058e+07
2 2 0 0 0 -1.20609e+08 -2.22853e+08 -0 -1.63945e+08 -0 -0 -8.93303e+06 -1.65058e+07
ITEM: TIMESTEP
38
ITEM: NUMBER OF ATOMS
2
ITEM: BOX BOUNDS xy xz yz pp pp pp
0.0000000000000000e+00 5.0000000000000000e+01 0.0000000000000000e+00
0.0000000000000000e+00 5.0000000000000000e+01 0.0000000000000000e+00
0.0000000000000000e+00 5.0000000000000000e+01 0.0000000000000000e+00
ITEM: ATOMS id type x y z c_1[1] c_1[2] c_1[3] c_1[4] c_1[5] c_1[6] c_1[7] c_1[22]
1 2 0.291831 0.401955 0 -1.18553e+08 -2.24909e+08 -0 -1.6329e+08 -0 -0 -1.06263e+07 -2.01593e+07
2 2 0 0 0 -1.18553e+08 -2.24909e+08 -0 -1.6329e+08 -0 -0 -1.06263e+07 -2.01593e+07
ITEM: TIMESTEP
39
ITEM: NUMBER OF ATOMS
2
ITEM: BOX BOUNDS xy xz yz pp pp pp
0.0000000000000000e+00 5.0000000000000000e+01 0.0000000000000000e+00
0.0000000000000000e+00 5.0000000000000000e+01 0.0000000000000000e+00
0.0000000000000000e+00 5.0000000000000000e+01 0.0000000000000000e+00
ITEM: ATOMS id type x y z c_1[1] c_1[2] c_1[3] c_1[4] c_1[5] c_1[6] c_1[7] c_1[22]
1 2 0.289299 0.403781 0 -1.16506e+08 -2.26957e+08 -0 -1.62609e+08 -0 -0 -1.22491e+07 -2.38616e+07
2 2 0 0 0 -1.16506e+08 -2.26957e+08 -0 -1.62609e+08 -0 -0 -1.22491e+07 -2.38616e+07
ITEM: TIMESTEP
40
ITEM: NUMBER OF ATOMS
2
ITEM: BOX BOUNDS xy xz yz pp pp pp
0.0000000000000000e+00 5.0000000000000000e+01 0.0000000000000000e+00
0.0000000000000000e+00 5.0000000000000000e+01 0.0000000000000000e+00
0.0000000000000000e+00 5.0000000000000000e+01 0.0000000000000000e+00
ITEM: ATOMS id type x y z c_1[1] c_1[2] c_1[3] c_1[4] c_1[5] c_1[6] c_1[7] c_1[22]
1 2 0.286757 0.405591 0 -1.14467e+08 -2.28996e+08 -0 -1.61902e+08 -0 -0 -1.38018e+07 -2.76111e+07
2 2 0 0 0 -1.14467e+08 -2.28996e+08 -0 -1.61902e+08 -0 -0 -1.38018e+07 -2.76111e+07
ITEM: TIMESTEP
41
ITEM: NUMBER OF ATOMS
2
ITEM: BOX BOUNDS xy xz yz pp pp pp
0.0000000000000000e+00 5.0000000000000000e+01 0.0000000000000000e+00
0.0000000000000000e+00 5.0000000000000000e+01 0.0000000000000000e+00
0.0000000000000000e+00 5.0000000000000000e+01 0.0000000000000000e+00
ITEM: ATOMS id type x y z c_1[1] c_1[2] c_1[3] c_1[4] c_1[5] c_1[6] c_1[7] c_1[22]
1 2 0.284203 0.407384 0 -1.12437e+08 -2.31025e+08 -0 -1.6117e+08 -0 -0 -1.52851e+07 -3.14066e+07
2 2 0 0 0 -1.12437e+08 -2.31025e+08 -0 -1.6117e+08 -0 -0 -1.52851e+07 -3.14066e+07
ITEM: TIMESTEP
42
ITEM: NUMBER OF ATOMS
2
ITEM: BOX BOUNDS xy xz yz pp pp pp
0.0000000000000000e+00 5.0000000000000000e+01 0.0000000000000000e+00
0.0000000000000000e+00 5.0000000000000000e+01 0.0000000000000000e+00
0.0000000000000000e+00 5.0000000000000000e+01 0.0000000000000000e+00
ITEM: ATOMS id type x y z c_1[1] c_1[2] c_1[3] c_1[4] c_1[5] c_1[6] c_1[7] c_1[22]
1 2 0.281637 0.409162 0 -1.10416e+08 -2.33046e+08 -0 -1.60412e+08 -0 -0 -1.66996e+07 -3.52465e+07
2 2 0 0 0 -1.10416e+08 -2.33046e+08 -0 -1.60412e+08 -0 -0 -1.66996e+07 -3.52465e+07
ITEM: TIMESTEP
43
ITEM: NUMBER OF ATOMS
2
ITEM: BOX BOUNDS xy xz yz pp pp pp
0.0000000000000000e+00 5.0000000000000000e+01 0.0000000000000000e+00
0.0000000000000000e+00 5.0000000000000000e+01 0.0000000000000000e+00
0.0000000000000000e+00 5.0000000000000000e+01 0.0000000000000000e+00
ITEM: ATOMS id type x y z c_1[1] c_1[2] c_1[3] c_1[4] c_1[5] c_1[6] c_1[7] c_1[22]
1 2 0.279061 0.410923 0 -1.08405e+08 -2.35057e+08 -0 -1.59629e+08 -0 -0 -1.8046e+07 -3.91295e+07
2 2 0 0 0 -1.08405e+08 -2.35057e+08 -0 -1.59629e+08 -0 -0 -1.8046e+07 -3.91295e+07
ITEM: TIMESTEP
44
ITEM: NUMBER OF ATOMS
2
ITEM: BOX BOUNDS xy xz yz pp pp pp
0.0000000000000000e+00 5.0000000000000000e+01 0.0000000000000000e+00
0.0000000000000000e+00 5.0000000000000000e+01 0.0000000000000000e+00
0.0000000000000000e+00 5.0000000000000000e+01 0.0000000000000000e+00
ITEM: ATOMS id type x y z c_1[1] c_1[2] c_1[3] c_1[4] c_1[5] c_1[6] c_1[7] c_1[22]
1 2 0.276474 0.412669 0 -1.06404e+08 -2.37058e+08 -0 -1.58821e+08 -0 -0 -1.93249e+07 -4.30538e+07
2 2 0 0 0 -1.06404e+08 -2.37058e+08 -0 -1.58821e+08 -0 -0 -1.93249e+07 -4.30538e+07
ITEM: TIMESTEP
45
ITEM: NUMBER OF ATOMS
2
ITEM: BOX BOUNDS xy xz yz pp pp pp
0.0000000000000000e+00 5.0000000000000000e+01 0.0000000000000000e+00
0.0000000000000000e+00 5.0000000000000000e+01 0.0000000000000000e+00
0.0000000000000000e+00 5.0000000000000000e+01 0.0000000000000000e+00
ITEM: ATOMS id type x y z c_1[1] c_1[2] c_1[3] c_1[4] c_1[5] c_1[6] c_1[7] c_1[22]
1 2 0.273875 0.414398 0 -1.04414e+08 -2.39048e+08 -0 -1.57987e+08 -0 -0 -2.0537e+07 -4.70181e+07
2 2 0 0 0 -1.04414e+08 -2.39048e+08 -0 -1.57987e+08 -0 -0 -2.0537e+07 -4.70181e+07
ITEM: TIMESTEP
46
ITEM: NUMBER OF ATOMS
2
ITEM: BOX BOUNDS xy xz yz pp pp pp
0.0000000000000000e+00 5.0000000000000000e+01 0.0000000000000000e+00
0.0000000000000000e+00 5.0000000000000000e+01 0.0000000000000000e+00
0.0000000000000000e+00 5.0000000000000000e+01 0.0000000000000000e+00
ITEM: ATOMS id type x y z c_1[1] c_1[2] c_1[3] c_1[4] c_1[5] c_1[6] c_1[7] c_1[22]
1 2 0.271266 0.41611 0 -1.02434e+08 -2.41028e+08 -0 -1.57129e+08 -0 -0 -2.16831e+07 -5.10208e+07
2 2 0 0 0 -1.02434e+08 -2.41028e+08 -0 -1.57129e+08 -0 -0 -2.16831e+07 -5.10208e+07
ITEM: TIMESTEP
47
ITEM: NUMBER OF ATOMS
2
ITEM: BOX BOUNDS xy xz yz pp pp pp
0.0000000000000000e+00 5.0000000000000000e+01 0.0000000000000000e+00
0.0000000000000000e+00 5.0000000000000000e+01 0.0000000000000000e+00
0.0000000000000000e+00 5.0000000000000000e+01 0.0000000000000000e+00
ITEM: ATOMS id type x y z c_1[1] c_1[2] c_1[3] c_1[4] c_1[5] c_1[6] c_1[7] c_1[22]
1 2 0.268646 0.417806 0 -1.00465e+08 -2.42997e+08 -0 -1.56245e+08 -0 -0 -2.2764e+07 -5.50602e+07
2 2 0 0 0 -1.00465e+08 -2.42997e+08 -0 -1.56245e+08 -0 -0 -2.2764e+07 -5.50602e+07
ITEM: TIMESTEP
48
ITEM: NUMBER OF ATOMS
2
ITEM: BOX BOUNDS xy xz yz pp pp pp
0.0000000000000000e+00 5.0000000000000000e+01 0.0000000000000000e+00
0.0000000000000000e+00 5.0000000000000000e+01 0.0000000000000000e+00
0.0000000000000000e+00 5.0000000000000000e+01 0.0000000000000000e+00
ITEM: ATOMS id type x y z c_1[1] c_1[2] c_1[3] c_1[4] c_1[5] c_1[6] c_1[7] c_1[22]
1 2 0.266016 0.419486 0 -9.85069e+07 -2.44955e+08 -0 -1.55338e+08 -0 -0 -2.37806e+07 -5.91347e+07
2 2 0 0 0 -9.85069e+07 -2.44955e+08 -0 -1.55338e+08 -0 -0 -2.37806e+07 -5.91347e+07
ITEM: TIMESTEP
49
ITEM: NUMBER OF ATOMS
2
ITEM: BOX BOUNDS xy xz yz pp pp pp
0.0000000000000000e+00 5.0000000000000000e+01 0.0000000000000000e+00
0.0000000000000000e+00 5.0000000000000000e+01 0.0000000000000000e+00
0.0000000000000000e+00 5.0000000000000000e+01 0.0000000000000000e+00
ITEM: ATOMS id type x y z c_1[1] c_1[2] c_1[3] c_1[4] c_1[5] c_1[6] c_1[7] c_1[22]
1 2 0.263375 0.421149 0 -9.65607e+07 -2.46901e+08 -0 -1.54405e+08 -0 -0 -2.47336e+07 -6.32427e+07
2 2 0 0 0 -9.65607e+07 -2.46901e+08 -0 -1.54405e+08 -0 -0 -2.47336e+07 -6.32427e+07
ITEM: TIMESTEP
50
ITEM: NUMBER OF ATOMS
2
ITEM: BOX BOUNDS xy xz yz pp pp pp
0.0000000000000000e+00 5.0000000000000000e+01 0.0000000000000000e+00
0.0000000000000000e+00 5.0000000000000000e+01 0.0000000000000000e+00
0.0000000000000000e+00 5.0000000000000000e+01 0.0000000000000000e+00
ITEM: ATOMS id type x y z c_1[1] c_1[2] c_1[3] c_1[4] c_1[5] c_1[6] c_1[7] c_1[22]
1 2 0.260724 0.422796 0 -9.46264e+07 -2.48836e+08 -0 -1.53448e+08 -0 -0 -2.5624e+07 -6.73825e+07
2 2 0 0 0 -9.46264e+07 -2.48836e+08 -0 -1.53448e+08 -0 -0 -2.5624e+07 -6.73825e+07
ITEM: TIMESTEP
51
ITEM: NUMBER OF ATOMS
2
ITEM: BOX BOUNDS xy xz yz pp pp pp
0.0000000000000000e+00 5.0000000000000000e+01 0.0000000000000000e+00
0.0000000000000000e+00 5.0000000000000000e+01 0.0000000000000000e+00
0.0000000000000000e+00 5.0000000000000000e+01 0.0000000000000000e+00
ITEM: ATOMS id type x y z c_1[1] c_1[2] c_1[3] c_1[4] c_1[5] c_1[6] c_1[7] c_1[22]
1 2 0.258062 0.424426 0 -9.27042e+07 -2.50758e+08 -0 -1.52467e+08 -0 -0 -2.64526e+07 -7.15523e+07
2 2 0 0 0 -9.27042e+07 -2.50758e+08 -0 -1.52467e+08 -0 -0 -2.64526e+07 -7.15523e+07
ITEM: TIMESTEP
52
ITEM: NUMBER OF ATOMS
2
ITEM: BOX BOUNDS xy xz yz pp pp pp
0.0000000000000000e+00 5.0000000000000000e+01 0.0000000000000000e+00
0.0000000000000000e+00 5.0000000000000000e+01 0.0000000000000000e+00
0.0000000000000000e+00 5.0000000000000000e+01 0.0000000000000000e+00
ITEM: ATOMS id type x y z c_1[1] c_1[2] c_1[3] c_1[4] c_1[5] c_1[6] c_1[7] c_1[22]
1 2 0.25539 0.426039 0 -9.07945e+07 -2.52668e+08 -0 -1.51462e+08 -0 -0 -2.72205e+07 -7.57505e+07
2 2 0 0 0 -9.07945e+07 -2.52668e+08 -0 -1.51462e+08 -0 -0 -2.72205e+07 -7.57505e+07
ITEM: TIMESTEP
53
ITEM: NUMBER OF ATOMS
2
ITEM: BOX BOUNDS xy xz yz pp pp pp
0.0000000000000000e+00 5.0000000000000000e+01 0.0000000000000000e+00
0.0000000000000000e+00 5.0000000000000000e+01 0.0000000000000000e+00
0.0000000000000000e+00 5.0000000000000000e+01 0.0000000000000000e+00
ITEM: ATOMS id type x y z c_1[1] c_1[2] c_1[3] c_1[4] c_1[5] c_1[6] c_1[7] c_1[22]
1 2 0.252708 0.427635 0 -8.88977e+07 -2.54564e+08 -0 -1.50433e+08 -0 -0 -2.79285e+07 -7.99752e+07
2 2 0 0 0 -8.88977e+07 -2.54564e+08 -0 -1.50433e+08 -0 -0 -2.79285e+07 -7.99752e+07
ITEM: TIMESTEP
54
ITEM: NUMBER OF ATOMS
2
ITEM: BOX BOUNDS xy xz yz pp pp pp
0.0000000000000000e+00 5.0000000000000000e+01 0.0000000000000000e+00
0.0000000000000000e+00 5.0000000000000000e+01 0.0000000000000000e+00
0.0000000000000000e+00 5.0000000000000000e+01 0.0000000000000000e+00
ITEM: ATOMS id type x y z c_1[1] c_1[2] c_1[3] c_1[4] c_1[5] c_1[6] c_1[7] c_1[22]
1 2 0.250016 0.429214 0 -8.70138e+07 -2.56448e+08 -0 -1.49381e+08 -0 -0 -2.85778e+07 -8.42247e+07
2 2 0 0 0 -8.70138e+07 -2.56448e+08 -0 -1.49381e+08 -0 -0 -2.85778e+07 -8.42247e+07
ITEM: TIMESTEP
55