ITEM: TIMESTEP
0
ITEM: NUMBER OF ATOMS
4
ITEM: BOX BOUNDS xy xz yz pp pp pp
0.0000000000000000e+00 5.0000000000000000e+01 0.0000000000000000e+00
0.0000000000000000e+00 5.0000000000000000e+01 0.0000000000000000e+00
0.0000000000000000e+00 5.0000000000000000e+01 0.0000000000000000e+00
ITEM: ATOMS id type x y z c_1[1] c_1[2] c_1[3] c_1[4] c_1[5] c_1[6] c_1[7] c_1[22]
1 2 0.378678 0.321535 0 -3.01732e+10 -3.06314e+10 -0 2.616e+09 -0 -0 -1.29715e+19 -2.88121e+18
2 2 0 0 0 -3.13159e+10 -1.5902e+10 -0 1.99743e+10 -0 -0 -5.51866e+21 -1.5748e+11
3 2 0.5 0 0 -2.45224e+10 -3.09533e+10 -0 1.32388e+10 -0 -0 -5.51866e+21 -1.2527e+14
4 2 0 0.5 0 -2.95156e+10 -1.05004e+10 -0 1.55061e+10 -0 -0 -1.29715e+19 -2.88108e+18
ITEM: TIMESTEP
1
ITEM: NUMBER OF ATOMS
4
ITEM: BOX BOUNDS xy xz yz pp pp pp
0.0000000000000000e+00 5.0000500000000002e+01 5.0000000000238742e-04
0.0000000000000000e+00 5.0000000000000000e+01 0.0000000000000000e+00
0.0000000000000000e+00 5.0000000000000000e+01 0.0000000000000000e+00
ITEM: ATOMS id type x y z c_1[1] c_1[2] c_1[3] c_1[4] c_1[5] c_1[6] c_1[7] c_1[22]
1 2 0.378681 0.321535 0 -3.01732e+10 -3.06314e+10 -0 2.616e+09 -0 -0 -1.29715e+19 -2.88121e+18
2 2 0 0 0 -3.13159e+10 -1.5902e+10 -0 1.99743e+10 -0 -0 -5.51866e+21 -1.57481e+11
3 2 0.5 0 0 -2.45224e+10 -3.09533e+10 -0 1.32388e+10 -0 -0 -5.51866e+21 -1.2527e+14
4 2 5e-06 0.5 0 -2.95156e+10 -1.05004e+10 -0 1.55061e+10 -0 -0 -1.29715e+19 -2.88108e+18
ITEM: TIMESTEP
2
ITEM: NUMBER OF ATOMS
4
ITEM: BOX BOUNDS xy xz yz pp pp pp
0.0000000000000000e+00 5.0000999999999998e+01 9.9999999999766942e-04
0.0000000000000000e+00 5.0000000000000000e+01 0.0000000000000000e+00
0.0000000000000000e+00 5.0000000000000000e+01 0.0000000000000000e+00
ITEM: ATOMS id type x y z c_1[1] c_1[2] c_1[3] c_1[4] c_1[5] c_1[6] c_1[7] c_1[22]
1 2 0.378684 0.321535 0 -3.01736e+10 -3.06315e+10 -0 2.61528e+09 -0 -0 2.18211e+35 4.86204e+34
2 2 0 0 0 -3.13143e+10 -1.59022e+10 -0 1.99742e+10 -0 -0 6.96695e+39 -1.55435e+37
3 2 0.5 0 0 -2.45205e+10 -3.09534e+10 -0 1.32386e+10 -0 -0 6.96695e+39 1.58377e+32
4 2 1e-05 0.5 0 -2.95154e+10 -1.05004e+10 -0 1.55061e+10 -0 -0 2.18188e+35 -1.5495e+37
ITEM: TIMESTEP
3
ITEM: NUMBER OF ATOMS
4
ITEM: BOX BOUNDS xy xz yz pp pp pp
0.0000000000000000e+00 5.0001500000000000e+01 1.5000000000000568e-03
0.0000000000000000e+00 5.0000000000000000e+01 0.0000000000000000e+00
0.0000000000000000e+00 5.0000000000000000e+01 0.0000000000000000e+00
ITEM: ATOMS id type x y z c_1[1] c_1[2] c_1[3] c_1[4] c_1[5] c_1[6] c_1[7] c_1[22]
1 2 0.378688 0.321535 0 -3.0174e+10 -3.06317e+10 -0 2.61456e+09 -0 -0 -2.75447e+53 -6.11829e+52
2 2 0 0 0 -3.13128e+10 -1.59025e+10 -0 1.99741e+10 -0 -0 -1.17191e+56 3.92455e+55
3 2 0.5 0 0 -2.45186e+10 -3.09534e+10 -0 1.32384e+10 -0 -0 -1.17191e+56 -2.66394e+48
4 2 1.5e-05 0.5 0 -2.95152e+10 -1.05004e+10 -0 1.5506e+10 -0 -0 -2.75446e+53 3.91843e+55
ITEM: TIMESTEP
4
ITEM: NUMBER OF ATOMS
4
ITEM: BOX BOUNDS xy xz yz pp pp pp
0.0000000000000000e+00 5.0002000000000002e+01 2.0000000000024443e-03
0.0000000000000000e+00 5.0000000000000000e+01 0.0000000000000000e+00
0.0000000000000000e+00 5.0000000000000000e+01 0.0000000000000000e+00
ITEM: ATOMS id type x y z c_1[1] c_1[2] c_1[3] c_1[4] c_1[5] c_1[6] c_1[7] c_1[22]
1 2 0.378691 0.321535 0 -3.01743e+10 -3.06318e+10 -0 2.61384e+09 -0 -0 4.63372e+69 1.03248e+69
2 2 0 0 0 -3.13112e+10 -1.59028e+10 -0 1.9974e+10 -0 -0 1.47948e+74 -9.90226e+71
3 2 0.5 0 0 -2.45168e+10 -3.09535e+10 -0 1.32382e+10 -0 -0 1.47948e+74 3.36297e+66
4 2 2e-05 0.5 0 -2.9515e+10 -1.05004e+10 -0 1.5506e+10 -0 -0 4.63324e+69 -9.89197e+71
ITEM: TIMESTEP
5
ITEM: NUMBER OF ATOMS
4
ITEM: BOX BOUNDS xy xz yz pp pp pp
0.0000000000000000e+00 5.0002499999999998e+01 2.4999999999977263e-03
0.0000000000000000e+00 5.0000000000000000e+01 0.0000000000000000e+00
0.0000000000000000e+00 5.0000000000000000e+01 0.0000000000000000e+00
ITEM: ATOMS id type x y z c_1[1] c_1[2] c_1[3] c_1[4] c_1[5] c_1[6] c_1[7] c_1[22]
1 2 0.378694 0.321535 0 -3.01747e+10 -3.06319e+10 -0 2.61313e+09 -0 -0 -5.8492e+87 -1.29926e+87
2 2 0 0 0 -3.13096e+10 -1.59031e+10 -0 1.99739e+10 -0 -0 -2.48865e+90 1.66683e+90
3 2 0.5 0 0 -2.45149e+10 -3.09536e+10 -0 1.3238e+10 -0 -0 -2.48865e+90 -5.6567e+82
4 2 2.5e-05 0.5 0 -2.95148e+10 -1.05004e+10 -0 1.55059e+10 -0 -0 -5.84919e+87 1.66553e+90
ITEM: TIMESTEP
6
ITEM: NUMBER OF ATOMS
4
ITEM: BOX BOUNDS xy xz yz pp pp pp
0.0000000000000000e+00 5.0003000000000000e+01 3.0000000000001137e-03
0.0000000000000000e+00 5.0000000000000000e+01 0.0000000000000000e+00
0.0000000000000000e+00 5.0000000000000000e+01 0.0000000000000000e+00
ITEM: ATOMS id type x y z c_1[1] c_1[2] c_1[3] c_1[4] c_1[5] c_1[6] c_1[7] c_1[22]
1 2 0.378697 0.321535 0 -3.01751e+10 -3.0632e+10 -0 2.61241e+09 -0 -0 9.83998e+103 2.19257e+103
2 2 0 0 0 -3.1308e+10 -1.59034e+10 -0 1.99738e+10 -0 -0 3.14184e+108 -3.50477e+106
3 2 0.5 0 0 -2.4513e+10 -3.09536e+10 -0 1.32377e+10 -0 -0 3.14184e+108 7.14113e+100
4 2 3e-05 0.5 0 -2.95146e+10 -1.05005e+10 -0 1.55059e+10 -0 -0 9.83896e+103 -3.50259e+106
ITEM: TIMESTEP
7
ITEM: NUMBER OF ATOMS
4
ITEM: BOX BOUNDS xy xz yz pp pp pp
0.0000000000000000e+00 5.0003500000000003e+01 3.5000000000025011e-03
0.0000000000000000e+00 5.0000000000000000e+01 0.0000000000000000e+00
0.0000000000000000e+00 5.0000000000000000e+01 0.0000000000000000e+00
ITEM: ATOMS id type x y z c_1[1] c_1[2] c_1[3] c_1[4] c_1[5] c_1[6] c_1[7] c_1[22]
1 2 0.378701 0.321535 0 -3.01754e+10 -3.06321e+10 -0 2.61169e+09 -0 -0 -1.24213e+122 -2.75916e+121
2 2 0 0 0 -3.13064e+10 -1.59037e+10 -0 1.99737e+10 -0 -0 -5.28502e+124 5.30964e+124
3 2 0.5 0 0 -2.45111e+10 -3.09537e+10 -0 1.32375e+10 -0 -0 -5.28502e+124 -1.20119e+117
4 2 3.5e-05 0.5 0 -2.95144e+10 -1.05005e+10 -0 1.55058e+10 -0 -0 -1.24213e+122 5.30688e+124
ITEM: TIMESTEP
8
ITEM: NUMBER OF ATOMS
4
ITEM: BOX BOUNDS xy xz yz pp pp pp
0.0000000000000000e+00 5.0003999999999998e+01 3.9999999999977831e-03
0.0000000000000000e+00 5.0000000000000000e+01 0.0000000000000000e+00
0.0000000000000000e+00 5.0000000000000000e+01 0.0000000000000000e+00
ITEM: ATOMS id type x y z c_1[1] c_1[2] c_1[3] c_1[4] c_1[5] c_1[6] c_1[7] c_1[22]
1 2 0.378704 0.321535 0 -3.01758e+10 -3.06322e+10 -0 2.61097e+09 -0 -0 2.08964e+138 4.65626e+137
2 2 0 0 0 -3.13048e+10 -1.5904e+10 -0 1.99737e+10 -0 -0 6.67226e+142 -1.04202e+141
3 2 0.5 0 0 -2.45092e+10 -3.09538e+10 -0 1.32373e+10 -0 -0 6.67226e+142 1.51643e+135
4 2 4e-05 0.5 0 -2.95142e+10 -1.05005e+10 -0 1.55058e+10 -0 -0 2.08942e+138 -1.04156e+141
ITEM: TIMESTEP
9
ITEM: NUMBER OF ATOMS
4
ITEM: BOX BOUNDS xy xz yz pp pp pp
0.0000000000000000e+00 5.0004500000000000e+01 4.5000000000001705e-03
0.0000000000000000e+00 5.0000000000000000e+01 0.0000000000000000e+00
0.0000000000000000e+00 5.0000000000000000e+01 0.0000000000000000e+00
ITEM: ATOMS id type x y z c_1[1] c_1[2] c_1[3] c_1[4] c_1[5] c_1[6] c_1[7] c_1[22]
1 2 0.378707 0.321535 0 -3.01762e+10 -3.06323e+10 -0 2.61026e+09 -0 -0 -2.63785e+156 -5.85958e+155
2 2 0 0 0 -3.13032e+10 -1.59042e+10 -0 1.99736e+10 -0 -0 -1.12238e+159 1.50348e+159
3 2 0.5 0 0 -2.45074e+10 -3.09538e+10 -0 1.32371e+10 -0 -0 -1.12238e+159 -2.55078e+151
4 2 4.5e-05 0.5 0 -2.95139e+10 -1.05005e+10 -0 1.55058e+10 -0 -0 -2.63783e+156 1.50289e+159
ITEM: TIMESTEP
10
ITEM: NUMBER OF ATOMS
4
ITEM: BOX BOUNDS xy xz yz pp pp pp
0.0000000000000000e+00 5.0005000000000003e+01 5.0000000000025580e-03
0.0000000000000000e+00 5.0000000000000000e+01 0.0000000000000000e+00
0.0000000000000000e+00 5.0000000000000000e+01 0.0000000000000000e+00
ITEM: ATOMS id type x y z c_1[1] c_1[2] c_1[3] c_1[4] c_1[5] c_1[6] c_1[7] c_1[22]
1 2 0.37871 0.321535 0 -3.01766e+10 -3.06325e+10 -0 2.60954e+09 -0 -0 4.43771e+172 9.88856e+171
2 2 0 0 0 -3.13016e+10 -1.59045e+10 -0 1.99735e+10 -0 -0 1.41701e+177 -2.84526e+175
3 2 0.5 0 0 -2.45055e+10 -3.09539e+10 -0 1.32369e+10 -0 -0 1.41701e+177 3.22024e+169
4 2 5e-05 0.5 0 -2.95137e+10 -1.05005e+10 -0 1.55057e+10 -0 -0 4.43723e+172 -2.84427e+175
ITEM: TIMESTEP
11
ITEM: NUMBER OF ATOMS
4
ITEM: BOX BOUNDS xy xz yz pp pp pp
0.0000000000000000e+00 5.0005499999999998e+01 5.4999999999978400e-03
0.0000000000000000e+00 5.0000000000000000e+01 0.0000000000000000e+00
0.0000000000000000e+00 5.0000000000000000e+01 0.0000000000000000e+00
ITEM: ATOMS id type x y z c_1[1] c_1[2] c_1[3] c_1[4] c_1[5] c_1[6] c_1[7] c_1[22]
1 2 0.378713 0.321535 0 -3.01769e+10 -3.06326e+10 -0 2.60882e+09 -0 -0 -5.602e+190 -1.24442e+190
2 2 0 0 0 -3.13e+10 -1.59048e+10 -0 1.99734e+10 -0 -0 -2.38367e+193 3.99129e+193
3 2 0.5 0 0 -2.45036e+10 -3.0954e+10 -0 1.32367e+10 -0 -0 -2.38367e+193 -5.41683e+185
4 2 5.5e-05 0.5 0 -2.95135e+10 -1.05005e+10 -0 1.55057e+10 -0 -0 -5.60195e+190 3.99005e+193
ITEM: TIMESTEP
12
ITEM: NUMBER OF ATOMS
4
ITEM: BOX BOUNDS xy xz yz pp pp pp
0.0000000000000000e+00 5.0006000000000000e+01 6.0000000000002274e-03
0.0000000000000000e+00 5.0000000000000000e+01 0.0000000000000000e+00
0.0000000000000000e+00 5.0000000000000000e+01 0.0000000000000000e+00
ITEM: ATOMS id type x y z c_1[1] c_1[2] c_1[3] c_1[4] c_1[5] c_1[6] c_1[7] c_1[22]
1 2 0.378717 0.321535 0 -3.01773e+10 -3.06327e+10 -0 2.6081e+09 -0 -0 9.42449e+206 2.1001e+206
2 2 0 0 0 -3.12985e+10 -1.59051e+10 -0 1.99733e+10 -0 -0 3.00943e+211 -7.38555e+209
3 2 0.5 0 0 -2.45017e+10 -3.0954e+10 -0 1.32365e+10 -0 -0 3.00943e+211 6.83859e+203
4 2 6e-05 0.5 0 -2.95133e+10 -1.05005e+10 -0 1.55056e+10 -0 -0 9.42343e+206 -7.38346e+209
ITEM: TIMESTEP
13
ITEM: NUMBER OF ATOMS
4
ITEM: BOX BOUNDS xy xz yz pp pp pp
0.0000000000000000e+00 5.0006500000000003e+01 6.5000000000026148e-03
0.0000000000000000e+00 5.0000000000000000e+01 0.0000000000000000e+00
0.0000000000000000e+00 5.0000000000000000e+01 0.0000000000000000e+00
ITEM: ATOMS id type x y z c_1[1] c_1[2] c_1[3] c_1[4] c_1[5] c_1[6] c_1[7] c_1[22]
1 2 0.37872 0.321535 0 -3.01777e+10 -3.06328e+10 -0 2.60739e+09 -0 -0 -1.18973e+225 -2.64291e+224
2 2 0 0 0 -3.12969e+10 -1.59054e+10 -0 1.99732e+10 -0 -0 -5.06248e+227 1.01721e+228
3 2 0.5 0 0 -2.44998e+10 -3.09541e+10 -0 1.32363e+10 -0 -0 -5.06248e+227 -1.15035e+220
4 2 6.5e-05 0.5 0 -2.95131e+10 -1.05005e+10 -0 1.55056e+10 -0 -0 -1.18971e+225 1.01695e+228
ITEM: TIMESTEP
14
ITEM: NUMBER OF ATOMS
4
ITEM: BOX BOUNDS xy xz yz pp pp pp
0.0000000000000000e+00 5.0006999999999998e+01 6.9999999999978968e-03
0.0000000000000000e+00 5.0000000000000000e+01 0.0000000000000000e+00
0.0000000000000000e+00 5.0000000000000000e+01 0.0000000000000000e+00
ITEM: ATOMS id type x y z c_1[1] c_1[2] c_1[3] c_1[4] c_1[5] c_1[6] c_1[7] c_1[22]
1 2 0.378723 0.321535 0 -3.01781e+10 -3.06329e+10 -0 2.60667e+09 -0 -0 2.00156e+241 4.46025e+240
2 2 0 0 0 -3.12953e+10 -1.59057e+10 -0 1.99731e+10 -0 -0 6.39156e+245 -1.85377e+244
3 2 0.5 0 0 -2.4498e+10 -3.09542e+10 -0 1.32361e+10 -0 -0 6.39156e+245 1.4523e+238
4 2 7e-05 0.5 0 -2.95129e+10 -1.05005e+10 -0 1.55056e+10 -0 -0 2.00132e+241 -1.85333e+244
ITEM: TIMESTEP
15
ITEM: NUMBER OF ATOMS
4
ITEM: BOX BOUNDS xy xz yz pp pp pp
0.0000000000000000e+00 5.0007500000000000e+01 7.5000000000002842e-03
0.0000000000000000e+00 5.0000000000000000e+01 0.0000000000000000e+00
0.0000000000000000e+00 5.0000000000000000e+01 0.0000000000000000e+00
ITEM: ATOMS id type x y z c_1[1] c_1[2] c_1[3] c_1[4] c_1[5] c_1[6] c_1[7] c_1[22]
1 2 0.378726 0.321535 0 -3.01784e+10 -3.0633e+10 -0 2.60595e+09 -0 -0 -2.52676e+259 -5.61315e+258
2 2 0 0 0 -3.12937e+10 -1.5906e+10 -0 1.9973e+10 -0 -0 -1.07521e+262 2.52051e+262
3 2 0.5 0 0 -2.44961e+10 -3.09542e+10 -0 1.32359e+10 -0 -0 -1.07521e+262 -2.44301e+254
4 2 7.5e-05 0.5 0 -2.95127e+10 -1.05005e+10 -0 1.55055e+10 -0 -0 -2.52671e+259 2.51995e+262
ITEM: TIMESTEP
16
ITEM: NUMBER OF ATOMS
4
ITEM: BOX BOUNDS xy xz yz pp pp pp
0.0000000000000000e+00 5.0008000000000003e+01 8.0000000000026716e-03
0.0000000000000000e+00 5.0000000000000000e+01 0.0000000000000000e+00
0.0000000000000000e+00 5.0000000000000000e+01 0.0000000000000000e+00
ITEM: ATOMS id type x y z c_1[1] c_1[2] c_1[3] c_1[4] c_1[5] c_1[6] c_1[7] c_1[22]
1 2 0.378729 0.321535 0 -3.01788e+10 -3.06331e+10 -0 2.60523e+09 -0 -0 4.251e+275 9.47305e+274
2 2 0 0 0 -3.12921e+10 -1.59062e+10 -0 1.99729e+10 -0 -0 1.3575e+280 -4.54296e+278
3 2 0.5 0 0 -2.44942e+10 -3.09543e+10 -0 1.32357e+10 -0 -0 1.3575e+280 3.0843e+272
4 2 8e-05 0.5 0 -2.95125e+10 -1.05005e+10 -0 1.55055e+10 -0 -0 4.25046e+275 -4.54202e+278
ITEM: TIMESTEP
17
ITEM: NUMBER OF ATOMS
4
ITEM: BOX BOUNDS xy xz yz pp pp pp
0.0000000000000000e+00 5.0008499999999998e+01 8.4999999999979536e-03
0.0000000000000000e+00 5.0000000000000000e+01 0.0000000000000000e+00
0.0000000000000000e+00 5.0000000000000000e+01 0.0000000000000000e+00
ITEM: ATOMS id type x y z c_1[1] c_1[2] c_1[3] c_1[4] c_1[5] c_1[6] c_1[7] c_1[22]
1 2 0.378733 0.321535 0 -3.01792e+10 -3.06333e+10 -0 2.60451e+09 -0 -0 -5.36652e+293 -1.19218e+293
2 2 0 0 0 -3.12905e+10 -1.59065e+10 -0 1.99728e+10 -0 -0 -2.28366e+296 6.11815e+296
3 2 0.5 0 0 -2.44923e+10 -3.09544e+10 -0 1.32355e+10 -0 -0 -2.28366e+296 -5.18837e+288
4 2 8.5e-05 0.5 0 -2.95123e+10 -1.05005e+10 -0 1.55054e+10 -0 -0 -5.36636e+293 6.11696e+296
ITEM: TIMESTEP
18
ITEM: NUMBER OF ATOMS
4
ITEM: BOX BOUNDS xy xz yz pp pp pp
0.0000000000000000e+00 5.0009000000000000e+01 9.0000000000003411e-03
0.0000000000000000e+00 5.0000000000000000e+01 0.0000000000000000e+00
0.0000000000000000e+00 5.0000000000000000e+01 0.0000000000000000e+00
ITEM: ATOMS id type x y z c_1[1] c_1[2] c_1[3] c_1[4] c_1[5] c_1[6] c_1[7] c_1[22]
1 2 0.378736 0.321535 0 -3.01796e+10 -3.06334e+10 -0 2.6038e+09 -0 -0 inf inf
2 2 0 0 0 -3.12889e+10 -1.59068e+10 -0 1.99728e+10 -0 -0 -nan -nan
3 2 0.5 0 0 -2.44904e+10 -3.09545e+10 -0 1.32352e+10 -0 -0 inf -nan
4 2 9e-05 0.5 0 -2.95121e+10 -1.05006e+10 -0 1.55054e+10 -0 -0 -nan -nan
ITEM: TIMESTEP
19
ITEM: NUMBER OF ATOMS
4
ITEM: BOX BOUNDS xy xz yz pp pp pp
0.0000000000000000e+00 5.0009500000000003e+01 9.5000000000027285e-03
0.0000000000000000e+00 5.0000000000000000e+01 0.0000000000000000e+00
0.0000000000000000e+00 5.0000000000000000e+01 0.0000000000000000e+00
ITEM: ATOMS id type x y z c_1[1] c_1[2] c_1[3] c_1[4] c_1[5] c_1[6] c_1[7] c_1[22]
1 2 0.378739 0.321535 0 -3.01799e+10 -3.06335e+10 -0 2.60308e+09 -0 -0 -nan -nan
2 2 0 0 0 -3.12873e+10 -1.59071e+10 -0 1.99727e+10 -0 -0 -nan -nan
3 2 0.5 0 0 -2.44886e+10 -3.09545e+10 -0 1.3235e+10 -0 -0 -nan -nan
4 2 9.5e-05 0.5 0 -2.95119e+10 -1.05006e+10 -0 1.55053e+10 -0 -0 -nan -nan
ITEM: TIMESTEP
20
ITEM: NUMBER OF ATOMS
4
ITEM: BOX BOUNDS xy xz yz pp pp pp
0.0000000000000000e+00 5.0009999999999998e+01 9.9999999999980105e-03
0.0000000000000000e+00 5.0000000000000000e+01 0.0000000000000000e+00
0.0000000000000000e+00 5.0000000000000000e+01 0.0000000000000000e+00
ITEM: ATOMS id type x y z c_1[1] c_1[2] c_1[3] c_1[4] c_1[5] c_1[6] c_1[7] c_1[22]
1 2 0.378742 0.321535 0 -3.01803e+10 -3.06336e+10 -0 2.60236e+09 -0 -0 -nan -nan
2 2 0 0 0 -3.12858e+10 -1.59074e+10 -0 1.99726e+10 -0 -0 -nan -nan
3 2 0.5 0 0 -2.44867e+10 -3.09546e+10 -0 1.32348e+10 -0 -0 inf -nan
4 2 0.0001 0.5 0 -2.95117e+10 -1.05006e+10 -0 1.55053e+10 -0 -0 -nan -nan
