ITEM: TIMESTEP
0
ITEM: NUMBER OF ATOMS
665
ITEM: BOX BOUNDS xy xz yz pp pp pp
-1.0000000000000000e+01 1.0000000000000000e+01 0.0000000000000000e+00
-1.0000000000000000e+01 1.0000000000000000e+01 0.0000000000000000e+00
-1.0000000000000000e+01 1.0000000000000000e+01 0.0000000000000000e+00
ITEM: ATOMS id type x y z c_1[1] c_1[2] c_1[3] c_1[4] c_1[5] c_1[6] c_1[7] c_1[8] c_1[13] c_1[15] c_1[22]
1 2 -7.4 -9.25 -9.25 -9.55555e+06 -1.49864e+07 -1.49864e+07 3300.16 3300.16 -1.57198e+06 7.35562e+07 4.59756e+07 7.9175e+07 -95431.3 3.09892e+07
2 2 -3.7 -9.25 -9.25 -9.86731e+06 -1.49877e+07 -1.49877e+07 -0 -0 -1.57198e+06 9.56221e+07 4.6211e+07 7.92124e+07 1.63763e-302 3.12233e+07
3 2 0 -9.25 -9.25 -9.86731e+06 -1.49877e+07 -1.49877e+07 3.8667e-09 -1.82329e-09 -1.57198e+06 9.56221e+07 4.6211e+07 7.92124e+07 -3.79627e-08 3.12233e+07
4 2 3.7 -9.25 -9.25 -9.86731e+06 -1.49877e+07 -1.49877e+07 1.19272e-10 8.86998e-11 -1.57198e+06 9.56221e+07 4.6211e+07 7.92124e+07 -3.25912e-09 3.12233e+07
5 2 7.4 -9.25 -9.25 -9.55555e+06 -1.49864e+07 -1.49864e+07 -3300.16 -3300.16 -1.57198e+06 7.35562e+07 4.59756e+07 7.9175e+07 95431.3 3.09892e+07
6 2 -9.25 -7.4 -9.25 -1.49864e+07 -9.55555e+06 -1.49864e+07 3300.16 -1.57198e+06 3300.16 7.9175e+07 4.59756e+07 7.35562e+07 -580646 3.64201e+07
7 2 -5.55 -7.4 -9.25 -1.31209e+07 -1.30747e+07 -1.55173e+07 -0 -6.22571e-10 52.8918 6.39977e+07 6.07341e+07 5.93429e+07 1.70243e-302 4.76593e+07
8 2 -7.4 -5.55 -9.25 -1.30747e+07 -1.31209e+07 -1.55173e+07 -0 52.8918 -6.89144e-10 5.93429e+07 6.07341e+07 6.39977e+07 1.51327e-302 4.76132e+07
9 2 -1.85 -7.4 -9.25 -1.31209e+07 -1.30747e+07 -1.55173e+07 -0 6.22571e-10 52.8918 6.39977e+07 6.07341e+07 5.93429e+07 7.56636e-303 4.76593e+07
10 2 -3.7 -5.55 -9.25 -1.31209e+07 -1.31209e+07 -1.55173e+07 -0 -0 2.60305e-09 6.39977e+07 6.07341e+07 6.39977e+07 1.51327e-302 4.76132e+07
11 2 1.85 -7.4 -9.25 -1.31209e+07 -1.30747e+07 -1.55173e+07 -0 -1.42302e-09 52.8918 6.39977e+07 6.07341e+07 5.93429e+07 7.56636e-303 4.76593e+07
12 2 0 -5.55 -9.25 -1.31209e+07 -1.31209e+07 -1.55173e+07 -0 1.95665e-09 -6.50755e-11 6.39977e+07 6.07341e+07 6.39977e+07 2.13453e-09 4.76132e+07
13 2 5.55 -7.4 -9.25 -1.31209e+07 -1.30747e+07 -1.55173e+07 -0 -0 52.8918 6.39977e+07 6.07341e+07 5.93429e+07 7.56636e-303 4.76593e+07
14 2 3.7 -5.55 -9.25 -1.31209e+07 -1.31209e+07 -1.55173e+07 -0 -0 -6.89144e-10 6.39977e+07 6.07341e+07 6.39977e+07 1.70243e-302 4.76132e+07
15 2 9.25 -7.4 -9.25 -1.49864e+07 -9.55555e+06 -1.49864e+07 -3300.16 1.57198e+06 3300.16 7.9175e+07 4.59756e+07 7.35562e+07 580646 3.64201e+07
16 2 7.4 -5.55 -9.25 -1.30747e+07 -1.31209e+07 -1.55173e+07 2.13453e-09 -52.8918 1.35677e-09 5.93429e+07 6.07341e+07 6.39977e+07 -1.28072e-08 4.76132e+07
17 2 -9.25 -3.7 -9.25 -1.49877e+07 -9.86731e+06 -1.49877e+07 6.94833e-13 -1.57198e+06 1.25043e-11 7.92124e+07 4.6211e+07 9.56221e+07 -1.77877e-10 3.63437e+07
18 2 -5.55 -3.7 -9.25 -1.31209e+07 -1.31209e+07 -1.55173e+07 -0 2.66816e-09 -2.04759e-11 6.39977e+07 6.07341e+07 6.39977e+07 1.70243e-302 4.76132e+07
19 2 -7.4 -1.85 -9.25 -1.30747e+07 -1.31209e+07 -1.55173e+07 -0 52.8918 6.45022e-10 5.93429e+07 6.07341e+07 6.39977e+07 7.56636e-303 4.76132e+07
20 2 -1.85 -3.7 -9.25 -1.31209e+07 -1.31209e+07 -1.55173e+07 -0 -2.66816e-09 -2.04759e-11 6.39977e+07 6.07341e+07 6.39977e+07 1.51327e-302 4.76132e+07
21 2 -3.7 -1.85 -9.25 -1.31209e+07 -1.31209e+07 -1.55173e+07 -0 -0 -2.73308e-09 6.39977e+07 6.07341e+07 6.39977e+07 7.56636e-303 4.76132e+07
22 2 1.85 -3.7 -9.25 -1.31209e+07 -1.31209e+07 -1.55173e+07 -0 -2.49028e-09 -6.40984e-11 6.39977e+07 6.07341e+07 6.39977e+07 1.51327e-302 4.76132e+07
23 2 0 -1.85 -9.25 -1.31209e+07 -1.31209e+07 -1.55173e+07 -0 1.95665e-09 2.4026e-11 6.39977e+07 6.07341e+07 6.39977e+07 -2.13453e-09 4.76132e+07
24 2 5.55 -3.7 -9.25 -1.31209e+07 -1.31209e+07 -1.55173e+07 -0 2.84604e-09 2.19307e-11 6.39977e+07 6.07341e+07 6.39977e+07 1.51327e-302 4.76132e+07
25 2 3.7 -1.85 -9.25 -1.31209e+07 -1.31209e+07 -1.55173e+07 -0 -0 6.45033e-10 6.39977e+07 6.07341e+07 6.39977e+07 1.70243e-302 4.76132e+07
26 2 9.25 -3.7 -9.25 -1.49877e+07 -9.86731e+06 -1.49877e+07 4.44693e-11 1.57198e+06 -7.01836e-11 7.92124e+07 4.6211e+07 9.56221e+07 8.89387e-11 3.63437e+07
27 2 7.4 -1.85 -9.25 -1.30747e+07 -1.31209e+07 -1.55173e+07 -2.13453e-09 -52.8918 -1.40056e-09 5.93429e+07 6.07341e+07 6.39977e+07 1.28072e-08 4.76132e+07
28 2 -9.25 0 -9.25 -1.49877e+07 -9.86731e+06 -1.49877e+07 3.86744e-09 -1.57198e+06 -1.79688e-09 7.92124e+07 4.6211e+07 9.56221e+07 -3.65538e-08 3.63437e+07
29 2 -5.55 0 -9.25 -1.31209e+07 -1.31209e+07 -1.55173e+07 -0 -8.89387e-11 1.97986e-09 6.39977e+07 6.07341e+07 6.39977e+07 -0 4.76132e+07
30 2 -7.4 1.85 -9.25 -1.30747e+07 -1.31209e+07 -1.55173e+07 -0 52.8918 -1.48777e-09 5.93429e+07 6.07341e+07 6.39977e+07 7.56636e-303 4.76132e+07
31 2 -1.85 0 -9.25 -1.31209e+07 -1.31209e+07 -1.55173e+07 -0 8.89387e-11 1.97988e-09 6.39977e+07 6.07341e+07 6.39977e+07 -0 4.76132e+07
32 2 -3.7 1.85 -9.25 -1.31209e+07 -1.31209e+07 -1.55173e+07 -0 -0 -2.55343e-09 6.39977e+07 6.07341e+07 6.39977e+07 7.56636e-303 4.76132e+07
33 2 1.85 0 -9.25 -1.31209e+07 -1.31209e+07 -1.55173e+07 2.22347e-09 -2.93498e-09 2.95899e-09 6.39977e+07 6.07341e+07 6.39977e+07 -3.4864e-08 4.76132e+07
34 2 0 1.85 -9.25 -1.31209e+07 -1.31209e+07 -1.55173e+07 2.22347e-09 2.93498e-09 -2.99821e-09 6.39977e+07 6.07341e+07 6.39977e+07 -3.4864e-08 4.76132e+07
35 2 5.55 0 -9.25 -1.31209e+07 -1.31209e+07 -1.55173e+07 8.89387e-11 -4.00224e-10 1.08813e-09 6.39977e+07 6.07341e+07 6.39977e+07 4.26906e-09 4.76132e+07
36 2 3.7 1.85 -9.25 -1.31209e+07 -1.31209e+07 -1.55173e+07 -0 -0 -1.48777e-09 6.39977e+07 6.07341e+07 6.39977e+07 1.70243e-302 4.76132e+07
37 2 9.25 0 -9.25 -1.49877e+07 -9.86731e+06 -1.49877e+07 -1.64328e-09 1.57198e+06 -3.68311e-10 7.92124e+07 4.6211e+07 9.56221e+07 1.42302e-09 3.63437e+07
38 2 7.4 1.85 -9.25 -1.30747e+07 -1.31209e+07 -1.55173e+07 2.31241e-09 -52.8918 -2.64363e-09 5.93429e+07 6.07341e+07 6.39977e+07 -3.05949e-08 4.76132e+07
39 2 -9.25 3.7 -9.25 -1.49877e+07 -9.86731e+06 -1.49877e+07 1.20901e-10 -1.57198e+06 8.8689e-11 7.92124e+07 4.6211e+07 9.56221e+07 -1.84992e-08 3.63437e+07
40 2 -5.55 3.7 -9.25 -1.31209e+07 -1.31209e+07 -1.55173e+07 -0 -6.22571e-10 2.64797e-11 6.39977e+07 6.07341e+07 6.39977e+07 1.70243e-302 4.76132e+07
41 2 -7.4 5.55 -9.25 -1.30747e+07 -1.31209e+07 -1.55173e+07 -0 52.8918 -6.47281e-11 5.93429e+07 6.07341e+07 6.39977e+07 7.56636e-303 4.76132e+07
42 2 -1.85 3.7 -9.25 -1.31209e+07 -1.31209e+07 -1.55173e+07 -0 6.22571e-10 2.64905e-11 6.39977e+07 6.07341e+07 6.39977e+07 1.51327e-302 4.76132e+07
43 2 -3.7 5.55 -9.25 -1.31209e+07 -1.31209e+07 -1.55173e+07 -0 -0 2.78281e-09 6.39977e+07 6.07341e+07 6.39977e+07 7.56636e-303 4.76132e+07
44 2 1.85 3.7 -9.25 -1.31209e+07 -1.31209e+07 -1.55173e+07 -0 -1.42302e-09 2.72505e-11 6.39977e+07 6.07341e+07 6.39977e+07 1.51327e-302 4.76132e+07
45 2 0 5.55 -9.25 -1.31209e+07 -1.31209e+07 -1.55173e+07 8.89387e-11 1.06726e-09 -3.7432e-10 6.39977e+07 6.07341e+07 6.39977e+07 4.98057e-09 4.76132e+07
46 2 5.55 3.7 -9.25 -1.31209e+07 -1.31209e+07 -1.55173e+07 -0 -0 2.45797e-11 6.39977e+07 6.07341e+07 6.39977e+07 1.51327e-302 4.76132e+07
47 2 3.7 5.55 -9.25 -1.31209e+07 -1.31209e+07 -1.55173e+07 -0 4.44693e-11 -6.47281e-11 6.39977e+07 6.07341e+07 6.39977e+07 1.70243e-302 4.76132e+07
48 2 9.25 3.7 -9.25 -1.49877e+07 -9.86731e+06 -1.49877e+07 -3.19623e-11 1.57198e+06 4.5327e-13 7.92124e+07 4.6211e+07 9.56221e+07 1.84103e-08 3.63437e+07
49 2 7.4 5.55 -9.25 -1.30747e+07 -1.31209e+07 -1.55173e+07 -2.66816e-10 -52.8918 -1.5319e-09 5.93429e+07 6.07341e+07 6.39977e+07 1.77877e-08 4.76132e+07
50 2 -9.25 7.4 -9.25 -1.49864e+07 -9.55555e+06 -1.49864e+07 -3300.16 -1.57198e+06 -3300.16 7.9175e+07 4.59756e+07 7.35562e+07 580646 3.64201e+07
51 2 -5.55 7.4 -9.25 -1.31209e+07 -1.30747e+07 -1.55173e+07 2.13453e-09 1.33408e-09 -52.8918 6.39977e+07 6.07341e+07 5.93429e+07 -1.42302e-08 4.76593e+07
52 2 -7.4 9.25 -9.25 -9.55555e+06 -1.49864e+07 -1.49864e+07 -3300.16 3300.16 1.57198e+06 7.35562e+07 4.59756e+07 7.9175e+07 95431.3 3.09892e+07
53 2 -1.85 7.4 -9.25 -1.31209e+07 -1.30747e+07 -1.55173e+07 -2.13453e-09 -1.33408e-09 -52.8918 6.39977e+07 6.07341e+07 5.93429e+07 1.42302e-08 4.76593e+07
54 2 -3.7 9.25 -9.25 -9.86731e+06 -1.49877e+07 -1.49877e+07 -1.31991e-11 1.87578e-11 1.57198e+06 9.56221e+07 4.6211e+07 7.92124e+07 -1.56164e-10 3.12233e+07
55 2 1.85 7.4 -9.25 -1.31209e+07 -1.30747e+07 -1.55173e+07 2.31241e-09 -2.57922e-09 -52.8918 6.39977e+07 6.07341e+07 5.93429e+07 -2.98834e-08 4.76593e+07
56 2 0 9.25 -9.25 -9.86731e+06 -1.49877e+07 -1.49877e+07 -1.74676e-09 -2.79372e-10 1.57198e+06 9.56221e+07 4.6211e+07 7.92124e+07 2.94314e-09 3.12233e+07
57 2 5.55 7.4 -9.25 -1.31209e+07 -1.30747e+07 -1.55173e+07 -2.66816e-10 -1.55643e-09 -52.8918 6.39977e+07 6.07341e+07 5.93429e+07 1.70762e-08 4.76593e+07
58 2 3.7 9.25 -9.25 -9.86731e+06 -1.49877e+07 -1.49877e+07 -1.33166e-10 8.93919e-11 1.57198e+06 9.56221e+07 4.6211e+07 7.92124e+07 3.359e-09 3.12233e+07
59 2 9.25 7.4 -9.25 -1.49864e+07 -9.55555e+06 -1.49864e+07 3300.16 1.57198e+06 -3300.16 7.9175e+07 4.59756e+07 7.35562e+07 -580646 3.64201e+07
60 2 7.4 9.25 -9.25 -9.55555e+06 -1.49864e+07 -1.49864e+07 3300.16 -3300.16 1.57198e+06 7.35562e+07 4.59756e+07 7.9175e+07 -95431.3 3.09892e+07
61 2 -9.25 -9.25 -7.4 -1.49864e+07 -1.49864e+07 -9.55555e+06 -1.57198e+06 3300.16 3300.16 7.9175e+07 6.23229e+07 7.9175e+07 126768 4.73365e+07
62 2 -5.55 -9.25 -7.4 -1.31209e+07 -1.55173e+07 -1.30747e+07 -6.24373e-10 -0 52.8918 6.39977e+07 3.77393e+07 3.72889e+07 1.14484e-08 2.2222e+07
63 2 -7.4 -9.25 -5.55 -1.30747e+07 -1.55173e+07 -1.31209e+07 52.8918 -0 -9.78325e-10 5.93429e+07 3.77342e+07 3.72889e+07 -2063.15 2.22169e+07
64 2 -1.85 -9.25 -7.4 -1.31209e+07 -1.55173e+07 -1.30747e+07 6.2218e-10 -0 52.8918 6.39977e+07 3.77393e+07 3.72889e+07 -1.13703e-08 2.2222e+07
65 2 -3.7 -9.25 -5.55 -1.31209e+07 -1.55173e+07 -1.31209e+07 -2.04759e-11 -0 2.40134e-09 6.39977e+07 3.77393e+07 3.72897e+07 -2.48055e-10 2.22219e+07
66 2 1.85 -9.25 -7.4 -1.31209e+07 -1.55173e+07 -1.30747e+07 -6.57924e-09 -0 52.8918 6.39977e+07 3.77393e+07 3.72889e+07 5.61286e-08 2.2222e+07
67 2 0 -9.25 -5.55 -1.31209e+07 -1.55173e+07 -1.31209e+07 6.11508e-09 1.42302e-09 -1.51196e-09 6.39977e+07 3.77393e+07 3.72897e+07 -5.07207e-08 2.22219e+07
68 2 5.55 -9.25 -7.4 -1.31209e+07 -1.55173e+07 -1.30747e+07 4.12557e-13 8.89387e-11 52.8918 6.39977e+07 3.77393e+07 3.72889e+07 -5.70632e-09 2.2222e+07
69 2 3.7 -9.25 -5.55 -1.31209e+07 -1.55173e+07 -1.31209e+07 -1.80005e-11 -0 -9.78325e-10 6.39977e+07 3.77393e+07 3.72897e+07 -3.39079e-10 2.22219e+07
70 2 9.25 -9.25 -7.4 -1.49864e+07 -1.49864e+07 -9.55555e+06 1.57198e+06 -3300.16 3300.16 7.9175e+07 6.23229e+07 7.9175e+07 -126768 4.73365e+07
71 2 7.4 -9.25 -5.55 -1.30747e+07 -1.55173e+07 -1.31209e+07 -52.8918 3.46861e-09 -8.89387e-11 5.93429e+07 3.77342e+07 3.72889e+07 2063.15 2.22169e+07
72 2 -9.25 -5.55 -7.4 -1.55173e+07 -1.31209e+07 -1.30747e+07 -6.0229e-10 52.8918 -0 3.72889e+07 3.77393e+07 6.39977e+07 -8.64373e-10 2.46184e+07
73 2 -9.25 -7.4 -5.55 -1.55173e+07 -1.30747e+07 -1.31209e+07 52.8918 -8.00448e-10 -0 3.72889e+07 3.77342e+07 5.93429e+07 -12553.1 2.46594e+07
74 2 -7.4 -7.4 -7.4 -1.51491e+07 -1.51491e+07 -1.51491e+07 -0 -0 -0 1.40255e+07 1.39654e+07 1.40255e+07 1.89159e-303 -1.18362e+06
75 2 -5.55 -5.55 -7.4 -1.51588e+07 -1.51588e+07 -1.51491e+07 -7.11509e-10 -0 -0 1.52595e+07 1.39654e+07 1.52595e+07 3.55755e-09 -1.19336e+06
76 2 -5.55 -7.4 -5.55 -1.51588e+07 -1.51491e+07 -1.51588e+07 -0 -7.11509e-10 -0 1.52595e+07 1.39654e+07 1.40255e+07 9.45795e-303 -1.18362e+06
77 2 -7.4 -5.55 -5.55 -1.51491e+07 -1.51588e+07 -1.51588e+07 -0 -0 -7.11509e-10 1.40255e+07 1.39654e+07 1.52595e+07 7.56636e-303 -1.19336e+06
78 2 -3.7 -7.4 -7.4 -1.51588e+07 -1.51491e+07 -1.51491e+07 -0 -0 -0 1.52595e+07 1.39654e+07 1.40255e+07 1.89159e-303 -1.18362e+06
79 2 -1.85 -5.55 -7.4 -1.51588e+07 -1.51588e+07 -1.51491e+07 7.11509e-10 -0 -0 1.52595e+07 1.39654e+07 1.52595e+07 -3.55755e-09 -1.19336e+06
80 2 -1.85 -7.4 -5.55 -1.51588e+07 -1.51491e+07 -1.51588e+07 -0 7.11509e-10 -0 1.52595e+07 1.39654e+07 1.40255e+07 -0 -1.18362e+06
81 2 -3.7 -5.55 -5.55 -1.51588e+07 -1.51588e+07 -1.51588e+07 -0 -0 -7.11509e-10 1.52595e+07 1.39654e+07 1.52595e+07 7.56636e-303 -1.19336e+06
82 2 0 -7.4 -7.4 -1.51588e+07 -1.51491e+07 -1.51491e+07 -0 -0 -0 1.52595e+07 1.39654e+07 1.40255e+07 9.45795e-303 -1.18362e+06
83 2 1.85 -5.55 -7.4 -1.51588e+07 -1.51588e+07 -1.51491e+07 -7.11509e-10 -0 -0 1.52595e+07 1.39654e+07 1.52595e+07 7.11509e-10 -1.19336e+06
84 2 1.85 -7.4 -5.55 -1.51588e+07 -1.51491e+07 -1.51588e+07 -0 -7.11509e-10 -0 1.52595e+07 1.39654e+07 1.40255e+07 -0 -1.18362e+06
85 2 0 -5.55 -5.55 -1.51588e+07 -1.51588e+07 -1.51588e+07 7.11509e-10 7.11509e-10 -7.11509e-10 1.52595e+07 1.39654e+07 1.52595e+07 -7.11509e-10 -1.19336e+06
86 2 3.7 -7.4 -7.4 -1.51588e+07 -1.51491e+07 -1.51491e+07 -0 -0 -0 1.52595e+07 1.39654e+07 1.40255e+07 9.45795e-303 -1.18362e+06
87 2 5.55 -5.55 -7.4 -1.51588e+07 -1.51588e+07 -1.51491e+07 -3.55755e-10 -0 -0 1.52595e+07 1.39654e+07 1.52595e+07 2.13453e-09 -1.19336e+06
88 2 5.55 -7.4 -5.55 -1.51588e+07 -1.51491e+07 -1.51588e+07 -0 -3.55755e-10 -0 1.52595e+07 1.39654e+07 1.40255e+07 -0 -1.18362e+06
89 2 3.7 -5.55 -5.55 -1.51588e+07 -1.51588e+07 -1.51588e+07 -0 -0 -7.11509e-10 1.52595e+07 1.39654e+07 1.52595e+07 9.45795e-303 -1.19336e+06
90 2 7.4 -7.4 -7.4 -1.51491e+07 -1.51491e+07 -1.51491e+07 -0 -0 -0 1.40255e+07 1.39654e+07 1.40255e+07 9.45795e-303 -1.18362e+06
91 2 9.25 -5.55 -7.4 -1.55173e+07 -1.31209e+07 -1.30747e+07 -1.09219e-10 -52.8918 -8.89387e-11 3.72889e+07 3.77393e+07 6.39977e+07 8.64373e-10 2.46184e+07
92 2 9.25 -7.4 -5.55 -1.55173e+07 -1.30747e+07 -1.31209e+07 -52.8918 -0 -8.89387e-11 3.72889e+07 3.77342e+07 5.93429e+07 12553.1 2.46594e+07
93 2 7.4 -5.55 -5.55 -1.51491e+07 -1.51588e+07 -1.51588e+07 1.06726e-09 1.06726e-09 -7.11509e-10 1.40255e+07 1.39654e+07 1.52595e+07 -2.84604e-09 -1.19336e+06
94 2 -9.25 -1.85 -7.4 -1.55173e+07 -1.31209e+07 -1.30747e+07 5.11245e-10 52.8918 -0 3.72889e+07 3.77393e+07 6.39977e+07 1.60368e-09 2.46184e+07
95 2 -9.25 -3.7 -5.55 -1.55173e+07 -1.31209e+07 -1.31209e+07 -2.04542e-11 2.49028e-09 -0 3.72897e+07 3.77393e+07 6.39977e+07 -5.19735e-10 2.46184e+07
96 2 -7.4 -3.7 -7.4 -1.51491e+07 -1.51588e+07 -1.51491e+07 -0 -0 -0 1.40255e+07 1.39654e+07 1.52595e+07 9.45795e-303 -1.19336e+06
97 2 -5.55 -1.85 -7.4 -1.51588e+07 -1.51588e+07 -1.51491e+07 7.11509e-10 -0 -0 1.52595e+07 1.39654e+07 1.52595e+07 -3.55755e-09 -1.19336e+06
98 2 -5.55 -3.7 -5.55 -1.51588e+07 -1.51588e+07 -1.51588e+07 -0 -7.11509e-10 -0 1.52595e+07 1.39654e+07 1.52595e+07 9.45795e-303 -1.19336e+06
99 2 -7.4 -1.85 -5.55 -1.51491e+07 -1.51588e+07 -1.51588e+07 -0 -0 7.11509e-10 1.40255e+07 1.39654e+07 1.52595e+07 -0 -1.19336e+06
100 2 -3.7 -3.7 -7.4 -1.51588e+07 -1.51588e+07 -1.51491e+07 -0 -0 -0 1.52595e+07 1.39654e+07 1.52595e+07 9.45795e-303 -1.19336e+06
101 2 -1.85 -1.85 -7.4 -1.51588e+07 -1.51588e+07 -1.51491e+07 -7.11509e-10 -0 -0 1.52595e+07 1.39654e+07 1.52595e+07 3.55755e-09 -1.19336e+06
102 2 -1.85 -3.7 -5.55 -1.51588e+07 -1.51588e+07 -1.51588e+07 -0 7.11509e-10 -0 1.52595e+07 1.39654e+07 1.52595e+07 7.56636e-303 -1.19336e+06
103 2 -3.7 -1.85 -5.55 -1.51588e+07 -1.51588e+07 -1.51588e+07 -0 -0 7.11509e-10 1.52595e+07 1.39654e+07 1.52595e+07 -0 -1.19336e+06
104 2 0 -3.7 -7.4 -1.51588e+07 -1.51588e+07 -1.51491e+07 -0 -0 -0 1.52595e+07 1.39654e+07 1.52595e+07 9.45795e-303 -1.19336e+06
105 2 1.85 -1.85 -7.4 -1.51588e+07 -1.51588e+07 -1.51491e+07 7.11509e-10 -0 -0 1.52595e+07 1.39654e+07 1.52595e+07 -7.11509e-10 -1.19336e+06
106 2 1.85 -3.7 -5.55 -1.51588e+07 -1.51588e+07 -1.51588e+07 -0 -7.11509e-10 -0 1.52595e+07 1.39654e+07 1.52595e+07 7.56636e-303 -1.19336e+06
107 2 0 -1.85 -5.55 -1.51588e+07 -1.51588e+07 -1.51588e+07 -7.11509e-10 7.11509e-10 7.11509e-10 1.52595e+07 1.39654e+07 1.52595e+07 7.11509e-10 -1.19336e+06
108 2 3.7 -3.7 -7.4 -1.51588e+07 -1.51588e+07 -1.51491e+07 -0 -0 -0 1.52595e+07 1.39654e+07 1.52595e+07 9.45795e-303 -1.19336e+06
109 2 5.55 -1.85 -7.4 -1.51588e+07 -1.51588e+07 -1.51491e+07 3.55755e-10 -0 -0 1.52595e+07 1.39654e+07 1.52595e+07 -2.13453e-09 -1.19336e+06
110 2 5.55 -3.7 -5.55 -1.51588e+07 -1.51588e+07 -1.51588e+07 -0 -3.55755e-10 -0 1.52595e+07 1.39654e+07 1.52595e+07 7.56636e-303 -1.19336e+06
111 2 3.7 -1.85 -5.55 -1.51588e+07 -1.51588e+07 -1.51588e+07 -0 -0 7.11509e-10 1.52595e+07 1.39654e+07 1.52595e+07 9.45795e-303 -1.19336e+06
112 2 7.4 -3.7 -7.4 -1.51491e+07 -1.51588e+07 -1.51491e+07 -0 -0 -0 1.40255e+07 1.39654e+07 1.52595e+07 9.45795e-303 -1.19336e+06
113 2 9.25 -1.85 -7.4 -1.55173e+07 -1.31209e+07 -1.30747e+07 1.11325e-10 -52.8918 -8.89387e-11 3.72889e+07 3.77393e+07 6.39977e+07 -1.60368e-09 2.46184e+07
114 2 9.25 -3.7 -5.55 -1.55173e+07 -1.31209e+07 -1.31209e+07 -6.84628e-11 -3.29073e-09 -0 3.72897e+07 3.77393e+07 6.39977e+07 5.16956e-10 2.46184e+07
115 2 7.4 -1.85 -5.55 -1.51491e+07 -1.51588e+07 -1.51588e+07 -1.06726e-09 1.06726e-09 7.11509e-10 1.40255e+07 1.39654e+07 1.52595e+07 2.84604e-09 -1.19336e+06
116 2 -9.25 1.85 -7.4 -1.55173e+07 -1.31209e+07 -1.30747e+07 -6.69236e-09 52.8918 -0 3.72889e+07 3.77393e+07 6.39977e+07 1.13919e-07 2.46184e+07
117 2 -9.25 0 -5.55 -1.55173e+07 -1.31209e+07 -1.31209e+07 6.1151e-09 -1.51196e-09 1.42302e-09 3.72897e+07 3.77393e+07 6.39977e+07 -1.06279e-07 2.46184e+07
118 2 -7.4 0 -7.4 -1.51491e+07 -1.51588e+07 -1.51491e+07 -0 -0 -0 1.40255e+07 1.39654e+07 1.52595e+07 9.45795e-303 -1.19336e+06
119 2 -5.55 1.85 -7.4 -1.51588e+07 -1.51588e+07 -1.51491e+07 -7.11509e-10 -0 -0 1.52595e+07 1.39654e+07 1.52595e+07 1.42302e-09 -1.19336e+06
120 2 -5.55 0 -5.55 -1.51588e+07 -1.51588e+07 -1.51588e+07 7.11509e-10 -7.11509e-10 7.11509e-10 1.52595e+07 1.39654e+07 1.52595e+07 -1.42302e-09 -1.19336e+06
121 2 -7.4 1.85 -5.55 -1.51491e+07 -1.51588e+07 -1.51588e+07 -0 -0 -7.11509e-10 1.40255e+07 1.39654e+07 1.52595e+07 -0 -1.19336e+06
122 2 -3.7 0 -7.4 -1.51588e+07 -1.51588e+07 -1.51491e+07 -0 -0 -0 1.52595e+07 1.39654e+07 1.52595e+07 9.45795e-303 -1.19336e+06
123 2 -1.85 1.85 -7.4 -1.51588e+07 -1.51588e+07 -1.51491e+07 7.11509e-10 -0 -0 1.52595e+07 1.39654e+07 1.52595e+07 -1.42302e-09 -1.19336e+06
124 2 -1.85 0 -5.55 -1.51588e+07 -1.51588e+07 -1.51588e+07 -7.11509e-10 7.11509e-10 7.11509e-10 1.52595e+07 1.39654e+07 1.52595e+07 1.42302e-09 -1.19336e+06
125 2 -3.7 1.85 -5.55 -1.51588e+07 -1.51588e+07 -1.51588e+07 -0 -0 -7.11509e-10 1.52595e+07 1.39654e+07 1.52595e+07 -0 -1.19336e+06
126 2 0 0 -7.4 -1.51588e+07 -1.51588e+07 -1.51491e+07 -3.55755e-10 -0 -0 1.52595e+07 1.39654e+07 1.52595e+07 -7.11509e-10 -1.19336e+06
127 2 1.85 1.85 -7.4 -1.51588e+07 -1.51588e+07 -1.51491e+07 -3.55755e-10 -0 -0 1.52595e+07 1.39654e+07 1.52595e+07 -7.11509e-10 -1.19336e+06
128 2 1.85 0 -5.55 -1.51588e+07 -1.51588e+07 -1.51588e+07 3.55755e-10 -7.11509e-10 7.11509e-10 1.52595e+07 1.39654e+07 1.52595e+07 7.11509e-10 -1.19336e+06
129 2 0 1.85 -5.55 -1.51588e+07 -1.51588e+07 -1.51588e+07 3.55755e-10 7.11509e-10 -7.11509e-10 1.52595e+07 1.39654e+07 1.52595e+07 7.11509e-10 -1.19336e+06
130 2 3.7 0 -7.4 -1.51588e+07 -1.51588e+07 -1.51491e+07 -0 -0 -0 1.52595e+07 1.39654e+07 1.52595e+07 9.45795e-303 -1.19336e+06
131 2 5.55 1.85 -7.4 -1.51588e+07 -1.51588e+07 -1.51491e+07 3.55755e-10 -0 -0 1.52595e+07 1.39654e+07 1.52595e+07 -1.42302e-09 -1.19336e+06
132 2 5.55 0 -5.55 -1.51588e+07 -1.51588e+07 -1.51588e+07 -3.55755e-10 -3.55755e-10 7.11509e-10 1.52595e+07 1.39654e+07 1.52595e+07 1.42302e-09 -1.19336e+06
133 2 3.7 1.85 -5.55 -1.51588e+07 -1.51588e+07 -1.51588e+07 -0 -0 -7.11509e-10 1.52595e+07 1.39654e+07 1.52595e+07 9.45795e-303 -1.19336e+06
134 2 7.4 0 -7.4 -1.51491e+07 -1.51588e+07 -1.51491e+07 -0 -0 -0 1.40255e+07 1.39654e+07 1.52595e+07 -2.13453e-09 -1.19336e+06
135 2 9.25 1.85 -7.4 -1.55173e+07 -1.31209e+07 -1.30747e+07 6.20323e-09 -52.8918 -8.89387e-11 3.72889e+07 3.77393e+07 6.39977e+07 -1.15353e-07 2.46184e+07
136 2 9.25 0 -5.55 -1.55173e+07 -1.31209e+07 -1.31209e+07 -5.6704e-09 7.11509e-10 1.24514e-09 3.72897e+07 3.77393e+07 6.39977e+07 1.06988e-07 2.46184e+07
137 2 7.4 1.85 -5.55 -1.51491e+07 -1.51588e+07 -1.51588e+07 -0 1.06726e-09 -7.11509e-10 1.40255e+07 1.39654e+07 1.52595e+07 2.13453e-09 -1.19336e+06
138 2 -9.25 5.55 -7.4 -1.55173e+07 -1.31209e+07 -1.30747e+07 -1.13128e-10 52.8918 -2.66816e-10 3.72889e+07 3.77393e+07 6.39977e+07 1.90551e-08 2.46184e+07
139 2 -9.25 3.7 -5.55 -1.55173e+07 -1.31209e+07 -1.31209e+07 -1.79788e-11 -9.78325e-10 -0 3.72897e+07 3.77393e+07 6.39977e+07 -1.05893e-09 2.46184e+07
140 2 -7.4 3.7 -7.4 -1.51491e+07 -1.51588e+07 -1.51491e+07 -0 -0 -0 1.40255e+07 1.39654e+07 1.52595e+07 9.45795e-303 -1.19336e+06
141 2 -5.55 5.55 -7.4 -1.51588e+07 -1.51588e+07 -1.51491e+07 -3.55755e-10 -0 -0 1.52595e+07 1.39654e+07 1.52595e+07 2.84604e-09 -1.19336e+06
142 2 -5.55 3.7 -5.55 -1.51588e+07 -1.51588e+07 -1.51588e+07 -0 -7.11509e-10 -0 1.52595e+07 1.39654e+07 1.52595e+07 9.45795e-303 -1.19336e+06
143 2 -7.4 5.55 -5.55 -1.51491e+07 -1.51588e+07 -1.51588e+07 -0 -0 -3.55755e-10 1.40255e+07 1.39654e+07 1.52595e+07 -0 -1.19336e+06
144 2 -3.7 3.7 -7.4 -1.51588e+07 -1.51588e+07 -1.51491e+07 -0 -0 -0 1.52595e+07 1.39654e+07 1.52595e+07 9.45795e-303 -1.19336e+06
145 2 -1.85 5.55 -7.4 -1.51588e+07 -1.51588e+07 -1.51491e+07 3.55755e-10 -0 -0 1.52595e+07 1.39654e+07 1.52595e+07 -2.84604e-09 -1.19336e+06
146 2 -1.85 3.7 -5.55 -1.51588e+07 -1.51588e+07 -1.51588e+07 -0 7.11509e-10 -0 1.52595e+07 1.39654e+07 1.52595e+07 7.56636e-303 -1.19336e+06
147 2 -3.7 5.55 -5.55 -1.51588e+07 -1.51588e+07 -1.51588e+07 -0 -0 -3.55755e-10 1.52595e+07 1.39654e+07 1.52595e+07 -0 -1.19336e+06
148 2 0 3.7 -7.4 -1.51588e+07 -1.51588e+07 -1.51491e+07 -0 -0 -0 1.52595e+07 1.39654e+07 1.52595e+07 9.45795e-303 -1.19336e+06
149 2 1.85 5.55 -7.4 -1.51588e+07 -1.51588e+07 -1.51491e+07 3.55755e-10 -0 -0 1.52595e+07 1.39654e+07 1.52595e+07 -2.13453e-09 -1.19336e+06
150 2 1.85 3.7 -5.55 -1.51588e+07 -1.51588e+07 -1.51588e+07 -0 -7.11509e-10 -0 1.52595e+07 1.39654e+07 1.52595e+07 7.56636e-303 -1.19336e+06
151 2 0 5.55 -5.55 -1.51588e+07 -1.51588e+07 -1.51588e+07 -3.55755e-10 7.11509e-10 -3.55755e-10 1.52595e+07 1.39654e+07 1.52595e+07 2.13453e-09 -1.19336e+06
152 2 3.7 3.7 -7.4 -1.51588e+07 -1.51588e+07 -1.51491e+07 -0 -0 -0 1.52595e+07 1.39654e+07 1.52595e+07 9.45795e-303 -1.19336e+06
153 2 5.55 5.55 -7.4 -1.51588e+07 -1.51588e+07 -1.51491e+07 -1.06726e-09 -0 -0 1.52595e+07 1.39654e+07 1.52595e+07 2.84604e-09 -1.19336e+06
154 2 5.55 3.7 -5.55 -1.51588e+07 -1.51588e+07 -1.51588e+07 -0 -3.55755e-10 -0 1.52595e+07 1.39654e+07 1.52595e+07 7.56636e-303 -1.19336e+06
155 2 3.7 5.55 -5.55 -1.51588e+07 -1.51588e+07 -1.51588e+07 -0 -0 -3.55755e-10 1.52595e+07 1.39654e+07 1.52595e+07 9.45795e-303 -1.19336e+06
156 2 7.4 3.7 -7.4 -1.51491e+07 -1.51588e+07 -1.51491e+07 -0 -0 -0 1.40255e+07 1.39654e+07 1.52595e+07 9.45795e-303 -1.19336e+06
157 2 9.25 5.55 -7.4 -1.55173e+07 -1.31209e+07 -1.30747e+07 3.35474e-10 -52.8918 -8.89387e-11 3.72889e+07 3.77393e+07 6.39977e+07 -2.04809e-08 2.46184e+07
158 2 9.25 3.7 -5.55 -1.55173e+07 -1.31209e+07 -1.31209e+07 1.79571e-11 8.89387e-11 -8.89387e-11 3.72897e+07 3.77393e+07 6.39977e+07 1.06448e-09 2.46184e+07
159 2 7.4 5.55 -5.55 -1.51491e+07 -1.51588e+07 -1.51588e+07 7.11509e-10 1.06726e-09 -3.55755e-10 1.40255e+07 1.39654e+07 1.52595e+07 -7.11509e-10 -1.19336e+06
160 2 -9.25 9.25 -7.4 -1.49864e+07 -1.49864e+07 -9.55555e+06 1.57198e+06 3300.16 -3300.16 7.9175e+07 6.23229e+07 7.9175e+07 -126768 4.73365e+07
161 2 -9.25 7.4 -5.55 -1.55173e+07 -1.30747e+07 -1.31209e+07 -52.8918 -8.89387e-11 3.82436e-09 3.72889e+07 3.77342e+07 5.93429e+07 12553.1 2.46594e+07
162 2 -7.4 7.4 -7.4 -1.51491e+07 -1.51491e+07 -1.51491e+07 -0 -0 -0 1.40255e+07 1.39654e+07 1.40255e+07 1.89159e-303 -1.18362e+06
163 2 -5.55 9.25 -7.4 -1.31209e+07 -1.55173e+07 -1.30747e+07 -8.89387e-11 -0 -52.8918 6.39977e+07 3.77393e+07 3.72889e+07 -9.96113e-09 2.2222e+07
164 2 -5.55 7.4 -5.55 -1.51588e+07 -1.51491e+07 -1.51588e+07 1.06726e-09 -7.11509e-10 1.06726e-09 1.52595e+07 1.39654e+07 1.40255e+07 -4.26906e-09 -1.18362e+06
165 2 -7.4 9.25 -5.55 -1.30747e+07 -1.55173e+07 -1.31209e+07 -52.8918 -0 -0 5.93429e+07 3.77342e+07 3.72889e+07 2063.15 2.22169e+07
166 2 -3.7 7.4 -7.4 -1.51588e+07 -1.51491e+07 -1.51491e+07 -0 -0 -0 1.52595e+07 1.39654e+07 1.40255e+07 1.89159e-303 -1.18362e+06
167 2 -1.85 9.25 -7.4 -1.31209e+07 -1.55173e+07 -1.30747e+07 8.89387e-11 -0 -52.8918 6.39977e+07 3.77393e+07 3.72889e+07 9.96113e-09 2.2222e+07
168 2 -1.85 7.4 -5.55 -1.51588e+07 -1.51491e+07 -1.51588e+07 -1.06726e-09 7.11509e-10 1.06726e-09 1.52595e+07 1.39654e+07 1.40255e+07 4.26906e-09 -1.18362e+06
169 2 -3.7 9.25 -5.55 -1.31209e+07 -1.55173e+07 -1.31209e+07 2.04542e-11 -0 -3.29073e-09 6.39977e+07 3.77393e+07 3.72897e+07 2.48055e-10 2.22219e+07
170 2 0 7.4 -7.4 -1.51588e+07 -1.51491e+07 -1.51491e+07 -0 -0 -0 1.52595e+07 1.39654e+07 1.40255e+07 -2.84604e-09 -1.18362e+06
171 2 1.85 9.25 -7.4 -1.31209e+07 -1.55173e+07 -1.30747e+07 6.22571e-09 -0 -52.8918 6.39977e+07 3.77393e+07 3.72889e+07 -5.69207e-08 2.2222e+07
172 2 1.85 7.4 -5.55 -1.51588e+07 -1.51491e+07 -1.51588e+07 -0 -7.11509e-10 1.06726e-09 1.52595e+07 1.39654e+07 1.40255e+07 2.84604e-09 -1.18362e+06
173 2 0 9.25 -5.55 -1.31209e+07 -1.55173e+07 -1.31209e+07 -5.6704e-09 1.33408e-09 6.22571e-10 6.39977e+07 3.77393e+07 3.72897e+07 5.1433e-08 2.22219e+07
174 2 3.7 7.4 -7.4 -1.51588e+07 -1.51491e+07 -1.51491e+07 -0 -0 -0 1.52595e+07 1.39654e+07 1.40255e+07 1.89159e-303 -1.18362e+06
175 2 5.55 9.25 -7.4 -1.31209e+07 -1.55173e+07 -1.30747e+07 3.55755e-10 -0 -52.8918 6.39977e+07 3.77393e+07 3.72889e+07 4.26906e-09 2.2222e+07
176 2 5.55 7.4 -5.55 -1.51588e+07 -1.51491e+07 -1.51588e+07 7.11509e-10 -3.55755e-10 1.06726e-09 1.52595e+07 1.39654e+07 1.40255e+07 -1.42302e-09 -1.18362e+06
177 2 3.7 9.25 -5.55 -1.31209e+07 -1.55173e+07 -1.31209e+07 1.79788e-11 -0 -0 6.39977e+07 3.77393e+07 3.72897e+07 3.39079e-10 2.22219e+07
178 2 7.4 7.4 -7.4 -1.51491e+07 -1.51491e+07 -1.51491e+07 -7.11509e-10 -0 -0 1.40255e+07 1.39654e+07 1.40255e+07 -1.42302e-09 -1.18362e+06
179 2 9.25 9.25 -7.4 -1.49864e+07 -1.49864e+07 -9.55555e+06 -1.57198e+06 -3300.16 -3300.16 7.9175e+07 6.23229e+07 7.9175e+07 126768 4.73365e+07
180 2 9.25 7.4 -5.55 -1.55173e+07 -1.30747e+07 -1.31209e+07 52.8918 -7.11509e-10 3.64649e-09 3.72889e+07 3.77342e+07 5.93429e+07 -12553.1 2.46594e+07
181 2 7.4 9.25 -5.55 -1.30747e+07 -1.55173e+07 -1.31209e+07 52.8918 3.46861e-09 -8.00448e-10 5.93429e+07 3.77342e+07 3.72889e+07 -2063.15 2.22169e+07
182 2 -9.25 -9.25 -3.7 -1.49877e+07 -1.49877e+07 -9.86731e+06 -1.57198e+06 -0 -8.89387e-11 7.92124e+07 6.23233e+07 7.92124e+07 127159 4.73356e+07
183 2 -5.55 -9.25 -3.7 -1.31209e+07 -1.55173e+07 -1.31209e+07 2.66619e-09 -8.89387e-11 -2.66816e-10 6.39977e+07 3.77393e+07 3.72897e+07 -8.46654e-09 2.22219e+07
184 2 -7.4 -9.25 -1.85 -1.30747e+07 -1.55173e+07 -1.31209e+07 52.8918 -0 7.11509e-10 5.93429e+07 3.77342e+07 3.72889e+07 -2063.15 2.22169e+07
185 2 -1.85 -9.25 -3.7 -1.31209e+07 -1.55173e+07 -1.31209e+07 -2.66836e-09 8.89387e-11 -2.66816e-10 6.39977e+07 3.77393e+07 3.72897e+07 8.54575e-09 2.22219e+07
186 2 -3.7 -9.25 -1.85 -1.31209e+07 -1.55173e+07 -1.31209e+07 -2.04759e-11 -0 -2.84604e-09 6.39977e+07 3.77393e+07 3.72897e+07 -2.47708e-10 2.22219e+07
187 2 1.85 -9.25 -3.7 -1.31209e+07 -1.55173e+07 -1.31209e+07 -5.51201e-09 -8.89387e-11 -2.66816e-10 6.39977e+07 3.77393e+07 3.72897e+07 4.47469e-08 2.22219e+07
188 2 0 -9.25 -1.85 -1.31209e+07 -1.55173e+07 -1.31209e+07 6.02614e-09 -1.33408e-09 1.06726e-09 6.39977e+07 3.77393e+07 3.72897e+07 -5.07211e-08 2.22219e+07
189 2 5.55 -9.25 -3.7 -1.31209e+07 -1.55173e+07 -1.31209e+07 2.84644e-09 8.89387e-11 -2.66816e-10 6.39977e+07 3.77393e+07 3.72897e+07 -2.27825e-08 2.22219e+07
190 2 3.7 -9.25 -1.85 -1.31209e+07 -1.55173e+07 -1.31209e+07 -1.79788e-11 -0 7.11509e-10 6.39977e+07 3.77393e+07 3.72897e+07 -3.39426e-10 2.22219e+07
191 2 9.25 -9.25 -3.7 -1.49877e+07 -1.49877e+07 -9.86731e+06 1.57198e+06 -4.44693e-11 -8.89387e-11 7.92124e+07 6.23233e+07 7.92124e+07 -127159 4.73356e+07
192 2 7.4 -9.25 -1.85 -1.30747e+07 -1.55173e+07 -1.31209e+07 -52.8918 -3.55755e-09 -3.55755e-10 5.93429e+07 3.77342e+07 3.72889e+07 2063.15 2.22169e+07
193 2 -9.25 -5.55 -3.7 -1.55173e+07 -1.31209e+07 -1.31209e+07 2.68686e-09 -2.66816e-10 -8.89387e-11 3.72897e+07 3.77393e+07 6.39977e+07 -2.61396e-08 2.46184e+07
194 2 -9.25 -7.4 -1.85 -1.55173e+07 -1.30747e+07 -1.31209e+07 52.8918 6.22571e-10 -0 3.72889e+07 3.77342e+07 5.93429e+07 -12553.1 2.46594e+07
195 2 -7.4 -7.4 -3.7 -1.51491e+07 -1.51491e+07 -1.51588e+07 -0 -0 -0 1.40255e+07 1.39654e+07 1.40255e+07 1.89159e-303 -1.18362e+06
196 2 -5.55 -5.55 -3.7 -1.51588e+07 -1.51588e+07 -1.51588e+07 -7.11509e-10 -0 -0 1.52595e+07 1.39654e+07 1.52595e+07 3.55755e-09 -1.19336e+06
197 2 -5.55 -7.4 -1.85 -1.51588e+07 -1.51491e+07 -1.51588e+07 -0 7.11509e-10 -0 1.52595e+07 1.39654e+07 1.40255e+07 1.13495e-302 -1.18362e+06
198 2 -7.4 -5.55 -1.85 -1.51491e+07 -1.51588e+07 -1.51588e+07 -0 -0 7.11509e-10 1.40255e+07 1.39654e+07 1.52595e+07 1.13495e-302 -1.19336e+06
199 2 -3.7 -7.4 -3.7 -1.51588e+07 -1.51491e+07 -1.51588e+07 -0 -0 -0 1.52595e+07 1.39654e+07 1.40255e+07 1.89159e-303 -1.18362e+06
200 2 -1.85 -5.55 -3.7 -1.51588e+07 -1.51588e+07 -1.51588e+07 7.11509e-10 -0 -0 1.52595e+07 1.39654e+07 1.52595e+07 -3.55755e-09 -1.19336e+06
201 2 -1.85 -7.4 -1.85 -1.51588e+07 -1.51491e+07 -1.51588e+07 -0 -7.11509e-10 -0 1.52595e+07 1.39654e+07 1.40255e+07 3.78318e-303 -1.18362e+06
202 2 -3.7 -5.55 -1.85 -1.51588e+07 -1.51588e+07 -1.51588e+07 -0 -0 7.11509e-10 1.52595e+07 1.39654e+07 1.52595e+07 1.13495e-302 -1.19336e+06
203 2 0 -7.4 -3.7 -1.51588e+07 -1.51491e+07 -1.51588e+07 -0 -0 -0 1.52595e+07 1.39654e+07 1.40255e+07 9.45795e-303 -1.18362e+06
204 2 1.85 -5.55 -3.7 -1.51588e+07 -1.51588e+07 -1.51588e+07 -7.11509e-10 -0 -0 1.52595e+07 1.39654e+07 1.52595e+07 7.11509e-10 -1.19336e+06