ITEM: TIMESTEP
0
ITEM: NUMBER OF ATOMS
3
ITEM: BOX BOUNDS xy xz yz pp pp pp
0.0000000000000000e+00 5.0000000000000000e+01 0.0000000000000000e+00
0.0000000000000000e+00 5.0000000000000000e+01 0.0000000000000000e+00
0.0000000000000000e+00 5.0000000000000000e+01 0.0000000000000000e+00
ITEM: ATOMS id type x y z c_1[1] c_1[2] c_1[3] c_1[4] c_1[5] c_1[6] c_1[7] c_1[22]
1 2 0.378614 0.321535 0 -2.96565e+08 -5.10053e+08 -0 -8.72824e+07 -0 -0 1.25916e+09 -1.66773e+09
2 2 0 0 0 -7.63391e+08 -1.79955e+08 -0 -2.11901e+08 -0 -0 -1.59138e+09 -1.42112e+09
3 2 0.5 0 0 -5.60919e+08 -3.30098e+08 -0 1.24619e+08 -0 -0 -2.92084e+09 -2.46611e+08
ITEM: TIMESTEP
1
ITEM: NUMBER OF ATOMS
3
ITEM: BOX BOUNDS xy xz yz pp pp pp
0.0000000000000000e+00 5.5000000000000000e+01 5.0000000000000000e+00
0.0000000000000000e+00 5.0000000000000000e+01 0.0000000000000000e+00
0.0000000000000000e+00 5.0000000000000000e+01 0.0000000000000000e+00
ITEM: ATOMS id type x y z c_1[1] c_1[2] c_1[3] c_1[4] c_1[5] c_1[6] c_1[7] c_1[22]
1 2 0.410767 0.321535 0 -2.96565e+08 -5.10053e+08 -0 -8.72824e+07 -0 -0 1.25916e+09 -1.66791e+09
2 2 0 0 0 -7.63391e+08 -1.79955e+08 -0 -2.11901e+08 -0 -0 -1.59138e+09 -1.4213e+09
3 2 0.5 0 0 -5.60919e+08 -3.30098e+08 -0 1.24619e+08 -0 -0 -2.92084e+09 -2.46611e+08
ITEM: TIMESTEP
2
ITEM: NUMBER OF ATOMS
3
ITEM: BOX BOUNDS xy xz yz pp pp pp
0.0000000000000000e+00 6.0000000000000000e+01 1.0000000000000000e+01
0.0000000000000000e+00 5.0000000000000000e+01 0.0000000000000000e+00
0.0000000000000000e+00 5.0000000000000000e+01 0.0000000000000000e+00
ITEM: ATOMS id type x y z c_1[1] c_1[2] c_1[3] c_1[4] c_1[5] c_1[6] c_1[7] c_1[22]
1 2 0.442921 0.321535 0 -6.02277e+08 -7.02796e+08 -0 -3.53108e+08 -0 -0 1.82739e+09 -3.06971e+09
2 2 0 0 0 -9.1776e+08 -3.52497e+08 -0 -4.50323e+08 -0 -0 2.3715e+09 -2.76943e+09
3 2 0.5 0 0 -3.69442e+08 -3.50299e+08 -0 9.72152e+07 -0 -0 4.97859e+08 -3.00284e+08
ITEM: TIMESTEP
3
ITEM: NUMBER OF ATOMS
3
ITEM: BOX BOUNDS xy xz yz pp pp pp
0.0000000000000000e+00 6.5000000000000000e+01 1.5000000000000000e+01
0.0000000000000000e+00 5.0000000000000000e+01 0.0000000000000000e+00
0.0000000000000000e+00 5.0000000000000000e+01 0.0000000000000000e+00
ITEM: ATOMS id type x y z c_1[1] c_1[2] c_1[3] c_1[4] c_1[5] c_1[6] c_1[7] c_1[22]
1 2 0.475074 0.321535 0 -9.0154e+08 -8.3467e+08 -0 -5.81193e+08 -0 -0 7.381e+08 -1.07962e+09
2 2 0 0 0 -1.23248e+09 -4.69031e+08 -0 -6.46101e+08 -0 -0 1.26991e+09 -7.36039e+08
3 2 0.5 0 0 -3.53985e+08 -3.65638e+08 -0 6.49083e+07 -0 -0 5.10159e+08 -3.43581e+08
ITEM: TIMESTEP
4
ITEM: NUMBER OF ATOMS
3
ITEM: BOX BOUNDS xy xz yz pp pp pp
0.0000000000000000e+00 7.0000000000000000e+01 2.0000000000000000e+01
0.0000000000000000e+00 5.0000000000000000e+01 0.0000000000000000e+00
0.0000000000000000e+00 5.0000000000000000e+01 0.0000000000000000e+00
ITEM: ATOMS id type x y z c_1[1] c_1[2] c_1[3] c_1[4] c_1[5] c_1[6] c_1[7] c_1[22]
1 2 0.507228 0.321535 0 -8.48223e+08 -7.62274e+08 -0 -5.43509e+08 -0 -0 3.0167e+08 1.7188e+09
2 2 0 0 0 -1.18843e+09 -3.87514e+08 -0 -5.72561e+08 -0 -0 8.24882e+08 2.08916e+09
3 2 0.5 0 0 -3.44715e+08 -3.74759e+08 -0 2.90516e+07 -0 -0 5.18761e+08 -3.70367e+08
ITEM: TIMESTEP
5
ITEM: NUMBER OF ATOMS
3
ITEM: BOX BOUNDS xy xz yz pp pp pp
0.0000000000000000e+00 7.5000000000000000e+01 2.5000000000000000e+01
0.0000000000000000e+00 5.0000000000000000e+01 0.0000000000000000e+00
0.0000000000000000e+00 5.0000000000000000e+01 0.0000000000000000e+00
ITEM: ATOMS id type x y z c_1[1] c_1[2] c_1[3] c_1[4] c_1[5] c_1[6] c_1[7] c_1[22]
1 2 0.539381 0.321535 0 -4.3567e+08 -5.51772e+08 -0 -2.84523e+08 -0 -0 6.17549e+08 3.18203e+09
2 2 0 0 0 -7.77943e+08 -1.74992e+08 -0 -2.76053e+08 -0 -0 1.13873e+09 3.55844e+09
3 2 0.5 0 0 -3.42653e+08 -3.7678e+08 -0 -8.46975e+06 -0 -0 5.20796e+08 -3.76408e+08
ITEM: TIMESTEP
6
ITEM: NUMBER OF ATOMS
3
ITEM: BOX BOUNDS xy xz yz pp pp pp
0.0000000000000000e+00 8.0000000000000000e+01 3.0000000000000000e+01
0.0000000000000000e+00 5.0000000000000000e+01 0.0000000000000000e+00
0.0000000000000000e+00 5.0000000000000000e+01 0.0000000000000000e+00
ITEM: ATOMS id type x y z c_1[1] c_1[2] c_1[3] c_1[4] c_1[5] c_1[6] c_1[7] c_1[22]
1 2 0.571535 0.321535 0 -5.57291e+06 -3.71498e+08 -0 -4.55008e+07 -0 -0 -5.41094e+06 -3.60701e+08
2 2 0 0 0 -3.42463e+08 -0 -0 -0 -0 -0 5.20986e+08 -0
3 2 0.5 0 0 -3.48036e+08 -3.71498e+08 -0 -4.55008e+07 -0 -0 5.15575e+08 -3.60701e+08
ITEM: TIMESTEP
7
ITEM: NUMBER OF ATOMS
3
ITEM: BOX BOUNDS xy xz yz pp pp pp
-1.5000000000000000e+01 5.0000000000000000e+01 -1.5000000000000000e+01
0.0000000000000000e+00 5.0000000000000000e+01 0.0000000000000000e+00
0.0000000000000000e+00 5.0000000000000000e+01 0.0000000000000000e+00
ITEM: ATOMS id type x y z c_1[1] c_1[2] c_1[3] c_1[4] c_1[5] c_1[6] c_1[7] c_1[22]
1 2 0.603688 0.321535 0 -1.77911e+07 -3.59438e+08 -0 -7.99675e+07 -0 -0 -1.61269e+07 -3.25816e+08
2 2 0 0 0 -3.42463e+08 -0 -0 -0 -0 -0 5.20986e+08 -0
3 2 0.5 0 0 -3.60254e+08 -3.59438e+08 -0 -7.99675e+07 -0 -0 5.04859e+08 -3.25816e+08
ITEM: TIMESTEP
8
ITEM: NUMBER OF ATOMS
3
ITEM: BOX BOUNDS xy xz yz pp pp pp
-1.0000000000000000e+01 5.0000000000000000e+01 -1.0000000000000000e+01
0.0000000000000000e+00 5.0000000000000000e+01 0.0000000000000000e+00
0.0000000000000000e+00 5.0000000000000000e+01 0.0000000000000000e+00
ITEM: ATOMS id type x y z c_1[1] c_1[2] c_1[3] c_1[4] c_1[5] c_1[6] c_1[7] c_1[22]
1 2 0.635842 0.321535 0 -3.55371e+07 -3.41727e+08 -0 -1.102e+08 -0 -0 -2.88106e+07 -2.77044e+08
2 2 0 0 0 -3.42463e+08 -0 -0 -0 -0 -0 5.20986e+08 -0
3 2 0.5 0 0 -3.78e+08 -3.41727e+08 -0 -1.102e+08 -0 -0 4.92176e+08 -2.77044e+08
ITEM: TIMESTEP
9
ITEM: NUMBER OF ATOMS
3
ITEM: BOX BOUNDS xy xz yz pp pp pp
-5.0000000000000000e+00 5.0000000000000000e+01 -5.0000000000000000e+00
0.0000000000000000e+00 5.0000000000000000e+01 0.0000000000000000e+00
0.0000000000000000e+00 5.0000000000000000e+01 0.0000000000000000e+00
ITEM: ATOMS id type x y z c_1[1] c_1[2] c_1[3] c_1[4] c_1[5] c_1[6] c_1[7] c_1[22]
1 2 0.667995 0.321535 0 -5.70889e+07 -3.19846e+08 -0 -1.35128e+08 -0 -0 -3.94145e+07 -2.20824e+08
2 2 0 0 0 -3.42463e+08 -0 -0 -0 -0 -0 5.20986e+08 -0
3 2 0.5 0 0 -3.99552e+08 -3.19846e+08 -0 -1.35128e+08 -0 -0 4.81572e+08 -2.20824e+08
ITEM: TIMESTEP
10
ITEM: NUMBER OF ATOMS
3
ITEM: BOX BOUNDS xy xz yz pp pp pp
0.0000000000000000e+00 5.0000000000000000e+01 0.0000000000000000e+00
0.0000000000000000e+00 5.0000000000000000e+01 0.0000000000000000e+00
0.0000000000000000e+00 5.0000000000000000e+01 0.0000000000000000e+00
ITEM: ATOMS id type x y z c_1[1] c_1[2] c_1[3] c_1[4] c_1[5] c_1[6] c_1[7] c_1[22]
1 2 0.700149 0.321535 0 -8.06282e+07 -2.95358e+08 -0 -1.54319e+08 -0 -0 -4.45482e+07 -1.63189e+08
2 2 0 0 0 -3.42463e+08 -0 -0 -0 -0 -0 5.20986e+08 -0
3 2 0.5 0 0 -4.23091e+08 -2.95358e+08 -0 -1.54319e+08 -0 -0 4.76438e+08 -1.63189e+08
ITEM: TIMESTEP
11
ITEM: NUMBER OF ATOMS
3
ITEM: BOX BOUNDS xy xz yz pp pp pp
0.0000000000000000e+00 5.5000000000000000e+01 5.0000000000000000e+00
0.0000000000000000e+00 5.0000000000000000e+01 0.0000000000000000e+00
0.0000000000000000e+00 5.0000000000000000e+01 0.0000000000000000e+00
ITEM: ATOMS id type x y z c_1[1] c_1[2] c_1[3] c_1[4] c_1[5] c_1[6] c_1[7] c_1[22]
1 2 0.732302 0.321535 0 -1.04499e+08 -2.69687e+08 -0 -1.67875e+08 -0 -0 -4.21499e+07 -1.08779e+08
2 2 0 0 0 -3.42463e+08 -0 -0 -0 -0 -0 5.20986e+08 -0
3 2 0.5 0 0 -4.46961e+08 -2.69687e+08 -0 -1.67875e+08 -0 -0 4.78837e+08 -1.08779e+08
ITEM: TIMESTEP
12
ITEM: NUMBER OF ATOMS
3
ITEM: BOX BOUNDS xy xz yz pp pp pp
0.0000000000000000e+00 6.0000000000000000e+01 1.0000000000000000e+01
0.0000000000000000e+00 5.0000000000000000e+01 0.0000000000000000e+00
0.0000000000000000e+00 5.0000000000000000e+01 0.0000000000000000e+00
ITEM: ATOMS id type x y z c_1[1] c_1[2] c_1[3] c_1[4] c_1[5] c_1[6] c_1[7] c_1[22]
1 2 0.764456 0.321535 0 -1.27359e+08 -2.43993e+08 -0 -1.7628e+08 -0 -0 -3.15913e+07 -6.05224e+07
2 2 0 0 0 -3.42463e+08 -0 -0 -0 -0 -0 5.20986e+08 -0
3 2 0.5 0 0 -4.69822e+08 -2.43993e+08 -0 -1.7628e+08 -0 -0 4.89395e+08 -6.05224e+07
ITEM: TIMESTEP
13
ITEM: NUMBER OF ATOMS
3
ITEM: BOX BOUNDS xy xz yz pp pp pp
0.0000000000000000e+00 6.5000000000000000e+01 1.5000000000000000e+01
0.0000000000000000e+00 5.0000000000000000e+01 0.0000000000000000e+00
0.0000000000000000e+00 5.0000000000000000e+01 0.0000000000000000e+00
ITEM: ATOMS id type x y z c_1[1] c_1[2] c_1[3] c_1[4] c_1[5] c_1[6] c_1[7] c_1[22]
1 2 0.796609 0.321535 0 -1.48236e+08 -2.1913e+08 -0 -1.8023e+08 -0 -0 -1.33972e+07 -1.98045e+07
2 2 0 0 0 -3.42463e+08 -0 -0 -0 -0 -0 5.20986e+08 -0
3 2 0.5 0 0 -4.90698e+08 -2.1913e+08 -0 -1.8023e+08 -0 -0 5.07589e+08 -1.98045e+07
ITEM: TIMESTEP
14
ITEM: NUMBER OF ATOMS
3
ITEM: BOX BOUNDS xy xz yz pp pp pp
0.0000000000000000e+00 7.0000000000000000e+01 2.0000000000000000e+01
0.0000000000000000e+00 5.0000000000000000e+01 0.0000000000000000e+00
0.0000000000000000e+00 5.0000000000000000e+01 0.0000000000000000e+00
ITEM: ATOMS id type x y z c_1[1] c_1[2] c_1[3] c_1[4] c_1[5] c_1[6] c_1[7] c_1[22]
1 2 0.828763 0.321535 0 -1.66507e+08 -1.95667e+08 -0 -1.80499e+08 -0 -0 1.11709e+07 1.31272e+07
2 2 0 0 0 -3.42463e+08 -0 -0 -0 -0 -0 5.20986e+08 -0
3 2 0.5 0 0 -5.08969e+08 -1.95667e+08 -0 -1.80499e+08 -0 -0 5.32157e+08 1.31272e+07
ITEM: TIMESTEP
15
ITEM: NUMBER OF ATOMS
3
ITEM: BOX BOUNDS xy xz yz pp pp pp
0.0000000000000000e+00 7.5000000000000000e+01 2.5000000000000000e+01
0.0000000000000000e+00 5.0000000000000000e+01 0.0000000000000000e+00
0.0000000000000000e+00 5.0000000000000000e+01 0.0000000000000000e+00
ITEM: ATOMS id type x y z c_1[1] c_1[2] c_1[3] c_1[4] c_1[5] c_1[6] c_1[7] c_1[22]
1 2 0.860916 0.321535 0 -1.81844e+08 -1.73936e+08 -0 -1.77846e+08 -0 -0 4.05006e+07 3.87394e+07
2 2 0 0 0 -3.42463e+08 -0 -0 -0 -0 -0 5.20986e+08 -0
3 2 0.5 0 0 -5.24307e+08 -1.73936e+08 -0 -1.77846e+08 -0 -0 5.61487e+08 3.87394e+07
ITEM: TIMESTEP
16
ITEM: NUMBER OF ATOMS
3
ITEM: BOX BOUNDS xy xz yz pp pp pp
0.0000000000000000e+00 8.0000000000000000e+01 3.0000000000000000e+01
0.0000000000000000e+00 5.0000000000000000e+01 0.0000000000000000e+00
0.0000000000000000e+00 5.0000000000000000e+01 0.0000000000000000e+00
ITEM: ATOMS id type x y z c_1[1] c_1[2] c_1[3] c_1[4] c_1[5] c_1[6] c_1[7] c_1[22]
1 2 0.893069 0.321535 0 -1.94148e+08 -1.5409e+08 -0 -1.72963e+08 -0 -0 7.29364e+07 5.78879e+07
2 2 0 0 0 -3.42463e+08 -0 -0 -0 -0 -0 5.20986e+08 -0
3 2 0.5 0 0 -5.36611e+08 -1.5409e+08 -0 -1.72963e+08 -0 -0 5.93923e+08 5.78879e+07
ITEM: TIMESTEP
17
ITEM: NUMBER OF ATOMS
3
ITEM: BOX BOUNDS xy xz yz pp pp pp
-1.5000000000000000e+01 5.0000000000000000e+01 -1.5000000000000000e+01
0.0000000000000000e+00 5.0000000000000000e+01 0.0000000000000000e+00
0.0000000000000000e+00 5.0000000000000000e+01 0.0000000000000000e+00
ITEM: ATOMS id type x y z c_1[1] c_1[2] c_1[3] c_1[4] c_1[5] c_1[6] c_1[7] c_1[22]
1 2 0.925223 0.321535 0 -2.03479e+08 -1.36156e+08 -0 -1.66448e+08 -0 -0 1.06938e+08 7.15563e+07
2 2 0 0 0 -3.42463e+08 -0 -0 -0 -0 -0 5.20986e+08 -0
3 2 0.5 0 0 -5.45942e+08 -1.36156e+08 -0 -1.66448e+08 -0 -0 6.27924e+08 7.15563e+07
ITEM: TIMESTEP
18
ITEM: NUMBER OF ATOMS
3
ITEM: BOX BOUNDS xy xz yz pp pp pp
-1.0000000000000000e+01 5.0000000000000000e+01 -1.0000000000000000e+01
0.0000000000000000e+00 5.0000000000000000e+01 0.0000000000000000e+00
0.0000000000000000e+00 5.0000000000000000e+01 0.0000000000000000e+00
ITEM: ATOMS id type x y z c_1[1] c_1[2] c_1[3] c_1[4] c_1[5] c_1[6] c_1[7] c_1[22]
1 2 0.957376 0.321535 0 -2.10006e+08 -1.20075e+08 -0 -1.58797e+08 -0 -0 1.41189e+08 8.07278e+07
2 2 0 0 0 -3.42463e+08 -0 -0 -0 -0 -0 5.20986e+08 -0
3 2 0.5 0 0 -5.52469e+08 -1.20075e+08 -0 -1.58797e+08 -0 -0 6.62175e+08 8.07278e+07
ITEM: TIMESTEP
19
ITEM: NUMBER OF ATOMS
3
ITEM: BOX BOUNDS xy xz yz pp pp pp
-5.0000000000000000e+00 5.0000000000000000e+01 -5.0000000000000000e+00
0.0000000000000000e+00 5.0000000000000000e+01 0.0000000000000000e+00
0.0000000000000000e+00 5.0000000000000000e+01 0.0000000000000000e+00
ITEM: ATOMS id type x y z c_1[1] c_1[2] c_1[3] c_1[4] c_1[5] c_1[6] c_1[7] c_1[22]
1 2 0.98953 0.321535 0 -2.13964e+08 -1.05742e+08 -0 -1.50416e+08 -0 -0 1.74622e+08 8.62992e+07
2 2 0 0 0 -3.42463e+08 -0 -0 -0 -0 -0 5.20986e+08 -0
3 2 0.5 0 0 -5.56427e+08 -1.05742e+08 -0 -1.50416e+08 -0 -0 6.95608e+08 8.62992e+07
ITEM: TIMESTEP
20
ITEM: NUMBER OF ATOMS
3
ITEM: BOX BOUNDS xy xz yz pp pp pp
0.0000000000000000e+00 5.0000000000000000e+01 0.0000000000000000e+00
0.0000000000000000e+00 5.0000000000000000e+01 0.0000000000000000e+00
0.0000000000000000e+00 5.0000000000000000e+01 0.0000000000000000e+00
ITEM: ATOMS id type x y z c_1[1] c_1[2] c_1[3] c_1[4] c_1[5] c_1[6] c_1[7] c_1[22]
1 2 1.02168 0.321535 0 -2.1562e+08 -9.30223e+07 -0 -1.41624e+08 -0 -0 2.06429e+08 8.90569e+07
2 2 0 0 0 -3.42463e+08 -0 -0 -0 -0 -0 5.20986e+08 -0
3 2 0.5 0 0 -5.58083e+08 -9.30223e+07 -0 -1.41624e+08 -0 -0 7.27415e+08 8.90569e+07
ITEM: TIMESTEP
21
ITEM: NUMBER OF ATOMS
3
ITEM: BOX BOUNDS xy xz yz pp pp pp
0.0000000000000000e+00 5.5000000000000000e+01 5.0000000000000000e+00
0.0000000000000000e+00 5.0000000000000000e+01 0.0000000000000000e+00
0.0000000000000000e+00 5.0000000000000000e+01 0.0000000000000000e+00
ITEM: ATOMS id type x y z c_1[1] c_1[2] c_1[3] c_1[4] c_1[5] c_1[6] c_1[7] c_1[22]
1 2 1.05384 0.321535 0 -2.15254e+08 -8.17697e+07 -0 -1.3267e+08 -0 -0 2.35999e+08 8.96503e+07
2 2 0 0 0 -3.42463e+08 -0 -0 -0 -0 -0 5.20986e+08 -0
3 2 0.5 0 0 -5.57717e+08 -8.17697e+07 -0 -1.3267e+08 -0 -0 7.56985e+08 8.96503e+07
ITEM: TIMESTEP
22
ITEM: NUMBER OF ATOMS
3
ITEM: BOX BOUNDS xy xz yz pp pp pp
0.0000000000000000e+00 6.0000000000000000e+01 1.0000000000000000e+01
0.0000000000000000e+00 5.0000000000000000e+01 0.0000000000000000e+00
0.0000000000000000e+00 5.0000000000000000e+01 0.0000000000000000e+00
ITEM: ATOMS id type x y z c_1[1] c_1[2] c_1[3] c_1[4] c_1[5] c_1[6] c_1[7] c_1[22]
1 2 1.08599 0.321535 0 -2.1314e+08 -7.18383e+07 -0 -1.2374e+08 -0 -0 2.62937e+08 8.86225e+07
2 2 0 0 0 -3.42463e+08 -0 -0 -0 -0 -0 5.20986e+08 -0
3 2 0.5 0 0 -5.55602e+08 -7.18383e+07 -0 -1.2374e+08 -0 -0 7.83923e+08 8.86225e+07
ITEM: TIMESTEP
23
ITEM: NUMBER OF ATOMS
3
ITEM: BOX BOUNDS xy xz yz pp pp pp
0.0000000000000000e+00 6.5000000000000000e+01 1.5000000000000000e+01
0.0000000000000000e+00 5.0000000000000000e+01 0.0000000000000000e+00
0.0000000000000000e+00 5.0000000000000000e+01 0.0000000000000000e+00
ITEM: ATOMS id type x y z c_1[1] c_1[2] c_1[3] c_1[4] c_1[5] c_1[6] c_1[7] c_1[22]
1 2 1.11814 0.321535 0 -2.0954e+08 -6.30873e+07 -0 -1.14975e+08 -0 -0 2.86984e+08 8.64039e+07
2 2 0 0 0 -3.42463e+08 -0 -0 -0 -0 -0 5.20986e+08 -0
3 2 0.5 0 0 -5.52003e+08 -6.30873e+07 -0 -1.14975e+08 -0 -0 8.07971e+08 8.64039e+07
ITEM: TIMESTEP
24
ITEM: NUMBER OF ATOMS
3
ITEM: BOX BOUNDS xy xz yz pp pp pp
0.0000000000000000e+00 7.0000000000000000e+01 2.0000000000000000e+01
0.0000000000000000e+00 5.0000000000000000e+01 0.0000000000000000e+00
0.0000000000000000e+00 5.0000000000000000e+01 0.0000000000000000e+00
ITEM: ATOMS id type x y z c_1[1] c_1[2] c_1[3] c_1[4] c_1[5] c_1[6] c_1[7] c_1[22]
1 2 1.1503 0.321535 0 -2.04698e+08 -5.53849e+07 -0 -1.06476e+08 -0 -0 3.08047e+08 8.33477e+07
2 2 0 0 0 -3.42463e+08 -0 -0 -0 -0 -0 5.20986e+08 -0
3 2 0.5 0 0 -5.47161e+08 -5.53849e+07 -0 -1.06476e+08 -0 -0 8.29033e+08 8.33477e+07
ITEM: TIMESTEP
25
ITEM: NUMBER OF ATOMS
3
ITEM: BOX BOUNDS xy xz yz pp pp pp
0.0000000000000000e+00 7.5000000000000000e+01 2.5000000000000000e+01
0.0000000000000000e+00 5.0000000000000000e+01 0.0000000000000000e+00
0.0000000000000000e+00 5.0000000000000000e+01 0.0000000000000000e+00
ITEM: ATOMS id type x y z c_1[1] c_1[2] c_1[3] c_1[4] c_1[5] c_1[6] c_1[7] c_1[22]
1 2 1.18245 0.321535 0 -1.98836e+08 -4.86101e+07 -0 -9.83129e+07 -0 -0 3.26096e+08 7.97217e+07
2 2 0 0 0 -3.42463e+08 -0 -0 -0 -0 -0 5.20986e+08 -0
3 2 0.5 0 0 -5.41299e+08 -4.86101e+07 -0 -9.83129e+07 -0 -0 8.47082e+08 7.97217e+07
ITEM: TIMESTEP
26
ITEM: NUMBER OF ATOMS
3
ITEM: BOX BOUNDS xy xz yz pp pp pp
0.0000000000000000e+00 8.0000000000000000e+01 3.0000000000000000e+01
0.0000000000000000e+00 5.0000000000000000e+01 0.0000000000000000e+00
0.0000000000000000e+00 5.0000000000000000e+01 0.0000000000000000e+00
ITEM: ATOMS id type x y z c_1[1] c_1[2] c_1[3] c_1[4] c_1[5] c_1[6] c_1[7] c_1[22]
1 2 1.2146 0.321535 0 -1.9215e+08 -4.26534e+07 -0 -9.05309e+07 -0 -0 3.41197e+08 7.57389e+07
2 2 0 0 0 -3.42463e+08 -0 -0 -0 -0 -0 5.20986e+08 -0
3 2 0.5 0 0 -5.34613e+08 -4.26534e+07 -0 -9.05309e+07 -0 -0 8.62184e+08 7.57389e+07
ITEM: TIMESTEP
27
ITEM: NUMBER OF ATOMS
3
ITEM: BOX BOUNDS xy xz yz pp pp pp
-1.5000000000000000e+01 5.0000000000000000e+01 -1.5000000000000000e+01
0.0000000000000000e+00 5.0000000000000000e+01 0.0000000000000000e+00
0.0000000000000000e+00 5.0000000000000000e+01 0.0000000000000000e+00
ITEM: ATOMS id type x y z c_1[1] c_1[2] c_1[3] c_1[4] c_1[5] c_1[6] c_1[7] c_1[22]
1 2 1.24676 0.321535 0 -1.84815e+08 -3.74164e+07 -0 -8.31573e+07 -0 -0 3.53483e+08 7.15637e+07
2 2 0 0 0 -3.42463e+08 -0 -0 -0 -0 -0 5.20986e+08 -0
3 2 0.5 0 0 -5.27278e+08 -3.74164e+07 -0 -8.31573e+07 -0 -0 8.74469e+08 7.15637e+07
ITEM: TIMESTEP
28
ITEM: NUMBER OF ATOMS
3
ITEM: BOX BOUNDS xy xz yz pp pp pp
-1.0000000000000000e+01 5.0000000000000000e+01 -1.0000000000000000e+01
0.0000000000000000e+00 5.0000000000000000e+01 0.0000000000000000e+00
0.0000000000000000e+00 5.0000000000000000e+01 0.0000000000000000e+00
ITEM: ATOMS id type x y z c_1[1] c_1[2] c_1[3] c_1[4] c_1[5] c_1[6] c_1[7] c_1[22]
1 2 1.27891 0.321535 0 -1.76984e+08 -3.28118e+07 -0 -7.62047e+07 -0 -0 3.63128e+08 6.73218e+07
2 2 0 0 0 -3.42463e+08 -0 -0 -0 -0 -0 5.20986e+08 -0
3 2 0.5 0 0 -5.19447e+08 -3.28118e+07 -0 -7.62047e+07 -0 -0 8.84114e+08 6.73218e+07
ITEM: TIMESTEP
29
ITEM: NUMBER OF ATOMS
3
ITEM: BOX BOUNDS xy xz yz pp pp pp
-5.0000000000000000e+00 5.0000000000000000e+01 -5.0000000000000000e+00
0.0000000000000000e+00 5.0000000000000000e+01 0.0000000000000000e+00
0.0000000000000000e+00 5.0000000000000000e+01 0.0000000000000000e+00
ITEM: ATOMS id type x y z c_1[1] c_1[2] c_1[3] c_1[4] c_1[5] c_1[6] c_1[7] c_1[22]
1 2 1.31106 0.321535 0 -1.68786e+08 -2.87618e+07 -0 -6.96748e+07 -0 -0 3.70341e+08 6.31076e+07
2 2 0 0 0 -3.42463e+08 -0 -0 -0 -0 -0 5.20986e+08 -0
3 2 0.5 0 0 -5.11249e+08 -2.87618e+07 -0 -6.96748e+07 -0 -0 8.91328e+08 6.31076e+07
ITEM: TIMESTEP
30
ITEM: NUMBER OF ATOMS
3
ITEM: BOX BOUNDS xy xz yz pp pp pp
0.0000000000000000e+00 5.0000000000000000e+01 0.0000000000000000e+00
0.0000000000000000e+00 5.0000000000000000e+01 0.0000000000000000e+00
0.0000000000000000e+00 5.0000000000000000e+01 0.0000000000000000e+00
ITEM: ATOMS id type x y z c_1[1] c_1[2] c_1[3] c_1[4] c_1[5] c_1[6] c_1[7] c_1[22]
1 2 1.34322 0.321535 0 -1.60332e+08 -2.51979e+07 -0 -6.35611e+07 -0 -0 3.75357e+08 5.89915e+07
2 2 0 0 0 -3.42463e+08 -0 -0 -0 -0 -0 5.20986e+08 -0
3 2 0.5 0 0 -5.02795e+08 -2.51979e+07 -0 -6.35611e+07 -0 -0 8.96344e+08 5.89915e+07
ITEM: TIMESTEP
31
ITEM: NUMBER OF ATOMS
3
ITEM: BOX BOUNDS xy xz yz pp pp pp
0.0000000000000000e+00 5.5000000000000000e+01 5.0000000000000000e+00
0.0000000000000000e+00 5.0000000000000000e+01 0.0000000000000000e+00
0.0000000000000000e+00 5.0000000000000000e+01 0.0000000000000000e+00
ITEM: ATOMS id type x y z c_1[1] c_1[2] c_1[3] c_1[4] c_1[5] c_1[6] c_1[7] c_1[22]
1 2 1.37537 0.321535 0 -1.51714e+08 -2.20597e+07 -0 -5.78512e+07 -0 -0 3.78426e+08 5.50246e+07
2 2 0 0 0 -3.42463e+08 -0 -0 -0 -0 -0 5.20986e+08 -0
3 2 0.5 0 0 -4.94176e+08 -2.20597e+07 -0 -5.78512e+07 -0 -0 8.99413e+08 5.50246e+07
ITEM: TIMESTEP
32
ITEM: NUMBER OF ATOMS
3
ITEM: BOX BOUNDS xy xz yz pp pp pp
0.0000000000000000e+00 6.0000000000000000e+01 1.0000000000000000e+01
0.0000000000000000e+00 5.0000000000000000e+01 0.0000000000000000e+00
0.0000000000000000e+00 5.0000000000000000e+01 0.0000000000000000e+00
ITEM: ATOMS id type x y z c_1[1] c_1[2] c_1[3] c_1[4] c_1[5] c_1[6] c_1[7] c_1[22]
1 2 1.40752 0.321535 0 -1.43007e+08 -1.92942e+07 -0 -5.25282e+07 -0 -0 3.79809e+08 5.12432e+07
2 2 0 0 0 -3.42463e+08 -0 -0 -0 -0 -0 5.20986e+08 -0
3 2 0.5 0 0 -4.8547e+08 -1.92942e+07 -0 -5.25282e+07 -0 -0 9.00795e+08 5.12432e+07
ITEM: TIMESTEP
33
ITEM: NUMBER OF ATOMS
3
ITEM: BOX BOUNDS xy xz yz pp pp pp
0.0000000000000000e+00 6.5000000000000000e+01 1.5000000000000000e+01
0.0000000000000000e+00 5.0000000000000000e+01 0.0000000000000000e+00
0.0000000000000000e+00 5.0000000000000000e+01 0.0000000000000000e+00
ITEM: ATOMS id type x y z c_1[1] c_1[2] c_1[3] c_1[4] c_1[5] c_1[6] c_1[7] c_1[22]
1 2 1.43968 0.321535 0 -1.34271e+08 -1.68547e+07 -0 -4.7572e+07 -0 -0 3.79773e+08 4.76719e+07
2 2 0 0 0 -3.42463e+08 -0 -0 -0 -0 -0 5.20986e+08 -0
3 2 0.5 0 0 -4.76734e+08 -1.68547e+07 -0 -4.7572e+07 -0 -0 9.0076e+08 4.76719e+07
ITEM: TIMESTEP
34
ITEM: NUMBER OF ATOMS
3
ITEM: BOX BOUNDS xy xz yz pp pp pp
0.0000000000000000e+00 7.0000000000000000e+01 2.0000000000000000e+01
0.0000000000000000e+00 5.0000000000000000e+01 0.0000000000000000e+00
0.0000000000000000e+00 5.0000000000000000e+01 0.0000000000000000e+00
ITEM: ATOMS id type x y z c_1[1] c_1[2] c_1[3] c_1[4] c_1[5] c_1[6] c_1[7] c_1[22]
1 2 1.47183 0.321535 0 -1.25552e+08 -1.47002e+07 -0 -4.29609e+07 -0 -0 3.78591e+08 4.43269e+07
2 2 0 0 0 -3.42463e+08 -0 -0 -0 -0 -0 5.20986e+08 -0
3 2 0.5 0 0 -4.68015e+08 -1.47002e+07 -0 -4.29609e+07 -0 -0 8.99577e+08 4.43269e+07
ITEM: TIMESTEP
35
ITEM: NUMBER OF ATOMS
3
ITEM: BOX BOUNDS xy xz yz pp pp pp
0.0000000000000000e+00 7.5000000000000000e+01 2.5000000000000000e+01
0.0000000000000000e+00 5.0000000000000000e+01 0.0000000000000000e+00
0.0000000000000000e+00 5.0000000000000000e+01 0.0000000000000000e+00
ITEM: ATOMS id type x y z c_1[1] c_1[2] c_1[3] c_1[4] c_1[5] c_1[6] c_1[7] c_1[22]
1 2 1.50399 0.321535 0 -1.16884e+08 -1.27947e+07 -0 -3.86716e+07 -0 -0 3.76534e+08 4.12171e+07
2 2 0 0 0 -3.42463e+08 -0 -0 -0 -0 -0 5.20986e+08 -0
3 2 0.5 0 0 -4.59347e+08 -1.27947e+07 -0 -3.86716e+07 -0 -0 8.9752e+08 4.12171e+07
ITEM: TIMESTEP
36
ITEM: NUMBER OF ATOMS
3
ITEM: BOX BOUNDS xy xz yz pp pp pp
0.0000000000000000e+00 8.0000000000000000e+01 3.0000000000000000e+01
0.0000000000000000e+00 5.0000000000000000e+01 0.0000000000000000e+00
0.0000000000000000e+00 5.0000000000000000e+01 0.0000000000000000e+00
ITEM: ATOMS id type x y z c_1[1] c_1[2] c_1[3] c_1[4] c_1[5] c_1[6] c_1[7] c_1[22]
1 2 1.53614 0.321535 0 -1.08289e+08 -1.11067e+07 -0 -3.46804e+07 -0 -0 3.73876e+08 3.83467e+07
2 2 0 0 0 -3.42463e+08 -0 -0 -0 -0 -0 5.20986e+08 -0
3 2 0.5 0 0 -4.50752e+08 -1.11067e+07 -0 -3.46804e+07 -0 -0 8.94862e+08 3.83467e+07
ITEM: TIMESTEP
37
ITEM: NUMBER OF ATOMS
3
ITEM: BOX BOUNDS xy xz yz pp pp pp
-1.5000000000000000e+01 5.0000000000000000e+01 -1.5000000000000000e+01
0.0000000000000000e+00 5.0000000000000000e+01 0.0000000000000000e+00
0.0000000000000000e+00 5.0000000000000000e+01 0.0000000000000000e+00
ITEM: ATOMS id type x y z c_1[1] c_1[2] c_1[3] c_1[4] c_1[5] c_1[6] c_1[7] c_1[22]
1 2 1.56829 0.321535 0 -9.97779e+07 -9.60847e+06 -0 -3.09631e+07 -0 -0 3.709e+08 3.57172e+07
2 2 0 0 0 -3.42463e+08 -0 -0 -0 -0 -0 5.20986e+08 -0
3 2 0.5 0 0 -4.42241e+08 -9.60847e+06 -0 -3.09631e+07 -0 -0 8.91887e+08 3.57172e+07
ITEM: TIMESTEP
38
ITEM: NUMBER OF ATOMS
3
ITEM: BOX BOUNDS xy xz yz pp pp pp
-1.0000000000000000e+01 5.0000000000000000e+01 -1.0000000000000000e+01
0.0000000000000000e+00 5.0000000000000000e+01 0.0000000000000000e+00
0.0000000000000000e+00 5.0000000000000000e+01 0.0000000000000000e+00
ITEM: ATOMS id type x y z c_1[1] c_1[2] c_1[3] c_1[4] c_1[5] c_1[6] c_1[7] c_1[22]
1 2 1.60045 0.321535 0 -9.13545e+07 -8.27571e+06 -0 -2.74959e+07 -0 -0 3.67869e+08 3.33249e+07
2 2 0 0 0 -3.42463e+08 -0 -0 -0 -0 -0 5.20986e+08 -0
3 2 0.5 0 0 -4.33817e+08 -8.27571e+06 -0 -2.74959e+07 -0 -0 8.88855e+08 3.33249e+07
ITEM: TIMESTEP
39
ITEM: NUMBER OF ATOMS
3
ITEM: BOX BOUNDS xy xz yz pp pp pp
-5.0000000000000000e+00 5.0000000000000000e+01 -5.0000000000000000e+00
0.0000000000000000e+00 5.0000000000000000e+01 0.0000000000000000e+00
0.0000000000000000e+00 5.0000000000000000e+01 0.0000000000000000e+00
ITEM: ATOMS id type x y z c_1[1] c_1[2] c_1[3] c_1[4] c_1[5] c_1[6] c_1[7] c_1[22]
1 2 1.6326 0.321535 0 -8.3013e+07 -7.08703e+06 -0 -2.42552e+07 -0 -0 3.65047e+08 3.1165e+07
2 2 0 0 0 -3.42463e+08 -0 -0 -0 -0 -0 5.20986e+08 -0
3 2 0.5 0 0 -4.25476e+08 -7.08703e+06 -0 -2.42552e+07 -0 -0 8.86033e+08 3.1165e+07
ITEM: TIMESTEP
40
ITEM: NUMBER OF ATOMS
3
ITEM: BOX BOUNDS xy xz yz pp pp pp
0.0000000000000000e+00 5.0000000000000000e+01 0.0000000000000000e+00
0.0000000000000000e+00 5.0000000000000000e+01 0.0000000000000000e+00
0.0000000000000000e+00 5.0000000000000000e+01 0.0000000000000000e+00
ITEM: ATOMS id type x y z c_1[1] c_1[2] c_1[3] c_1[4] c_1[5] c_1[6] c_1[7] c_1[22]
1 2 1.66475 0.321535 0 -7.47401e+07 -6.02361e+06 -0 -2.1218e+07 -0 -0 3.62702e+08 2.92316e+07
2 2 0 0 0 -3.42463e+08 -0 -0 -0 -0 -0 5.20986e+08 -0
3 2 0.5 0 0 -4.17203e+08 -6.02361e+06 -0 -2.1218e+07 -0 -0 8.83688e+08 2.92316e+07
ITEM: TIMESTEP
41
ITEM: NUMBER OF ATOMS
3
ITEM: BOX BOUNDS xy xz yz pp pp pp
0.0000000000000000e+00 5.5000000000000000e+01 5.0000000000000000e+00
0.0000000000000000e+00 5.0000000000000000e+01 0.0000000000000000e+00
0.0000000000000000e+00 5.0000000000000000e+01 0.0000000000000000e+00
ITEM: ATOMS id type x y z c_1[1] c_1[2] c_1[3] c_1[4] c_1[5] c_1[6] c_1[7] c_1[22]
1 2 1.69691 0.321535 0 -6.65159e+07 -5.0689e+06 -0 -1.8362e+07 -0 -0 3.61109e+08 2.75186e+07
2 2 0 0 0 -3.42463e+08 -0 -0 -0 -0 -0 5.20986e+08 -0
3 2 0.5 0 0 -4.08979e+08 -5.0689e+06 -0 -1.8362e+07 -0 -0 8.82096e+08 2.75186e+07
ITEM: TIMESTEP
42
ITEM: NUMBER OF ATOMS
3
ITEM: BOX BOUNDS xy xz yz pp pp pp
0.0000000000000000e+00 6.0000000000000000e+01 1.0000000000000000e+01
0.0000000000000000e+00 5.0000000000000000e+01 0.0000000000000000e+00
0.0000000000000000e+00 5.0000000000000000e+01 0.0000000000000000e+00
ITEM: ATOMS id type x y z c_1[1] c_1[2] c_1[3] c_1[4] c_1[5] c_1[6] c_1[7] c_1[22]
1 2 1.72906 0.321535 0 -5.83139e+07 -4.20831e+06 -0 -1.56653e+07 -0 -0 3.60541e+08 2.6019e+07
2 2 0 0 0 -3.42463e+08 -0 -0 -0 -0 -0 5.20986e+08 -0
3 2 0.5 0 0 -4.00777e+08 -4.20831e+06 -0 -1.56653e+07 -0 -0 8.81528e+08 2.6019e+07
ITEM: TIMESTEP
43
ITEM: NUMBER OF ATOMS
3
ITEM: BOX BOUNDS xy xz yz pp pp pp
0.0000000000000000e+00 6.5000000000000000e+01 1.5000000000000000e+01
0.0000000000000000e+00 5.0000000000000000e+01 0.0000000000000000e+00
0.0000000000000000e+00 5.0000000000000000e+01 0.0000000000000000e+00
ITEM: ATOMS id type x y z c_1[1] c_1[2] c_1[3] c_1[4] c_1[5] c_1[6] c_1[7] c_1[22]
1 2 1.76121 0.321535 0 -5.0102e+07 -3.42898e+06 -0 -1.31072e+07 -0 -0 3.61255e+08 2.47243e+07
2 2 0 0 0 -3.42463e+08 -0 -0 -0 -0 -0 5.20986e+08 -0
3 2 0.5 0 0 -3.92565e+08 -3.42898e+06 -0 -1.31072e+07 -0 -0 8.82241e+08 2.47243e+07
ITEM: TIMESTEP
44
ITEM: NUMBER OF ATOMS
3
ITEM: BOX BOUNDS xy xz yz pp pp pp
0.0000000000000000e+00 7.0000000000000000e+01 2.0000000000000000e+01
0.0000000000000000e+00 5.0000000000000000e+01 0.0000000000000000e+00
0.0000000000000000e+00 5.0000000000000000e+01 0.0000000000000000e+00
ITEM: ATOMS id type x y z c_1[1] c_1[2] c_1[3] c_1[4] c_1[5] c_1[6] c_1[7] c_1[22]
1 2 1.79337 0.321535 0 -4.18425e+07 -2.71954e+06 -0 -1.06674e+07 -0 -0 3.63522e+08 2.36271e+07
2 2 0 0 0 -3.42463e+08 -0 -0 -0 -0 -0 5.20986e+08 -0
3 2 0.5 0 0 -3.84305e+08 -2.71954e+06 -0 -1.06674e+07 -0 -0 8.84509e+08 2.36271e+07
ITEM: TIMESTEP
45
ITEM: NUMBER OF ATOMS
3
ITEM: BOX BOUNDS xy xz yz pp pp pp
0.0000000000000000e+00 7.5000000000000000e+01 2.5000000000000000e+01
0.0000000000000000e+00 5.0000000000000000e+01 0.0000000000000000e+00
0.0000000000000000e+00 5.0000000000000000e+01 0.0000000000000000e+00
ITEM: ATOMS id type x y z c_1[1] c_1[2] c_1[3] c_1[4] c_1[5] c_1[6] c_1[7] c_1[22]
1 2 1.82552 0.321535 0 -3.34926e+07 -2.06995e+06 -0 -8.32635e+06 -0 -0 3.67634e+08 2.2721e+07
2 2 0 0 0 -3.42463e+08 -0 -0 -0 -0 -0 5.20986e+08 -0
3 2 0.5 0 0 -3.75955e+08 -2.06995e+06 -0 -8.32635e+06 -0 -0 8.88621e+08 2.2721e+07
ITEM: TIMESTEP
46
ITEM: NUMBER OF ATOMS
3
ITEM: BOX BOUNDS xy xz yz pp pp pp
0.0000000000000000e+00 8.0000000000000000e+01 3.0000000000000000e+01
0.0000000000000000e+00 5.0000000000000000e+01 0.0000000000000000e+00
0.0000000000000000e+00 5.0000000000000000e+01 0.0000000000000000e+00
ITEM: ATOMS id type x y z c_1[1] c_1[2] c_1[3] c_1[4] c_1[5] c_1[6] c_1[7] c_1[22]
1 2 1.85767 0.321535 0 -2.50047e+07 -1.47131e+06 -0 -6.06546e+06 -0 -0 3.73859e+08 2.19984e+07
2 2 0 0 0 -3.42463e+08 -0 -0 -0 -0 -0 5.20986e+08 -0
3 2 0.5 0 0 -3.67468e+08 -1.47131e+06 -0 -6.06546e+06 -0 -0 8.94846e+08 2.19984e+07
ITEM: TIMESTEP
47
ITEM: NUMBER OF ATOMS
3
ITEM: BOX BOUNDS xy xz yz pp pp pp
-1.5000000000000000e+01 5.0000000000000000e+01 -1.5000000000000000e+01
0.0000000000000000e+00 5.0000000000000000e+01 0.0000000000000000e+00
0.0000000000000000e+00 5.0000000000000000e+01 0.0000000000000000e+00
ITEM: ATOMS id type x y z c_1[1] c_1[2] c_1[3] c_1[4] c_1[5] c_1[6] c_1[7] c_1[22]
1 2 1.88983 0.321535 0 -1.63268e+07 -915725 -0 -3.86663e+06 -0 -0 3.82481e+08 2.14523e+07
2 2 0 0 0 -3.42463e+08 -0 -0 -0 -0 -0 5.20986e+08 -0
3 2 0.5 0 0 -3.5879e+08 -915725 -0 -3.86663e+06 -0 -0 9.03467e+08 2.14523e+07
ITEM: TIMESTEP
48
ITEM: NUMBER OF ATOMS
3
ITEM: BOX BOUNDS xy xz yz pp pp pp
-1.0000000000000000e+01 5.0000000000000000e+01 -1.0000000000000000e+01
0.0000000000000000e+00 5.0000000000000000e+01 0.0000000000000000e+00
0.0000000000000000e+00 5.0000000000000000e+01 0.0000000000000000e+00
ITEM: ATOMS id type x y z c_1[1] c_1[2] c_1[3] c_1[4] c_1[5] c_1[6] c_1[7] c_1[22]
1 2 1.92198 0.321535 0 -7.40206e+06 -396175 -0 -1.71246e+06 -0 -0 3.93803e+08 2.10772e+07
2 2 0 0 0 -3.42463e+08 -0 -0 -0 -0 -0 5.20986e+08 -0
3 2 0.5 0 0 -3.49865e+08 -396175 -0 -1.71246e+06 -0 -0 9.1479e+08 2.10772e+07
ITEM: TIMESTEP
49
ITEM: NUMBER OF ATOMS
3
ITEM: BOX BOUNDS xy xz yz pp pp pp
-5.0000000000000000e+00 5.0000000000000000e+01 -5.0000000000000000e+00
0.0000000000000000e+00 5.0000000000000000e+01 0.0000000000000000e+00
0.0000000000000000e+00 5.0000000000000000e+01 0.0000000000000000e+00
ITEM: ATOMS id type x y z c_1[1] c_1[2] c_1[3] c_1[4] c_1[5] c_1[6] c_1[7] c_1[22]
1 2 1.95413 0.321535 0 1.83034e+06 93583.5 -0 413871 -0 -0 4.08127e+08 2.08672e+07