ITEM: TIMESTEP
0
ITEM: NUMBER OF ATOMS
665
ITEM: BOX BOUNDS xy xz yz pp pp pp
-1.0000000000000000e+01 1.0000000000000000e+01 0.0000000000000000e+00
-1.0000000000000000e+01 1.0000000000000000e+01 0.0000000000000000e+00
-1.0000000000000000e+01 1.0000000000000000e+01 0.0000000000000000e+00
ITEM: ATOMS id type x y z c_1[1] c_1[2] c_1[3] c_1[4] c_1[5] c_1[6] c_1[7] c_1[8] c_1[13] c_1[15] c_1[22]
1 2 -7.4 -9.25 -9.25 -588080 402051 326424 214901 -169883 511313 9.64108e+06 4.30192e+06 3.24315e+07 -833017 5.61434e+06
2 2 -3.7 -9.25 -9.25 -375393 614442 461585 807.44 807.44 341880 8.98978e+06 3.49355e+06 3.18929e+07 504.92 4.97311e+06
3 2 0 -9.25 -9.25 -373479 614451 461594 828.836 828.836 341880 8.92214e+06 3.52259e+06 3.18929e+07 1.85705e-08 4.97188e+06
4 2 3.7 -9.25 -9.25 -373585 614442 461585 850.284 850.284 341880 8.92646e+06 3.52103e+06 3.18929e+07 -504.92 4.97311e+06
5 2 7.4 -9.25 -9.25 -586271 402051 326424 -214073 170712 511313 9.57775e+06 4.32941e+06 3.24315e+07 833017 5.61434e+06
6 2 -9.25 -7.4 -9.25 248811 -434901 326424 214923 361989 -20553.4 2.56769e+07 3.99589e+06 1.19687e+07 -988059 4.28315e+06
7 2 -5.55 -7.4 -9.25 -2.13911e+06 -1.83037e+06 1.34996e+06 -4148.21 -788.703 637358 1.57559e+07 7.805e+06 1.90286e+07 8596.63 6.39967e+06
8 2 -7.4 -5.55 -9.25 -1.78766e+06 -1.94584e+06 1.34996e+06 -122133 -678960 1.31553e+06 1.50889e+07 8.00414e+06 1.97175e+07 154861 5.90549e+06
9 2 -1.85 -7.4 -9.25 -2.12577e+06 -1.824e+06 1.35085e+06 0.253677 502.295 638214 1.51806e+07 8.14468e+06 1.90203e+07 2.3118e-09 6.40125e+06
10 2 -3.7 -5.55 -9.25 -1.31478e+06 -1.32481e+06 1.6222e+06 1.82353e-10 502.258 1.65561e+06 1.37216e+07 6.2595e+06 1.84469e+07 -1.44896e-15 4.92975e+06
11 2 1.85 -7.4 -9.25 -2.12577e+06 -1.824e+06 1.35085e+06 0.253677 502.295 638214 1.51806e+07 8.14468e+06 1.90203e+07 -2.31243e-08 6.40125e+06
12 2 0 -5.55 -9.25 -1.31475e+06 -1.32481e+06 1.6222e+06 -1.59992e-10 502.295 1.65561e+06 1.372e+07 6.26046e+06 1.84469e+07 -1.64405e-08 4.92975e+06
13 2 5.55 -7.4 -9.25 -2.1283e+06 -1.83037e+06 1.34996e+06 4149.78 1587.45 637358 1.51844e+07 8.14906e+06 1.90286e+07 -8596.63 6.39967e+06
14 2 3.7 -5.55 -9.25 -1.31475e+06 -1.32481e+06 1.6222e+06 -5.90223e-10 502.332 1.65561e+06 1.372e+07 6.26046e+06 1.84469e+07 1.72119e-09 4.92975e+06
15 2 9.25 -7.4 -9.25 259620 -434901 326424 -204084 52002 -20553.4 2.51055e+07 4.33995e+06 1.19687e+07 988059 4.28315e+06
16 2 7.4 -5.55 -9.25 -1.78763e+06 -1.94584e+06 1.34996e+06 122133 679462 1.31553e+06 1.50873e+07 8.00511e+06 1.97175e+07 -154861 5.90549e+06
17 2 -9.25 -3.7 -9.25 657568 -182549 461585 -117177 -146664 489357 2.49369e+07 3.05017e+06 1.15673e+07 141956 3.52505e+06
18 2 -5.55 -3.7 -9.25 -1.32469e+06 -1.31424e+06 1.6222e+06 -329.447 55.4729 1.65606e+06 1.42964e+07 5.91069e+06 1.78561e+07 408.438 4.93933e+06
19 2 -7.4 -1.85 -9.25 -1.78076e+06 -1.93239e+06 1.35085e+06 -118314 -678104 1.31682e+06 1.50801e+07 7.994e+06 1.91257e+07 146680 5.90767e+06
20 2 -1.85 -3.7 -9.25 -1.31342e+06 -1.31345e+06 1.62239e+06 -3.5942e-10 502.295 1.65606e+06 1.37183e+07 6.25851e+06 1.78549e+07 3.55993e-10 4.939e+06
21 2 -3.7 -1.85 -9.25 -1.31345e+06 -1.31342e+06 1.62239e+06 -4.03086e-10 502.258 1.65606e+06 1.37199e+07 6.25754e+06 1.78533e+07 3.9133e-09 4.93903e+06
22 2 1.85 -3.7 -9.25 -1.31342e+06 -1.31345e+06 1.62239e+06 -1.71213e-10 502.295 1.65606e+06 1.37183e+07 6.25851e+06 1.78549e+07 7.09775e-10 4.939e+06
23 2 0 -1.85 -9.25 -1.31342e+06 -1.31342e+06 1.62239e+06 7.26864e-10 502.295 1.65606e+06 1.37183e+07 6.25851e+06 1.78533e+07 1.43334e-08 4.93903e+06
24 2 5.55 -3.7 -9.25 -1.31388e+06 -1.31424e+06 1.6222e+06 329.447 743.267 1.65606e+06 1.37251e+07 6.25471e+06 1.78561e+07 -408.438 4.93933e+06
25 2 3.7 -1.85 -9.25 -1.31342e+06 -1.31342e+06 1.62239e+06 -1.05615e-09 502.332 1.65606e+06 1.37183e+07 6.25851e+06 1.78533e+07 7.11509e-10 4.93903e+06
26 2 9.25 -3.7 -9.25 668374 -182549 461585 117177 560603 489357 2.43655e+07 3.39419e+06 1.15673e+07 -141956 3.52505e+06
27 2 7.4 -1.85 -9.25 -1.78073e+06 -1.93239e+06 1.35085e+06 118314 678607 1.31682e+06 1.50785e+07 7.99496e+06 1.91257e+07 -146680 5.90767e+06
28 2 -9.25 0 -9.25 657576 -180636 461594 -117156 -146664 489379 2.49369e+07 3.04981e+06 1.14969e+07 138884 3.52574e+06
29 2 -5.55 0 -9.25 -1.32469e+06 -1.31421e+06 1.6222e+06 -329.447 55.4729 1.65606e+06 1.42964e+07 5.91069e+06 1.78545e+07 408.438 4.93936e+06
30 2 -7.4 1.85 -9.25 -1.78076e+06 -1.93239e+06 1.35085e+06 -118314 -678104 1.31682e+06 1.50801e+07 7.994e+06 1.91257e+07 146680 5.90767e+06
31 2 -1.85 0 -9.25 -1.31342e+06 -1.31342e+06 1.62239e+06 2.32517e-10 502.295 1.65606e+06 1.37183e+07 6.25851e+06 1.78533e+07 1.45842e-08 4.93903e+06
32 2 -3.7 1.85 -9.25 -1.31345e+06 -1.31342e+06 1.62239e+06 2.70151e-10 502.258 1.65606e+06 1.37199e+07 6.25754e+06 1.78533e+07 -1.06726e-09 4.93903e+06
33 2 1.85 0 -9.25 -1.31342e+06 -1.31342e+06 1.62239e+06 -2.33586e-09 502.295 1.65606e+06 1.37183e+07 6.25851e+06 1.78533e+07 4.73132e-08 4.93903e+06
34 2 0 1.85 -9.25 -1.31342e+06 -1.31342e+06 1.62239e+06 -1.33059e-09 502.295 1.65606e+06 1.37183e+07 6.25851e+06 1.78533e+07 4.83053e-08 4.93903e+06
35 2 5.55 0 -9.25 -1.31388e+06 -1.31421e+06 1.6222e+06 329.447 743.267 1.65606e+06 1.37251e+07 6.25471e+06 1.78545e+07 -408.438 4.93936e+06
36 2 3.7 1.85 -9.25 -1.31342e+06 -1.31342e+06 1.62239e+06 -8.4006e-10 502.332 1.65606e+06 1.37183e+07 6.25851e+06 1.78533e+07 2.84604e-09 4.93903e+06
37 2 9.25 0 -9.25 668383 -180636 461594 117156 560603 489379 2.43656e+07 3.39382e+06 1.14969e+07 -138884 3.52574e+06
38 2 7.4 1.85 -9.25 -1.78073e+06 -1.93239e+06 1.35085e+06 118314 678607 1.31682e+06 1.50785e+07 7.99496e+06 1.91257e+07 -146680 5.90767e+06
39 2 -9.25 3.7 -9.25 657576 -180688 461585 -117156 -146664 489400 2.49369e+07 3.04981e+06 1.14991e+07 138859 3.52569e+06
40 2 -5.55 3.7 -9.25 -1.32469e+06 -1.31421e+06 1.6222e+06 -329.447 55.4729 1.65606e+06 1.42964e+07 5.91069e+06 1.78545e+07 408.438 4.93936e+06
41 2 -7.4 5.55 -9.25 -1.78208e+06 -1.93377e+06 1.34996e+06 -117261 -678969 1.31792e+06 1.50835e+07 7.99989e+06 1.91382e+07 141920 5.91094e+06
42 2 -1.85 3.7 -9.25 -1.31342e+06 -1.31342e+06 1.62239e+06 -9.78954e-11 502.295 1.65606e+06 1.37183e+07 6.25851e+06 1.78533e+07 3.54087e-10 4.93903e+06
43 2 -3.7 5.55 -9.25 -1.31371e+06 -1.31376e+06 1.6222e+06 2.84771e-10 502.258 1.6563e+06 1.37205e+07 6.25868e+06 1.78611e+07 -1.42302e-09 4.93959e+06
44 2 1.85 3.7 -9.25 -1.31342e+06 -1.31342e+06 1.62239e+06 -5.17049e-10 502.295 1.65606e+06 1.37183e+07 6.25851e+06 1.78533e+07 -3.5708e-10 4.93903e+06
45 2 0 5.55 -9.25 -1.31368e+06 -1.31376e+06 1.6222e+06 -2.20178e-10 502.295 1.6563e+06 1.37189e+07 6.25965e+06 1.78611e+07 -1.71e-08 4.93959e+06
46 2 5.55 3.7 -9.25 -1.31388e+06 -1.31421e+06 1.6222e+06 329.447 743.267 1.65606e+06 1.37251e+07 6.25471e+06 1.78545e+07 -408.438 4.93936e+06
47 2 3.7 5.55 -9.25 -1.31368e+06 -1.31376e+06 1.6222e+06 -4.82677e-10 502.332 1.6563e+06 1.37189e+07 6.25964e+06 1.78611e+07 -1.06737e-09 4.93959e+06
48 2 9.25 3.7 -9.25 668383 -180688 461585 117156 560603 489400 2.43656e+07 3.39382e+06 1.14991e+07 -138859 3.52569e+06
49 2 7.4 5.55 -9.25 -1.78205e+06 -1.93377e+06 1.34996e+06 117261 679472 1.31792e+06 1.50819e+07 8.00086e+06 1.91382e+07 -141920 5.91094e+06
50 2 -9.25 7.4 -9.25 450220 -392277 326424 -335154 22763.7 659261 2.54715e+07 3.84541e+06 1.22015e+07 1.12774e+06 4.07842e+06
51 2 -5.55 7.4 -9.25 -1.75131e+06 -1.73934e+06 1.34996e+06 721.607 -797.931 1.99579e+06 1.53826e+07 7.50821e+06 1.95892e+07 -4348.44 6.02641e+06
52 2 -7.4 9.25 -9.25 -240907 307788 326424 -325166 -509103 540551 8.97815e+06 4.15176e+06 3.26047e+07 944449 4.96141e+06
53 2 -1.85 7.4 -9.25 -1.739e+06 -1.73748e+06 1.35085e+06 -0.253677 502.295 1.99493e+06 1.48008e+07 7.85131e+06 1.95853e+07 6.04783e-09 6.02143e+06
54 2 -3.7 9.25 -9.25 10347 711508 461585 -828.765 807.44 1.04915e+06 8.60886e+06 3.20105e+06 3.18706e+07 -4.10034 4.60399e+06
55 2 1.85 7.4 -9.25 -1.739e+06 -1.73748e+06 1.35085e+06 -0.253677 502.295 1.99493e+06 1.48008e+07 7.85131e+06 1.95853e+07 4.35799e-09 6.02143e+06
56 2 0 9.25 -9.25 12208.4 711508 461594 -828.836 828.836 1.04915e+06 8.54335e+06 3.23004e+06 3.18706e+07 3.14615e-08 4.60398e+06
57 2 5.55 7.4 -9.25 -1.7405e+06 -1.73934e+06 1.34996e+06 -723.174 1596.68 1.99579e+06 1.48112e+07 7.85226e+06 1.95892e+07 4348.44 6.02641e+06
58 2 3.7 9.25 -9.25 12155.6 711508 461585 -828.959 850.285 1.04915e+06 8.54553e+06 3.22853e+06 3.18706e+07 4.10034 4.60399e+06
59 2 9.25 7.4 -9.25 461028 -392277 326424 324316 391228 659261 2.49001e+07 4.18947e+06 1.22015e+07 -1.12774e+06 4.07842e+06
60 2 7.4 9.25 -9.25 -239098 307788 326424 324337 509931 540551 8.91483e+06 4.17925e+06 3.26047e+07 -944449 4.96141e+06
61 2 -9.25 -9.25 -7.4 35379.9 35302.5 -495094 383955 150733 150733 2.61743e+07 2.04532e+06 3.34628e+07 -3.7326e+06 -455825
62 2 -5.55 -9.25 -7.4 -2.13924e+06 521684 -1.00229e+06 -686.741 -4273.97 637459 1.57563e+07 5.5922e+06 3.36635e+07 18737.4 2.44067e+06
63 2 -7.4 -9.25 -5.55 -1.57555e+06 1.48573e+06 -1.73251e+06 -509043 -335106 1.14532e+06 1.45948e+07 5.5166e+06 3.08747e+07 2.93093e+06 -845727
64 2 -1.85 -9.25 -7.4 -2.12602e+06 522484 -996053 502.295 0.253677 638418 1.51813e+07 5.76666e+06 3.36625e+07 -2.79129e-09 2.41698e+06
65 2 -3.7 -9.25 -5.55 -1.31478e+06 1.6222e+06 -1.32481e+06 502.258 8.82504e-11 1.65561e+06 1.37216e+07 4.78285e+06 3.06924e+07 1.06133 -5.10153e+06
66 2 1.85 -9.25 -7.4 -2.12602e+06 522484 -996053 502.295 0.253677 638418 1.51813e+07 5.76666e+06 3.36625e+07 -4.83975e-09 2.41698e+06
67 2 0 -9.25 -5.55 -1.31475e+06 1.6222e+06 -1.32481e+06 502.295 -9.72795e-10 1.65561e+06 1.372e+07 4.78335e+06 3.06924e+07 2.30886e-08 -5.10154e+06
68 2 5.55 -9.25 -7.4 -2.12843e+06 521684 -1.00229e+06 1485.49 4275.53 637459 1.51849e+07 5.7693e+06 3.36635e+07 -18737.4 2.44067e+06
69 2 3.7 -9.25 -5.55 -1.31475e+06 1.6222e+06 -1.32481e+06 502.332 -1.13175e-09 1.65561e+06 1.372e+07 4.78335e+06 3.06924e+07 -1.06133 -5.10153e+06
70 2 9.25 -9.25 -7.4 46188.1 35302.5 -495094 30036.2 -139895 150733 2.56029e+07 2.22242e+06 3.34628e+07 3.7326e+06 -455825
71 2 7.4 -9.25 -5.55 -1.57552e+06 1.48573e+06 -1.73251e+06 509546 335106 1.14532e+06 1.45932e+07 5.5171e+06 3.08747e+07 -2.93093e+06 -845727
72 2 -9.25 -5.55 -7.4 521684 -2.13924e+06 -1.00229e+06 -686.741 637459 -4273.96 2.59173e+07 5.38678e+06 1.99085e+07 30255.9 -4.29859e+06
73 2 -9.25 -7.4 -5.55 657531 -747350 -1.73251e+06 -509043 1.14532e+06 -335106 2.58463e+07 5.13353e+06 1.61634e+07 5.2669e+06 -5.16112e+06
74 2 -7.4 -7.4 -7.4 -3.0802e+06 -3.0802e+06 -3.0802e+06 1.07318e+06 1.07318e+06 1.07318e+06 1.81733e+07 1.16038e+07 2.36774e+07 -1.72157e+06 6.5693e+06
75 2 -5.55 -5.55 -7.4 -2.14556e+06 -2.14556e+06 -954897 -113.952 -257.303 -257.303 2.11844e+07 8.74803e+06 2.67073e+07 141.274 6.98567e+06
76 2 -5.55 -7.4 -5.55 -2.14556e+06 -716515 -1.07919e+06 -257.303 -113.952 -652637 2.11844e+07 1.08428e+07 2.09894e+07 508.324 1.01587e+07
77 2 -7.4 -5.55 -5.55 -478132 -1.07919e+06 -1.07919e+06 -652637 -652637 -113.952 1.70478e+07 1.04177e+07 2.56598e+07 809080 8.51082e+06
78 2 -3.7 -7.4 -7.4 -4.26504e+06 -2.01696e+06 -2.01696e+06 15.3324 15.3324 1.07006e+06 2.24522e+07 1.12259e+07 2.15518e+07 70.6368 8.70878e+06
79 2 -1.85 -5.55 -7.4 -2.1327e+06 -2.14547e+06 -954359 -56.9758 72.3082 -257.303 2.03579e+07 9.13161e+06 2.67072e+07 70.6368 6.98572e+06
80 2 -1.85 -7.4 -5.55 -2.1327e+06 -715976 -1.07909e+06 72.3082 -56.9758 -652637 2.03579e+07 1.1226e+07 2.09889e+07 -1.77877e-09 1.01592e+07
81 2 -3.7 -5.55 -5.55 -373.615 -12873.8 -12873.8 8.69902e-11 2.5131e-11 -113.952 1.82638e+07 9.13165e+06 2.46131e+07 -1.65934e-14 9.11877e+06
82 2 0 -7.4 -7.4 -4.26504e+06 -2.01696e+06 -2.01696e+06 15.3324 15.3324 1.07006e+06 2.24522e+07 1.12259e+07 2.15518e+07 70.6368 8.70878e+06
83 2 1.85 -5.55 -7.4 -2.1327e+06 -2.14547e+06 -954359 -56.9758 72.3082 -257.303 2.03579e+07 9.13161e+06 2.67072e+07 70.6368 6.98572e+06
84 2 1.85 -7.4 -5.55 -2.1327e+06 -715976 -1.07909e+06 72.3082 -56.9758 -652637 2.03579e+07 1.1226e+07 2.09889e+07 -2.84604e-09 1.01592e+07
85 2 0 -5.55 -5.55 -372.504 -12873.8 -12873.8 -1.97445e-11 -7.83233e-11 -113.952 1.82637e+07 9.13169e+06 2.46131e+07 4.53692e-10 9.11877e+06
86 2 3.7 -7.4 -7.4 -4.26504e+06 -2.01696e+06 -2.01696e+06 15.3324 15.3324 1.07006e+06 2.24522e+07 1.12259e+07 2.15518e+07 70.6368 8.70878e+06
87 2 5.55 -5.55 -7.4 -2.13283e+06 -2.14547e+06 -954897 -56.9758 401.938 -257.303 2.03577e+07 9.13166e+06 2.67072e+07 70.6368 6.9858e+06
88 2 5.55 -7.4 -5.55 -2.13283e+06 -716515 -1.07909e+06 401.938 -56.9758 -652637 2.03577e+07 1.12265e+07 2.09894e+07 -508.324 1.01587e+07
89 2 3.7 -5.55 -5.55 -372.504 -12873.8 -12873.8 -1.13579e-09 -1.38549e-09 -113.952 1.82637e+07 9.13169e+06 2.46131e+07 1.4125e-09 9.11877e+06
90 2 7.4 -7.4 -7.4 -2.60325e+06 -2.0138e+06 -2.0138e+06 -420650 -420650 1.07352e+06 2.1298e+07 1.07949e+07 2.26301e+07 912984 8.1317e+06
91 2 9.25 -5.55 -7.4 772764 -1.07295e+06 -1.00229e+06 653010 -636056 -4028.79 2.66528e+07 4.96174e+06 1.88612e+07 -838986 -2.73623e+06
92 2 9.25 -7.4 -5.55 908611 -747350 -666230 510447 -493000 -334861 2.65819e+07 5.51722e+06 1.61634e+07 -5.2669e+06 -5.16112e+06
93 2 7.4 -5.55 -5.55 -478131 -1.07919e+06 -1.07919e+06 652637 652637 -113.952 1.70477e+07 1.04178e+07 2.56598e+07 -809080 8.51082e+06
94 2 -9.25 -1.85 -7.4 522484 -2.12602e+06 -996053 502.295 638418 0.254025 2.59163e+07 5.38292e+06 1.93163e+07 -4478.29 -4.30583e+06
95 2 -9.25 -3.7 -5.55 1.86066e+06 -248478 -1.32481e+06 -651878 1.65561e+06 -2.33039e-10 2.47228e+07 3.59062e+06 1.68094e+07 804328 -9.71232e+06
96 2 -7.4 -3.7 -7.4 -2.01696e+06 -4.26504e+06 -2.01696e+06 15.3324 1.07006e+06 15.3324 1.60476e+07 1.12259e+07 2.79564e+07 -157.334 4.8284e+06
97 2 -5.55 -1.85 -7.4 -2.14547e+06 -2.1327e+06 -954359 -56.9758 -257.303 72.3082 2.11843e+07 8.74792e+06 2.5862e+07 70.6368 6.99892e+06
98 2 -5.55 -3.7 -5.55 -12853 -280.489 -12873.8 -56.9758 -113.952 1.26551e-09 1.90904e+07 8.74792e+06 2.37678e+07 70.6368 9.13134e+06
99 2 -7.4 -1.85 -5.55 -477501 -1.06631e+06 -1.07909e+06 -652365 -652637 -56.9758 1.70472e+07 1.04171e+07 2.48147e+07 808643 8.5231e+06
100 2 -3.7 -3.7 -7.4 -2.13252e+06 -2.13252e+06 -953778 -5.79853e-10 15.3324 15.3324 2.03578e+07 9.13147e+06 2.58619e+07 -1.83754e-10 6.99906e+06
101 2 -1.85 -1.85 -7.4 -2.13261e+06 -2.13261e+06 -953820 -1.87048e-09 72.3082 72.3082 2.03578e+07 9.1315e+06 2.5862e+07 4.61124e-09 6.99897e+06
102 2 -1.85 -3.7 -5.55 -93.1261 -187.363 -12780.7 4.5526e-10 -56.9758 8.52773e-10 1.82634e+07 9.1315e+06 2.37677e+07 -1.77872e-09 9.1314e+06
103 2 -3.7 -1.85 -5.55 -187.363 -93.1261 -12780.7 2.47315e-11 8.29929e-11 -56.9758 1.82636e+07 9.13147e+06 2.37675e+07 -7.11509e-10 9.13149e+06
104 2 0 -3.7 -7.4 -2.13252e+06 -2.13252e+06 -953778 -1.40997e-09 15.3324 15.3324 2.03577e+07 9.1315e+06 2.58619e+07 2.49207e-09 6.99906e+06
105 2 1.85 -1.85 -7.4 -2.13261e+06 -2.13261e+06 -953820 -1.08176e-09 72.3082 72.3082 2.03578e+07 9.1315e+06 2.5862e+07 1.77877e-09 6.99897e+06
106 2 1.85 -3.7 -5.55 -93.1261 -187.363 -12780.7 -5.67313e-10 -56.9758 -6.14052e-10 1.82634e+07 9.1315e+06 2.37677e+07 1.06688e-09 9.1314e+06
107 2 0 -1.85 -5.55 -186.252 -93.1261 -12780.7 -4.05428e-10 -8.34223e-11 -56.9758 1.82635e+07 9.1315e+06 2.37675e+07 1.40894e-09 9.13149e+06
108 2 3.7 -3.7 -7.4 -2.13252e+06 -2.13252e+06 -953778 -1.213e-09 15.3324 15.3324 2.03577e+07 9.1315e+06 2.58619e+07 1.95077e-09 6.99906e+06
109 2 5.55 -1.85 -7.4 -2.13273e+06 -2.13261e+06 -954359 -1.35948e-09 401.938 72.3082 2.03576e+07 9.13154e+06 2.5862e+07 -1.38944e-09 6.99906e+06
110 2 5.55 -3.7 -5.55 -113.952 -280.489 -12780.7 56.9758 -56.9758 3.11336e-10 1.82637e+07 9.13161e+06 2.37678e+07 -70.6368 9.13134e+06
111 2 3.7 -1.85 -5.55 -186.252 -93.1261 -12780.7 -1.18021e-09 -1.30955e-09 -56.9758 1.82635e+07 9.1315e+06 2.37675e+07 2.72943e-09 9.13149e+06
112 2 7.4 -3.7 -7.4 -1.54001e+06 -3.19864e+06 -950562 652308 -417532 188.211 1.91724e+07 1.04171e+07 2.6909e+07 -808572 6.39081e+06
113 2 9.25 -1.85 -7.4 773657 -1.05972e+06 -996053 651878 -637015 245.433 2.66517e+07 4.95782e+06 1.8269e+07 -804322 -2.74356e+06
114 2 9.25 -3.7 -5.55 2.11174e+06 -248478 -258524 651878 -1.00329e+06 2.66797e-10 2.54584e+07 3.97432e+06 1.68094e+07 -804328 -9.71232e+06
115 2 7.4 -1.85 -5.55 -477499 -1.06631e+06 -1.07909e+06 652365 652637 -56.9758 1.70471e+07 1.04171e+07 2.48147e+07 -808643 8.5231e+06
116 2 -9.25 1.85 -7.4 522484 -2.12602e+06 -996053 502.295 638418 0.254025 2.59163e+07 5.38292e+06 1.93163e+07 -4478.29 -4.30583e+06
117 2 -9.25 0 -5.55 1.86066e+06 -248447 -1.32481e+06 -651878 1.65561e+06 -2.24452e-09 2.47228e+07 3.59062e+06 1.68077e+07 804322 -9.7123e+06
118 2 -7.4 0 -7.4 -2.01696e+06 -4.26504e+06 -2.01696e+06 15.3324 1.07006e+06 15.3324 1.60476e+07 1.12259e+07 2.79563e+07 -157.334 4.8284e+06
119 2 -5.55 1.85 -7.4 -2.14547e+06 -2.1327e+06 -954359 -56.9758 -257.303 72.3082 2.11843e+07 8.74792e+06 2.5862e+07 70.6368 6.99892e+06
120 2 -5.55 0 -5.55 -12853 -279.378 -12873.8 -56.9758 -113.952 -4.78361e-10 1.90904e+07 8.74792e+06 2.37677e+07 70.6368 9.13134e+06
121 2 -7.4 1.85 -5.55 -477501 -1.06631e+06 -1.07909e+06 -652365 -652637 -56.9758 1.70472e+07 1.04171e+07 2.48147e+07 808643 8.5231e+06
122 2 -3.7 0 -7.4 -2.13252e+06 -2.13252e+06 -953778 -1.62513e-09 15.3324 15.3324 2.03578e+07 9.13147e+06 2.58619e+07 7.11509e-10 6.99906e+06
123 2 -1.85 1.85 -7.4 -2.13261e+06 -2.13261e+06 -953820 -1.11487e-09 72.3082 72.3082 2.03578e+07 9.1315e+06 2.5862e+07 -6.44359e-10 6.99897e+06
124 2 -1.85 0 -5.55 -93.1261 -186.252 -12780.7 -9.06082e-10 -56.9758 -1.07836e-09 1.82634e+07 9.1315e+06 2.37676e+07 1.42267e-09 9.1314e+06
125 2 -3.7 1.85 -5.55 -187.363 -93.1261 -12780.7 1.80536e-10 1.50055e-10 -56.9758 1.82636e+07 9.13147e+06 2.37675e+07 -3.55755e-10 9.13149e+06
126 2 0 0 -7.4 -2.13252e+06 -2.13252e+06 -953778 2.76313e-10 15.3324 15.3324 2.03577e+07 9.1315e+06 2.58619e+07 -1.17037e-09 6.99906e+06
127 2 1.85 1.85 -7.4 -2.13261e+06 -2.13261e+06 -953820 3.57832e-10 72.3082 72.3082 2.03578e+07 9.1315e+06 2.5862e+07 -2.88604e-10 6.99897e+06
128 2 1.85 0 -5.55 -93.1261 -186.252 -12780.7 -1.85786e-09 -56.9758 -2.72868e-09 1.82634e+07 9.1315e+06 2.37676e+07 3.55403e-10 9.1314e+06
129 2 0 1.85 -5.55 -186.252 -93.1261 -12780.7 -9.3204e-10 -6.16924e-10 -56.9758 1.82635e+07 9.1315e+06 2.37675e+07 1.75871e-09 9.13149e+06
130 2 3.7 0 -7.4 -2.13252e+06 -2.13252e+06 -953778 -1.49768e-09 15.3324 15.3324 2.03577e+07 9.1315e+06 2.58619e+07 1.77877e-09 6.99906e+06
131 2 5.55 1.85 -7.4 -2.13273e+06 -2.13261e+06 -954359 -6.92412e-10 401.938 72.3082 2.03576e+07 9.13154e+06 2.5862e+07 -3.4904e-09 6.99906e+06
132 2 5.55 0 -5.55 -113.952 -279.378 -12780.7 56.9758 -56.9758 -1.77847e-09 1.82637e+07 9.13161e+06 2.37677e+07 -70.6368 9.13134e+06
133 2 3.7 1.85 -5.55 -186.252 -93.1261 -12780.7 -9.29422e-10 -1.33435e-09 -56.9758 1.82635e+07 9.1315e+06 2.37675e+07 1.38944e-09 9.13149e+06
134 2 7.4 0 -7.4 -1.54001e+06 -3.19864e+06 -950562 652308 -417532 188.211 1.91724e+07 1.04171e+07 2.69089e+07 -808572 6.39081e+06
135 2 9.25 1.85 -7.4 773657 -1.05972e+06 -996053 651878 -637015 245.433 2.66517e+07 4.95782e+06 1.8269e+07 -804322 -2.74356e+06
136 2 9.25 0 -5.55 2.11174e+06 -248447 -258524 651878 -1.00329e+06 -1.64602e-09 2.54584e+07 3.97432e+06 1.68077e+07 -804322 -9.7123e+06
137 2 7.4 1.85 -5.55 -477499 -1.06631e+06 -1.07909e+06 652365 652637 -56.9758 1.70471e+07 1.04171e+07 2.48147e+07 -808643 8.5231e+06
138 2 -9.25 5.55 -7.4 521699 -2.12834e+06 -1.00229e+06 1448.32 637459 4275.53 2.59174e+07 5.3857e+06 1.93146e+07 -30822.9 -4.29026e+06
139 2 -9.25 3.7 -5.55 1.86066e+06 -248447 -1.32481e+06 -651878 1.65561e+06 -2.39351e-09 2.47228e+07 3.59062e+06 1.68077e+07 804322 -9.7123e+06
140 2 -7.4 3.7 -7.4 -2.01696e+06 -4.26504e+06 -2.01696e+06 15.3324 1.07006e+06 15.3324 1.60476e+07 1.12259e+07 2.79563e+07 -157.334 4.8284e+06
141 2 -5.55 5.55 -7.4 -2.14547e+06 -2.13283e+06 -954897 -56.9758 -257.303 401.938 2.11843e+07 8.74796e+06 2.58618e+07 70.6368 6.99838e+06
142 2 -5.55 3.7 -5.55 -12853 -279.378 -12873.8 -56.9758 -113.952 -2.4622e-09 1.90904e+07 8.74792e+06 2.37677e+07 70.6368 9.13134e+06
143 2 -7.4 5.55 -5.55 -477501 -1.06631e+06 -1.07909e+06 -652365 -652637 -56.9758 1.70472e+07 1.04172e+07 2.48153e+07 808543 8.5231e+06
144 2 -3.7 3.7 -7.4 -2.13252e+06 -2.13252e+06 -953778 -1.19004e-09 15.3324 15.3324 2.03578e+07 9.13147e+06 2.58619e+07 7.11509e-10 6.99906e+06
145 2 -1.85 5.55 -7.4 -2.13261e+06 -2.13273e+06 -954359 -1.05829e-09 72.3082 401.938 2.03578e+07 9.13154e+06 2.58617e+07 -1.42302e-09 6.99843e+06
146 2 -1.85 3.7 -5.55 -93.1261 -186.252 -12780.7 2.03717e-10 -56.9758 -1.9282e-09 1.82634e+07 9.1315e+06 2.37676e+07 -1.42329e-09 9.1314e+06
147 2 -3.7 5.55 -5.55 -187.363 -93.1261 -12780.7 -9.41383e-11 2.84429e-10 -56.9758 1.82636e+07 9.13151e+06 2.37679e+07 -0 9.13149e+06
148 2 0 3.7 -7.4 -2.13252e+06 -2.13252e+06 -953778 -1.71325e-09 15.3324 15.3324 2.03577e+07 9.1315e+06 2.58619e+07 3.61473e-09 6.99906e+06
149 2 1.85 5.55 -7.4 -2.13261e+06 -2.13273e+06 -954359 -6.00093e-10 72.3082 401.938 2.03578e+07 9.13154e+06 2.58617e+07 -1.84592e-09 6.99843e+06
150 2 1.85 3.7 -5.55 -93.1261 -186.252 -12780.7 -1.29846e-10 -56.9758 -2.76951e-09 1.82634e+07 9.1315e+06 2.37676e+07 -3.03132e-13 9.1314e+06
151 2 0 5.55 -5.55 -186.252 -93.1261 -12780.7 -4.07519e-10 -2.67163e-10 -56.9758 1.82635e+07 9.13154e+06 2.37679e+07 4.96648e-09 9.13149e+06
152 2 3.7 3.7 -7.4 -2.13252e+06 -2.13252e+06 -953778 -9.99368e-10 15.3324 15.3324 2.03577e+07 9.1315e+06 2.58619e+07 2.13453e-09 6.99906e+06
153 2 5.55 5.55 -7.4 -2.13273e+06 -2.13273e+06 -954897 -3.02899e-10 401.938 401.938 2.03576e+07 9.13159e+06 2.58617e+07 4.20191e-09 6.99852e+06
154 2 5.55 3.7 -5.55 -113.952 -279.378 -12780.7 56.9758 -56.9758 -2.57744e-09 1.82637e+07 9.13161e+06 2.37677e+07 -70.6368 9.13134e+06
155 2 3.7 5.55 -5.55 -186.252 -93.1261 -12780.7 -9.78552e-10 -8.25609e-10 -56.9758 1.82635e+07 9.13154e+06 2.37679e+07 7.45096e-10 9.13149e+06
156 2 7.4 3.7 -7.4 -1.54001e+06 -3.19864e+06 -950562 652308 -417532 188.211 1.91724e+07 1.04171e+07 2.69089e+07 -808572 6.39081e+06
157 2 9.25 5.55 -7.4 772872 -1.06203e+06 -1.00229e+06 650932 -636056 4520.71 2.66528e+07 4.96059e+06 1.82674e+07 -777978 -2.72799e+06
158 2 9.25 3.7 -5.55 2.11174e+06 -248447 -258524 651878 -1.00329e+06 -2.17932e-09 2.54584e+07 3.97432e+06 1.68077e+07 -804322 -9.7123e+06
159 2 7.4 5.55 -5.55 -477499 -1.06631e+06 -1.07909e+06 652365 652637 -56.9758 1.70471e+07 1.04173e+07 2.48153e+07 -808543 8.5231e+06
160 2 -9.25 9.25 -7.4 35302.5 46188.1 -495094 30036.2 150670 -139832 2.61808e+07 2.0441e+06 3.28688e+07 2.22919e+06 -444847
161 2 -9.25 7.4 -5.55 1.72472e+06 -509090 -1.73251e+06 -143164 1.14532e+06 335106 2.47975e+07 4.32432e+06 1.77259e+07 -4.46218e+06 -6.20997e+06
162 2 -7.4 7.4 -7.4 -2.0138e+06 -2.60325e+06 -2.0138e+06 -420650 1.07352e+06 -420650 1.71259e+07 1.07949e+07 2.68021e+07 911983 6.58835e+06
163 2 -5.55 9.25 -7.4 -1.07286e+06 772779 -1.00229e+06 652973 -4028.79 -636056 1.47025e+07 4.78361e+06 3.43803e+07 -826390 1.40344e+06
164 2 -5.55 7.4 -5.55 -12666.8 -239117 -1.07919e+06 -129.302 -113.952 652637 1.90904e+07 9.22475e+06 2.41137e+07 -29.0223 8.0647e+06
165 2 -7.4 9.25 -5.55 319077 1.1476e+06 -666230 -142263 -334861 -493000 1.09377e+07 4.70739e+06 3.57638e+07 -2.12668e+06 -3.42378e+06
166 2 -3.7 7.4 -7.4 -3.19864e+06 -1.54001e+06 -950562 652308 188.211 -417532 2.14049e+07 1.0417e+07 2.46765e+07 -808800 8.72783e+06
167 2 -1.85 9.25 -7.4 -1.05972e+06 773657 -996053 651878 245.433 -637015 1.4134e+07 4.95786e+06 3.43791e+07 -808800 1.38254e+06
168 2 -1.85 7.4 -5.55 93.1261 -239024 -1.07909e+06 -72.3082 -56.9758 652637 1.82632e+07 9.60823e+06 2.41136e+07 4.98057e-09 8.06456e+06
169 2 -3.7 9.25 -5.55 817828 2.35019e+06 -258524 -502.295 4.44661e-10 -1.00329e+06 1.16271e+07 3.16525e+06 3.45336e+07 -2.79301e-05 -6.11703e+06
170 2 0 7.4 -7.4 -3.19864e+06 -1.54001e+06 -950562 652308 188.211 -417532 2.14048e+07 1.0417e+07 2.46765e+07 -808800 8.72783e+06
171 2 1.85 9.25 -7.4 -1.05972e+06 773657 -996053 651878 245.433 -637015 1.4134e+07 4.95786e+06 3.43791e+07 -808800 1.38254e+06
172 2 1.85 7.4 -5.55 93.1261 -239024 -1.07909e+06 -72.3082 -56.9758 652637 1.82632e+07 9.60823e+06 2.41136e+07 3.20179e-09 8.06456e+06
173 2 0 9.25 -5.55 817858 2.35019e+06 -258524 -502.295 -4.89414e-10 -1.00329e+06 1.16255e+07 3.16575e+06 3.45336e+07 -2.07661e-08 -6.11703e+06
174 2 3.7 7.4 -7.4 -3.19864e+06 -1.54001e+06 -950562 652308 188.211 -417532 2.14048e+07 1.0417e+07 2.46765e+07 -808800 8.72783e+06
175 2 5.55 9.25 -7.4 -1.06203e+06 772872 -1.00229e+06 650932 4520.71 -636056 1.41312e+07 4.96064e+06 3.43802e+07 -791140 1.40358e+06
176 2 5.55 7.4 -5.55 72.3006 -239117 -1.07909e+06 -15.3324 -56.9758 652637 1.82637e+07 9.60844e+06 2.41137e+07 29.0223 8.0647e+06
177 2 3.7 9.25 -5.55 817858 2.35019e+06 -258524 -502.295 -1.28964e-09 -1.00329e+06 1.16255e+07 3.16575e+06 3.45336e+07 2.79207e-05 -6.11703e+06
178 2 7.4 7.4 -7.4 -2.60616e+06 -2.60616e+06 -947404 1.30811e+06 -419076 -419076 1.98286e+07 1.13117e+07 2.53327e+07 -2.01262e+06 7.72868e+06
179 2 9.25 9.25 -7.4 281564 281642 -495094 -208574 -137840 -137840 2.57023e+07 1.92929e+06 3.29618e+07 -2.5211e+06 -351910
180 2 9.25 7.4 -5.55 1.9758e+06 -509090 -666230 141761 -493000 334861 2.5533e+07 4.70801e+06 1.77259e+07 4.46218e+06 -6.20997e+06
181 2 7.4 9.25 -5.55 319107 1.1476e+06 -666230 141761 334861 -493000 1.09361e+07 4.70789e+06 3.57638e+07 2.12668e+06 -3.42378e+06
182 2 -9.25 -9.25 -3.7 581178 581100 10294.5 -635207 328835 328835 2.53603e+07 1.06525e+06 3.25425e+07 5.10822e+06 -7.70287e+06
183 2 -5.55 -9.25 -3.7 -1.32456e+06 1.86074e+06 -247812 157.435 -455.198 1.00358e+06 1.42962e+07 4.60585e+06 3.22545e+07 2944.16 -4.03478e+06
184 2 -7.4 -9.25 -1.85 -1.56864e+06 1.48661e+06 -1.71906e+06 -508188 -331287 1.14661e+06 1.4586e+07 5.51353e+06 3.08736e+07 2.91512e+06 -869001
185 2 -1.85 -9.25 -3.7 -1.31342e+06 1.86084e+06 -247146 502.295 -3.05753e-10 1.00368e+06 1.37183e+07 4.78275e+06 3.22545e+07 1.27853e-08 -4.03971e+06
186 2 -3.7 -9.25 -1.85 -1.31345e+06 1.62239e+06 -1.31342e+06 502.258 -8.88433e-11 1.65606e+06 1.37199e+07 4.78226e+06 3.06922e+07 1.06133 -5.10601e+06
187 2 1.85 -9.25 -3.7 -1.31342e+06 1.86084e+06 -247146 502.295 2.2144e-10 1.00368e+06 1.37183e+07 4.78275e+06 3.22545e+07 -1.72258e-08 -4.03971e+06
188 2 0 -9.25 -1.85 -1.31342e+06 1.62239e+06 -1.31342e+06 502.295 1.0318e-09 1.65606e+06 1.37183e+07 4.78275e+06 3.06922e+07 1.96554e-08 -5.10601e+06
189 2 5.55 -9.25 -3.7 -1.31376e+06 1.86074e+06 -247812 641.306 455.198 1.00358e+06 1.37249e+07 4.78292e+06 3.22545e+07 -2944.16 -4.03478e+06
190 2 3.7 -9.25 -1.85 -1.31342e+06 1.62239e+06 -1.31342e+06 502.332 -1.91212e-09 1.65606e+06 1.37183e+07 4.78275e+06 3.06922e+07 -1.06133 -5.10601e+06
191 2 9.25 -9.25 -3.7 591985 581100 10294.5 1.04915e+06 -328835 328835 2.4789e+07 1.24233e+06 3.25425e+07 -5.10822e+06 -7.70287e+06
192 2 7.4 -9.25 -1.85 -1.56861e+06 1.48661e+06 -1.71906e+06 508690 331287 1.14661e+06 1.45844e+07 5.51402e+06 3.08736e+07 -2.91512e+06 -869001
193 2 -9.25 -5.55 -3.7 1.86074e+06 -1.32456e+06 -247812 157.435 1.00358e+06 -455.198 2.47227e+07 4.4011e+06 1.84474e+07 6256.32 -1.12846e+07
194 2 -9.25 -7.4 -1.85 658415 -740446 -1.71906e+06 -508188 1.14661e+06 -331287 2.58452e+07 5.13133e+06 1.61546e+07 5.24288e+06 -5.17836e+06
195 2 -7.4 -7.4 -3.7 -2.01696e+06 -2.01696e+06 -4.26504e+06 1.07006e+06 15.3324 15.3324 1.60476e+07 1.16037e+07 2.15518e+07 -1.71756e+06 6.95405e+06
196 2 -5.55 -5.55 -3.7 -12853 -12853 -187.363 -113.952 -56.9758 -56.9758 1.90904e+07 8.74803e+06 2.46133e+07 141.274 9.11872e+06
197 2 -5.55 -7.4 -1.85 -2.14547e+06 -715883 -1.06631e+06 -257.303 -56.9758 -652365 2.11843e+07 1.08428e+07 2.09888e+07 508.324 1.01594e+07
198 2 -7.4 -5.55 -1.85 -477501 -1.07909e+06 -1.06631e+06 -652637 -652365 -56.9758 1.70472e+07 1.04177e+07 2.56597e+07 809080 8.51091e+06
199 2 -3.7 -7.4 -3.7 -2.13252e+06 -953778 -2.13252e+06 15.3324 -4.39751e-10 15.3324 2.03578e+07 1.12259e+07 1.94261e+07 70.6368 9.09348e+06
200 2 -1.85 -5.55 -3.7 -93.1261 -12759.9 -94.237 -56.9758 1.07825e-10 -56.9758 1.82634e+07 9.13161e+06 2.46132e+07 70.6368 9.11878e+06
201 2 -1.85 -7.4 -1.85 -2.13261e+06 -715344 -1.06621e+06 72.3082 -1.51219e-09 -652365 2.03578e+07 1.1226e+07 2.09882e+07 -1.45004e-09 1.01599e+07
202 2 -3.7 -5.55 -1.85 -187.363 -12780.7 -93.1261 -6.71333e-11 -2.17301e-10 -56.9758 1.82636e+07 9.13165e+06 2.4613e+07 3.2214e-10 9.11887e+06
203 2 0 -7.4 -3.7 -2.13252e+06 -953778 -2.13252e+06 15.3324 -1.32589e-09 15.3324 2.03577e+07 1.12259e+07 1.94261e+07 70.6368 9.09348e+06
204 2 1.85 -5.55 -3.7 -93.1261 -12759.9 -94.237 -56.9758 9.50438e-10 -56.9758 1.82634e+07 9.13161e+06 2.46132e+07 70.6368 9.11878e+06
205 2 1.85 -7.4 -1.85 -2.13261e+06 -715344 -1.06621e+06 72.3082 3.43216e-10 -652365 2.03578e+07 1.1226e+07 2.09882e+07 -3.18526e-09 1.01599e+07
206 2 0 -5.55 -1.85 -186.252 -12780.7 -93.1261 -3.49853e-10 -2.80032e-10 -56.9758 1.82635e+07 9.13169e+06 2.4613e+07 2.20197e-09 9.11887e+06
207 2 3.7 -7.4 -3.7 -2.13252e+06 -953778 -2.13252e+06 15.3324 -1.39517e-09 15.3324 2.03577e+07 1.12259e+07 1.94261e+07 70.6368 9.09348e+06
208 2 5.55 -5.55 -3.7 -113.952 -12759.9 -187.363 -56.9758 56.9758 -56.9758 1.82637e+07 9.13166e+06 2.46132e+07 70.6368 9.11886e+06
209 2 5.55 -7.4 -1.85 -2.13273e+06 -715883 -1.06621e+06 401.938 3.45057e-11 -652365 2.03576e+07 1.12265e+07 2.09888e+07 -508.324 1.01594e+07
210 2 3.7 -5.55 -1.85 -186.252 -12780.7 -93.1261 -1.01046e-09 -1.06369e-09 -56.9758 1.82635e+07 9.13169e+06 2.4613e+07 1.1008e-09 9.11887e+06
211 2 7.4 -7.4 -3.7 -1.54001e+06 -950562 -3.19864e+06 -417532 652308 188.211 1.91724e+07 1.07949e+07 2.05044e+07 908977 8.51645e+06
212 2 9.25 -5.55 -3.7 2.11182e+06 -258280 -247812 652166 -1.00358e+06 -455.198 2.54582e+07 3.97607e+06 1.74e+07 -814986 -9.7222e+06
213 2 9.25 -7.4 -1.85 909588 -740446 -652751 509591 -494234 -331042 2.65807e+07 5.51503e+06 1.61546e+07 -5.24288e+06 -5.17836e+06
214 2 7.4 -5.55 -1.85 -477499 -1.07909e+06 -1.06631e+06 652637 652365 -56.9758 1.70471e+07 1.04178e+07 2.56597e+07 -809080 8.51091e+06