ITEM: TIMESTEP
0
ITEM: NUMBER OF ATOMS
2
ITEM: BOX BOUNDS xy xz yz pp pp pp
0.0000000000000000e+00 5.0000000000000000e+01 0.0000000000000000e+00
0.0000000000000000e+00 5.0000000000000000e+01 0.0000000000000000e+00
0.0000000000000000e+00 5.0000000000000000e+01 0.0000000000000000e+00
ITEM: ATOMS id type x y z c_1[1] c_1[2] c_1[3] c_1[4] c_1[5] c_1[6] c_1[7] c_1[8] c_1[13] c_1[15] c_1[22]
1 2 0.378614 0 0 -3.79334e+08 -0 -0 -0 -0 -0 4.28745e+08 -0 -0 -0 -0
2 2 0 0 0 -3.79334e+08 -0 -0 -0 -0 -0 4.28745e+08 -0 -0 -0 -0
ITEM: TIMESTEP
1
ITEM: NUMBER OF ATOMS
2
ITEM: BOX BOUNDS xy xz yz pp pp pp
-2.5000000000000000e-01 5.0250000000000000e+01 0.0000000000000000e+00
0.0000000000000000e+00 5.0000000000000000e+01 0.0000000000000000e+00
0.0000000000000000e+00 5.0000000000000000e+01 0.0000000000000000e+00
ITEM: ATOMS id type x y z c_1[1] c_1[2] c_1[3] c_1[4] c_1[5] c_1[6] c_1[7] c_1[8] c_1[13] c_1[15] c_1[22]
1 2 0.1324 0 0 -3.79334e+08 -0 -0 -0 -0 -0 4.28745e+08 -0 -0 -0 -0
2 2 -0.25 0 0 -3.79334e+08 -0 -0 -0 -0 -0 4.28745e+08 -0 -0 -0 -0
ITEM: TIMESTEP
2
ITEM: NUMBER OF ATOMS
2
ITEM: BOX BOUNDS xy xz yz pp pp pp
-5.0000000000000000e-01 5.0500000000000000e+01 0.0000000000000000e+00
0.0000000000000000e+00 5.0000000000000000e+01 0.0000000000000000e+00
0.0000000000000000e+00 5.0000000000000000e+01 0.0000000000000000e+00
ITEM: ATOMS id type x y z c_1[1] c_1[2] c_1[3] c_1[4] c_1[5] c_1[6] c_1[7] c_1[8] c_1[13] c_1[15] c_1[22]
1 2 -0.113814 0 0 -3.78821e+08 -0 -0 -0 -0 -0 4.3261e+08 -0 -0 -0 -0
2 2 -0.5 0 0 -3.78821e+08 -0 -0 -0 -0 -0 4.3261e+08 -0 -0 -0 -0
ITEM: TIMESTEP
3
ITEM: NUMBER OF ATOMS
2
ITEM: BOX BOUNDS xy xz yz pp pp pp
-7.5000000000000000e-01 5.0750000000000000e+01 0.0000000000000000e+00
0.0000000000000000e+00 5.0000000000000000e+01 0.0000000000000000e+00
0.0000000000000000e+00 5.0000000000000000e+01 0.0000000000000000e+00
ITEM: ATOMS id type x y z c_1[1] c_1[2] c_1[3] c_1[4] c_1[5] c_1[6] c_1[7] c_1[8] c_1[13] c_1[15] c_1[22]
1 2 -0.360028 0 0 -3.78269e+08 -0 -0 -0 -0 -0 4.36419e+08 -0 -0 -0 -0
2 2 -0.75 0 0 -3.78269e+08 -0 -0 -0 -0 -0 4.36419e+08 -0 -0 -0 -0
ITEM: TIMESTEP
4
ITEM: NUMBER OF ATOMS
2
ITEM: BOX BOUNDS xy xz yz pp pp pp
-1.0000000000000000e+00 5.1000000000000000e+01 0.0000000000000000e+00
0.0000000000000000e+00 5.0000000000000000e+01 0.0000000000000000e+00
0.0000000000000000e+00 5.0000000000000000e+01 0.0000000000000000e+00
ITEM: ATOMS id type x y z c_1[1] c_1[2] c_1[3] c_1[4] c_1[5] c_1[6] c_1[7] c_1[8] c_1[13] c_1[15] c_1[22]
1 2 -0.606241 0 0 -3.77681e+08 -0 -0 -0 -0 -0 4.40189e+08 -0 -0 -0 -0
2 2 -1 0 0 -3.77681e+08 -0 -0 -0 -0 -0 4.40189e+08 -0 -0 -0 -0
ITEM: TIMESTEP
5
ITEM: NUMBER OF ATOMS
2
ITEM: BOX BOUNDS xy xz yz pp pp pp
-1.2500000000000000e+00 5.1250000000000000e+01 0.0000000000000000e+00
0.0000000000000000e+00 5.0000000000000000e+01 0.0000000000000000e+00
0.0000000000000000e+00 5.0000000000000000e+01 0.0000000000000000e+00
ITEM: ATOMS id type x y z c_1[1] c_1[2] c_1[3] c_1[4] c_1[5] c_1[6] c_1[7] c_1[8] c_1[13] c_1[15] c_1[22]
1 2 -0.852455 0 0 -3.77056e+08 -0 -0 -0 -0 -0 4.43903e+08 -0 -0 -0 -0
2 2 -1.25 0 0 -3.77056e+08 -0 -0 -0 -0 -0 4.43903e+08 -0 -0 -0 -0
ITEM: TIMESTEP
6
ITEM: NUMBER OF ATOMS
2
ITEM: BOX BOUNDS xy xz yz pp pp pp
-1.5000000000000000e+00 5.1500000000000000e+01 0.0000000000000000e+00
0.0000000000000000e+00 5.0000000000000000e+01 0.0000000000000000e+00
0.0000000000000000e+00 5.0000000000000000e+01 0.0000000000000000e+00
ITEM: ATOMS id type x y z c_1[1] c_1[2] c_1[3] c_1[4] c_1[5] c_1[6] c_1[7] c_1[8] c_1[13] c_1[15] c_1[22]
1 2 -1.09867 0 0 -3.76396e+08 -0 -0 -0 -0 -0 4.4756e+08 -0 -0 -0 -0
2 2 -1.5 0 0 -3.76396e+08 -0 -0 -0 -0 -0 4.4756e+08 -0 -0 -0 -0
ITEM: TIMESTEP
7
ITEM: NUMBER OF ATOMS
2
ITEM: BOX BOUNDS xy xz yz pp pp pp
-1.7500000000000000e+00 5.1750000000000000e+01 0.0000000000000000e+00
0.0000000000000000e+00 5.0000000000000000e+01 0.0000000000000000e+00
0.0000000000000000e+00 5.0000000000000000e+01 0.0000000000000000e+00
ITEM: ATOMS id type x y z c_1[1] c_1[2] c_1[3] c_1[4] c_1[5] c_1[6] c_1[7] c_1[8] c_1[13] c_1[15] c_1[22]
1 2 -1.34488 0 0 -3.75701e+08 -0 -0 -0 -0 -0 4.51158e+08 -0 -0 -0 -0
2 2 -1.75 0 0 -3.75701e+08 -0 -0 -0 -0 -0 4.51158e+08 -0 -0 -0 -0
ITEM: TIMESTEP
8
ITEM: NUMBER OF ATOMS
2
ITEM: BOX BOUNDS xy xz yz pp pp pp
-2.0000000000000000e+00 5.2000000000000000e+01 0.0000000000000000e+00
0.0000000000000000e+00 5.0000000000000000e+01 0.0000000000000000e+00
0.0000000000000000e+00 5.0000000000000000e+01 0.0000000000000000e+00
ITEM: ATOMS id type x y z c_1[1] c_1[2] c_1[3] c_1[4] c_1[5] c_1[6] c_1[7] c_1[8] c_1[13] c_1[15] c_1[22]
1 2 -1.5911 0 0 -3.74972e+08 -0 -0 -0 -0 -0 4.54712e+08 -0 -0 -0 -0
2 2 -2 0 0 -3.74972e+08 -0 -0 -0 -0 -0 4.54712e+08 -0 -0 -0 -0
ITEM: TIMESTEP
9
ITEM: NUMBER OF ATOMS
2
ITEM: BOX BOUNDS xy xz yz pp pp pp
-2.2500000000000000e+00 5.2250000000000000e+01 0.0000000000000000e+00
0.0000000000000000e+00 5.0000000000000000e+01 0.0000000000000000e+00
0.0000000000000000e+00 5.0000000000000000e+01 0.0000000000000000e+00
ITEM: ATOMS id type x y z c_1[1] c_1[2] c_1[3] c_1[4] c_1[5] c_1[6] c_1[7] c_1[8] c_1[13] c_1[15] c_1[22]
1 2 -1.83731 0 0 -3.74211e+08 -0 -0 -0 -0 -0 4.58215e+08 -0 -0 -0 -0
2 2 -2.25 0 0 -3.74211e+08 -0 -0 -0 -0 -0 4.58215e+08 -0 -0 -0 -0
ITEM: TIMESTEP
10
ITEM: NUMBER OF ATOMS
2
ITEM: BOX BOUNDS xy xz yz pp pp pp
-2.5000000000000000e+00 5.2500000000000000e+01 0.0000000000000000e+00
0.0000000000000000e+00 5.0000000000000000e+01 0.0000000000000000e+00
0.0000000000000000e+00 5.0000000000000000e+01 0.0000000000000000e+00
ITEM: ATOMS id type x y z c_1[1] c_1[2] c_1[3] c_1[4] c_1[5] c_1[6] c_1[7] c_1[8] c_1[13] c_1[15] c_1[22]
1 2 -2.08352 0 0 -3.73417e+08 -0 -0 -0 -0 -0 4.61658e+08 -0 -0 -0 -0
2 2 -2.5 0 0 -3.73417e+08 -0 -0 -0 -0 -0 4.61658e+08 -0 -0 -0 -0
ITEM: TIMESTEP
11
ITEM: NUMBER OF ATOMS
2
ITEM: BOX BOUNDS xy xz yz pp pp pp
-2.7500000000000000e+00 5.2750000000000000e+01 0.0000000000000000e+00
0.0000000000000000e+00 5.0000000000000000e+01 0.0000000000000000e+00
0.0000000000000000e+00 5.0000000000000000e+01 0.0000000000000000e+00
ITEM: ATOMS id type x y z c_1[1] c_1[2] c_1[3] c_1[4] c_1[5] c_1[6] c_1[7] c_1[8] c_1[13] c_1[15] c_1[22]
1 2 -2.32974 0 0 -3.72592e+08 -0 -0 -0 -0 -0 4.65043e+08 -0 -0 -0 -0
2 2 -2.75 0 0 -3.72592e+08 -0 -0 -0 -0 -0 4.65043e+08 -0 -0 -0 -0
ITEM: TIMESTEP
12
ITEM: NUMBER OF ATOMS
2
ITEM: BOX BOUNDS xy xz yz pp pp pp
-3.0000000000000000e+00 5.3000000000000000e+01 0.0000000000000000e+00
0.0000000000000000e+00 5.0000000000000000e+01 0.0000000000000000e+00
0.0000000000000000e+00 5.0000000000000000e+01 0.0000000000000000e+00
ITEM: ATOMS id type x y z c_1[1] c_1[2] c_1[3] c_1[4] c_1[5] c_1[6] c_1[7] c_1[8] c_1[13] c_1[15] c_1[22]
1 2 -2.57595 0 0 -3.71736e+08 -0 -0 -0 -0 -0 4.68378e+08 -0 -0 -0 -0
2 2 -3 0 0 -3.71736e+08 -0 -0 -0 -0 -0 4.68378e+08 -0 -0 -0 -0
ITEM: TIMESTEP
13
ITEM: NUMBER OF ATOMS
2
ITEM: BOX BOUNDS xy xz yz pp pp pp
-3.2500000000000000e+00 5.3250000000000000e+01 0.0000000000000000e+00
0.0000000000000000e+00 5.0000000000000000e+01 0.0000000000000000e+00
0.0000000000000000e+00 5.0000000000000000e+01 0.0000000000000000e+00
ITEM: ATOMS id type x y z c_1[1] c_1[2] c_1[3] c_1[4] c_1[5] c_1[6] c_1[7] c_1[8] c_1[13] c_1[15] c_1[22]
1 2 -2.82217 0 0 -3.70851e+08 -0 -0 -0 -0 -0 4.71666e+08 -0 -0 -0 -0
2 2 -3.25 0 0 -3.70851e+08 -0 -0 -0 -0 -0 4.71666e+08 -0 -0 -0 -0
ITEM: TIMESTEP
14
ITEM: NUMBER OF ATOMS
2
ITEM: BOX BOUNDS xy xz yz pp pp pp
-3.5000000000000000e+00 5.3500000000000000e+01 0.0000000000000000e+00
0.0000000000000000e+00 5.0000000000000000e+01 0.0000000000000000e+00
0.0000000000000000e+00 5.0000000000000000e+01 0.0000000000000000e+00
ITEM: ATOMS id type x y z c_1[1] c_1[2] c_1[3] c_1[4] c_1[5] c_1[6] c_1[7] c_1[8] c_1[13] c_1[15] c_1[22]
1 2 -3.06838 0 0 -3.69936e+08 -0 -0 -0 -0 -0 4.74894e+08 -0 -0 -0 -0
2 2 -3.5 0 0 -3.69936e+08 -0 -0 -0 -0 -0 4.74894e+08 -0 -0 -0 -0
ITEM: TIMESTEP
15
ITEM: NUMBER OF ATOMS
2
ITEM: BOX BOUNDS xy xz yz pp pp pp
-3.7500000000000000e+00 5.3750000000000000e+01 0.0000000000000000e+00
0.0000000000000000e+00 5.0000000000000000e+01 0.0000000000000000e+00
0.0000000000000000e+00 5.0000000000000000e+01 0.0000000000000000e+00
ITEM: ATOMS id type x y z c_1[1] c_1[2] c_1[3] c_1[4] c_1[5] c_1[6] c_1[7] c_1[8] c_1[13] c_1[15] c_1[22]
1 2 -3.31459 0 0 -3.68993e+08 -0 -0 -0 -0 -0 4.78063e+08 -0 -0 -0 -0
2 2 -3.75 0 0 -3.68993e+08 -0 -0 -0 -0 -0 4.78063e+08 -0 -0 -0 -0
ITEM: TIMESTEP
16
ITEM: NUMBER OF ATOMS
2
ITEM: BOX BOUNDS xy xz yz pp pp pp
-4.0000000000000000e+00 5.4000000000000000e+01 0.0000000000000000e+00
0.0000000000000000e+00 5.0000000000000000e+01 0.0000000000000000e+00
0.0000000000000000e+00 5.0000000000000000e+01 0.0000000000000000e+00
ITEM: ATOMS id type x y z c_1[1] c_1[2] c_1[3] c_1[4] c_1[5] c_1[6] c_1[7] c_1[8] c_1[13] c_1[15] c_1[22]
1 2 -3.56081 0 0 -3.68023e+08 -0 -0 -0 -0 -0 4.81176e+08 -0 -0 -0 -0
2 2 -4 0 0 -3.68023e+08 -0 -0 -0 -0 -0 4.81176e+08 -0 -0 -0 -0
ITEM: TIMESTEP
17
ITEM: NUMBER OF ATOMS
2
ITEM: BOX BOUNDS xy xz yz pp pp pp
-4.2500000000000000e+00 5.4250000000000000e+01 0.0000000000000000e+00
0.0000000000000000e+00 5.0000000000000000e+01 0.0000000000000000e+00
0.0000000000000000e+00 5.0000000000000000e+01 0.0000000000000000e+00
ITEM: ATOMS id type x y z c_1[1] c_1[2] c_1[3] c_1[4] c_1[5] c_1[6] c_1[7] c_1[8] c_1[13] c_1[15] c_1[22]
1 2 -3.80702 0 0 -3.67026e+08 -0 -0 -0 -0 -0 4.84248e+08 -0 -0 -0 -0
2 2 -4.25 0 0 -3.67026e+08 -0 -0 -0 -0 -0 4.84248e+08 -0 -0 -0 -0
ITEM: TIMESTEP
18
ITEM: NUMBER OF ATOMS
2
ITEM: BOX BOUNDS xy xz yz pp pp pp
-4.5000000000000000e+00 5.4500000000000000e+01 0.0000000000000000e+00
0.0000000000000000e+00 5.0000000000000000e+01 0.0000000000000000e+00
0.0000000000000000e+00 5.0000000000000000e+01 0.0000000000000000e+00
ITEM: ATOMS id type x y z c_1[1] c_1[2] c_1[3] c_1[4] c_1[5] c_1[6] c_1[7] c_1[8] c_1[13] c_1[15] c_1[22]
1 2 -4.05324 0 0 -3.66002e+08 -0 -0 -0 -0 -0 4.8726e+08 -0 -0 -0 -0
2 2 -4.5 0 0 -3.66002e+08 -0 -0 -0 -0 -0 4.8726e+08 -0 -0 -0 -0
ITEM: TIMESTEP
19
ITEM: NUMBER OF ATOMS
2
ITEM: BOX BOUNDS xy xz yz pp pp pp
-4.7500000000000000e+00 5.4750000000000000e+01 0.0000000000000000e+00
0.0000000000000000e+00 5.0000000000000000e+01 0.0000000000000000e+00
0.0000000000000000e+00 5.0000000000000000e+01 0.0000000000000000e+00
ITEM: ATOMS id type x y z c_1[1] c_1[2] c_1[3] c_1[4] c_1[5] c_1[6] c_1[7] c_1[8] c_1[13] c_1[15] c_1[22]
1 2 -4.29945 0 0 -3.64953e+08 -0 -0 -0 -0 -0 4.90212e+08 -0 -0 -0 -0
2 2 -4.75 0 0 -3.64953e+08 -0 -0 -0 -0 -0 4.90212e+08 -0 -0 -0 -0
ITEM: TIMESTEP
20
ITEM: NUMBER OF ATOMS
2
ITEM: BOX BOUNDS xy xz yz pp pp pp
-5.0000000000000000e+00 5.5000000000000000e+01 0.0000000000000000e+00
0.0000000000000000e+00 5.0000000000000000e+01 0.0000000000000000e+00
0.0000000000000000e+00 5.0000000000000000e+01 0.0000000000000000e+00
ITEM: ATOMS id type x y z c_1[1] c_1[2] c_1[3] c_1[4] c_1[5] c_1[6] c_1[7] c_1[8] c_1[13] c_1[15] c_1[22]
1 2 -4.54566 0 0 -3.63879e+08 -0 -0 -0 -0 -0 4.93104e+08 -0 -0 -0 -0
2 2 -5 0 0 -3.63879e+08 -0 -0 -0 -0 -0 4.93104e+08 -0 -0 -0 -0
ITEM: TIMESTEP
21
ITEM: NUMBER OF ATOMS
2
ITEM: BOX BOUNDS xy xz yz pp pp pp
-5.2500000000000000e+00 5.5250000000000000e+01 0.0000000000000000e+00
0.0000000000000000e+00 5.0000000000000000e+01 0.0000000000000000e+00
0.0000000000000000e+00 5.0000000000000000e+01 0.0000000000000000e+00
ITEM: ATOMS id type x y z c_1[1] c_1[2] c_1[3] c_1[4] c_1[5] c_1[6] c_1[7] c_1[8] c_1[13] c_1[15] c_1[22]
1 2 -4.79188 0 0 -3.62781e+08 -0 -0 -0 -0 -0 4.95958e+08 -0 -0 -0 -0
2 2 -5.25 0 0 -3.62781e+08 -0 -0 -0 -0 -0 4.95958e+08 -0 -0 -0 -0
ITEM: TIMESTEP
22
ITEM: NUMBER OF ATOMS
2
ITEM: BOX BOUNDS xy xz yz pp pp pp
-5.5000000000000000e+00 5.5500000000000000e+01 0.0000000000000000e+00
0.0000000000000000e+00 5.0000000000000000e+01 0.0000000000000000e+00
0.0000000000000000e+00 5.0000000000000000e+01 0.0000000000000000e+00
ITEM: ATOMS id type x y z c_1[1] c_1[2] c_1[3] c_1[4] c_1[5] c_1[6] c_1[7] c_1[8] c_1[13] c_1[15] c_1[22]
1 2 -5.03809 0 0 -3.6166e+08 -0 -0 -0 -0 -0 4.98753e+08 -0 -0 -0 -0
2 2 -5.5 0 0 -3.6166e+08 -0 -0 -0 -0 -0 4.98753e+08 -0 -0 -0 -0
ITEM: TIMESTEP
23
ITEM: NUMBER OF ATOMS
2
ITEM: BOX BOUNDS xy xz yz pp pp pp
-5.7500000000000000e+00 5.5750000000000000e+01 0.0000000000000000e+00
0.0000000000000000e+00 5.0000000000000000e+01 0.0000000000000000e+00
0.0000000000000000e+00 5.0000000000000000e+01 0.0000000000000000e+00
ITEM: ATOMS id type x y z c_1[1] c_1[2] c_1[3] c_1[4] c_1[5] c_1[6] c_1[7] c_1[8] c_1[13] c_1[15] c_1[22]
1 2 -5.2843 0 0 -3.60516e+08 -0 -0 -0 -0 -0 5.01488e+08 -0 -0 -0 -0
2 2 -5.75 0 0 -3.60516e+08 -0 -0 -0 -0 -0 5.01488e+08 -0 -0 -0 -0
ITEM: TIMESTEP
24
ITEM: NUMBER OF ATOMS
2
ITEM: BOX BOUNDS xy xz yz pp pp pp
-6.0000000000000000e+00 5.6000000000000000e+01 0.0000000000000000e+00
0.0000000000000000e+00 5.0000000000000000e+01 0.0000000000000000e+00
0.0000000000000000e+00 5.0000000000000000e+01 0.0000000000000000e+00
ITEM: ATOMS id type x y z c_1[1] c_1[2] c_1[3] c_1[4] c_1[5] c_1[6] c_1[7] c_1[8] c_1[13] c_1[15] c_1[22]
1 2 -5.53052 0 0 -3.59349e+08 -0 -0 -0 -0 -0 5.04163e+08 -0 -0 -0 -0
2 2 -6 0 0 -3.59349e+08 -0 -0 -0 -0 -0 5.04163e+08 -0 -0 -0 -0
ITEM: TIMESTEP
25
ITEM: NUMBER OF ATOMS
2
ITEM: BOX BOUNDS xy xz yz pp pp pp
-6.2500000000000000e+00 5.6250000000000000e+01 0.0000000000000000e+00
0.0000000000000000e+00 5.0000000000000000e+01 0.0000000000000000e+00
0.0000000000000000e+00 5.0000000000000000e+01 0.0000000000000000e+00
ITEM: ATOMS id type x y z c_1[1] c_1[2] c_1[3] c_1[4] c_1[5] c_1[6] c_1[7] c_1[8] c_1[13] c_1[15] c_1[22]
1 2 -5.77673 0 0 -3.58161e+08 -0 -0 -0 -0 -0 5.06795e+08 -0 -0 -0 -0
2 2 -6.25 0 0 -3.58161e+08 -0 -0 -0 -0 -0 5.06795e+08 -0 -0 -0 -0
ITEM: TIMESTEP
26
ITEM: NUMBER OF ATOMS
2
ITEM: BOX BOUNDS xy xz yz pp pp pp
-6.5000000000000000e+00 5.6500000000000000e+01 0.0000000000000000e+00
0.0000000000000000e+00 5.0000000000000000e+01 0.0000000000000000e+00
0.0000000000000000e+00 5.0000000000000000e+01 0.0000000000000000e+00
ITEM: ATOMS id type x y z c_1[1] c_1[2] c_1[3] c_1[4] c_1[5] c_1[6] c_1[7] c_1[8] c_1[13] c_1[15] c_1[22]
1 2 -6.02295 0 0 -3.56952e+08 -0 -0 -0 -0 -0 5.09374e+08 -0 -0 -0 -0
2 2 -6.5 0 0 -3.56952e+08 -0 -0 -0 -0 -0 5.09374e+08 -0 -0 -0 -0
ITEM: TIMESTEP
27
ITEM: NUMBER OF ATOMS
2
ITEM: BOX BOUNDS xy xz yz pp pp pp
-6.7500000000000000e+00 5.6750000000000000e+01 0.0000000000000000e+00
0.0000000000000000e+00 5.0000000000000000e+01 0.0000000000000000e+00
0.0000000000000000e+00 5.0000000000000000e+01 0.0000000000000000e+00
ITEM: ATOMS id type x y z c_1[1] c_1[2] c_1[3] c_1[4] c_1[5] c_1[6] c_1[7] c_1[8] c_1[13] c_1[15] c_1[22]
1 2 -6.26916 0 0 -3.55723e+08 -0 -0 -0 -0 -0 5.11893e+08 -0 -0 -0 -0
2 2 -6.75 0 0 -3.55723e+08 -0 -0 -0 -0 -0 5.11893e+08 -0 -0 -0 -0
ITEM: TIMESTEP
28
ITEM: NUMBER OF ATOMS
2
ITEM: BOX BOUNDS xy xz yz pp pp pp
-7.0000000000000000e+00 5.7000000000000000e+01 0.0000000000000000e+00
0.0000000000000000e+00 5.0000000000000000e+01 0.0000000000000000e+00
0.0000000000000000e+00 5.0000000000000000e+01 0.0000000000000000e+00
ITEM: ATOMS id type x y z c_1[1] c_1[2] c_1[3] c_1[4] c_1[5] c_1[6] c_1[7] c_1[8] c_1[13] c_1[15] c_1[22]
1 2 -6.51537 0 0 -3.54473e+08 -0 -0 -0 -0 -0 5.14353e+08 -0 -0 -0 -0
2 2 -7 0 0 -3.54473e+08 -0 -0 -0 -0 -0 5.14353e+08 -0 -0 -0 -0
ITEM: TIMESTEP
29
ITEM: NUMBER OF ATOMS
2
ITEM: BOX BOUNDS xy xz yz pp pp pp
-7.2500000000000000e+00 5.7250000000000000e+01 0.0000000000000000e+00
0.0000000000000000e+00 5.0000000000000000e+01 0.0000000000000000e+00
0.0000000000000000e+00 5.0000000000000000e+01 0.0000000000000000e+00
ITEM: ATOMS id type x y z c_1[1] c_1[2] c_1[3] c_1[4] c_1[5] c_1[6] c_1[7] c_1[8] c_1[13] c_1[15] c_1[22]
1 2 -6.76159 0 0 -3.53205e+08 -0 -0 -0 -0 -0 5.16763e+08 -0 -0 -0 -0
2 2 -7.25 0 0 -3.53205e+08 -0 -0 -0 -0 -0 5.16763e+08 -0 -0 -0 -0
ITEM: TIMESTEP
30
ITEM: NUMBER OF ATOMS
2
ITEM: BOX BOUNDS xy xz yz pp pp pp
-7.5000000000000000e+00 5.7500000000000000e+01 0.0000000000000000e+00
0.0000000000000000e+00 5.0000000000000000e+01 0.0000000000000000e+00
0.0000000000000000e+00 5.0000000000000000e+01 0.0000000000000000e+00
ITEM: ATOMS id type x y z c_1[1] c_1[2] c_1[3] c_1[4] c_1[5] c_1[6] c_1[7] c_1[8] c_1[13] c_1[15] c_1[22]
1 2 -7.0078 0 0 -3.51918e+08 -0 -0 -0 -0 -0 5.19127e+08 -0 -0 -0 -0
2 2 -7.5 0 0 -3.51918e+08 -0 -0 -0 -0 -0 5.19127e+08 -0 -0 -0 -0
ITEM: TIMESTEP
31
ITEM: NUMBER OF ATOMS
2
ITEM: BOX BOUNDS xy xz yz pp pp pp
-7.7500000000000000e+00 5.7750000000000000e+01 0.0000000000000000e+00
0.0000000000000000e+00 5.0000000000000000e+01 0.0000000000000000e+00
0.0000000000000000e+00 5.0000000000000000e+01 0.0000000000000000e+00
ITEM: ATOMS id type x y z c_1[1] c_1[2] c_1[3] c_1[4] c_1[5] c_1[6] c_1[7] c_1[8] c_1[13] c_1[15] c_1[22]
1 2 -7.25402 0 0 -3.50613e+08 -0 -0 -0 -0 -0 5.21432e+08 -0 -0 -0 -0
2 2 -7.75 0 0 -3.50613e+08 -0 -0 -0 -0 -0 5.21432e+08 -0 -0 -0 -0
ITEM: TIMESTEP
32
ITEM: NUMBER OF ATOMS
2
ITEM: BOX BOUNDS xy xz yz pp pp pp
-8.0000000000000000e+00 5.8000000000000000e+01 0.0000000000000000e+00
0.0000000000000000e+00 5.0000000000000000e+01 0.0000000000000000e+00
0.0000000000000000e+00 5.0000000000000000e+01 0.0000000000000000e+00
ITEM: ATOMS id type x y z c_1[1] c_1[2] c_1[3] c_1[4] c_1[5] c_1[6] c_1[7] c_1[8] c_1[13] c_1[15] c_1[22]
1 2 -7.50023 0 0 -3.4929e+08 -0 -0 -0 -0 -0 5.23678e+08 -0 -0 -0 -0
2 2 -8 0 0 -3.4929e+08 -0 -0 -0 -0 -0 5.23678e+08 -0 -0 -0 -0
ITEM: TIMESTEP
33
ITEM: NUMBER OF ATOMS
2
ITEM: BOX BOUNDS xy xz yz pp pp pp
-8.2500000000000000e+00 5.8250000000000000e+01 0.0000000000000000e+00
0.0000000000000000e+00 5.0000000000000000e+01 0.0000000000000000e+00
0.0000000000000000e+00 5.0000000000000000e+01 0.0000000000000000e+00
ITEM: ATOMS id type x y z c_1[1] c_1[2] c_1[3] c_1[4] c_1[5] c_1[6] c_1[7] c_1[8] c_1[13] c_1[15] c_1[22]
1 2 -7.74644 0 0 -3.4795e+08 -0 -0 -0 -0 -0 5.25869e+08 -0 -0 -0 -0
2 2 -8.25 0 0 -3.4795e+08 -0 -0 -0 -0 -0 5.25869e+08 -0 -0 -0 -0
ITEM: TIMESTEP
34
ITEM: NUMBER OF ATOMS
2
ITEM: BOX BOUNDS xy xz yz pp pp pp
-8.5000000000000000e+00 5.8500000000000000e+01 0.0000000000000000e+00
0.0000000000000000e+00 5.0000000000000000e+01 0.0000000000000000e+00
0.0000000000000000e+00 5.0000000000000000e+01 0.0000000000000000e+00
ITEM: ATOMS id type x y z c_1[1] c_1[2] c_1[3] c_1[4] c_1[5] c_1[6] c_1[7] c_1[8] c_1[13] c_1[15] c_1[22]
1 2 -7.99266 0 0 -3.46594e+08 -0 -0 -0 -0 -0 5.28021e+08 -0 -0 -0 -0
2 2 -8.5 0 0 -3.46594e+08 -0 -0 -0 -0 -0 5.28021e+08 -0 -0 -0 -0
ITEM: TIMESTEP
35
ITEM: NUMBER OF ATOMS
2
ITEM: BOX BOUNDS xy xz yz pp pp pp
-8.7500000000000000e+00 5.8750000000000000e+01 0.0000000000000000e+00
0.0000000000000000e+00 5.0000000000000000e+01 0.0000000000000000e+00
0.0000000000000000e+00 5.0000000000000000e+01 0.0000000000000000e+00
ITEM: ATOMS id type x y z c_1[1] c_1[2] c_1[3] c_1[4] c_1[5] c_1[6] c_1[7] c_1[8] c_1[13] c_1[15] c_1[22]
1 2 -8.23887 0 0 -3.45222e+08 -0 -0 -0 -0 -0 5.30115e+08 -0 -0 -0 -0
2 2 -8.75 0 0 -3.45222e+08 -0 -0 -0 -0 -0 5.30115e+08 -0 -0 -0 -0
ITEM: TIMESTEP
36
ITEM: NUMBER OF ATOMS
2
ITEM: BOX BOUNDS xy xz yz pp pp pp
-9.0000000000000000e+00 5.9000000000000000e+01 0.0000000000000000e+00
0.0000000000000000e+00 5.0000000000000000e+01 0.0000000000000000e+00
0.0000000000000000e+00 5.0000000000000000e+01 0.0000000000000000e+00
ITEM: ATOMS id type x y z c_1[1] c_1[2] c_1[3] c_1[4] c_1[5] c_1[6] c_1[7] c_1[8] c_1[13] c_1[15] c_1[22]
1 2 -8.48508 0 0 -3.43835e+08 -0 -0 -0 -0 -0 5.32149e+08 -0 -0 -0 -0
2 2 -9 0 0 -3.43835e+08 -0 -0 -0 -0 -0 5.32149e+08 -0 -0 -0 -0
ITEM: TIMESTEP
37
ITEM: NUMBER OF ATOMS
2
ITEM: BOX BOUNDS xy xz yz pp pp pp
-9.2500000000000000e+00 5.9250000000000000e+01 0.0000000000000000e+00
0.0000000000000000e+00 5.0000000000000000e+01 0.0000000000000000e+00
0.0000000000000000e+00 5.0000000000000000e+01 0.0000000000000000e+00
ITEM: ATOMS id type x y z c_1[1] c_1[2] c_1[3] c_1[4] c_1[5] c_1[6] c_1[7] c_1[8] c_1[13] c_1[15] c_1[22]
1 2 -8.7313 0 0 -3.42433e+08 -0 -0 -0 -0 -0 5.34125e+08 -0 -0 -0 -0
2 2 -9.25 0 0 -3.42433e+08 -0 -0 -0 -0 -0 5.34125e+08 -0 -0 -0 -0
ITEM: TIMESTEP
38
ITEM: NUMBER OF ATOMS
2
ITEM: BOX BOUNDS xy xz yz pp pp pp
-9.5000000000000000e+00 5.9500000000000000e+01 0.0000000000000000e+00
0.0000000000000000e+00 5.0000000000000000e+01 0.0000000000000000e+00
0.0000000000000000e+00 5.0000000000000000e+01 0.0000000000000000e+00
ITEM: ATOMS id type x y z c_1[1] c_1[2] c_1[3] c_1[4] c_1[5] c_1[6] c_1[7] c_1[8] c_1[13] c_1[15] c_1[22]
1 2 -8.97751 0 0 -3.41016e+08 -0 -0 -0 -0 -0 5.36066e+08 -0 -0 -0 -0
2 2 -9.5 0 0 -3.41016e+08 -0 -0 -0 -0 -0 5.36066e+08 -0 -0 -0 -0
ITEM: TIMESTEP
39
ITEM: NUMBER OF ATOMS
2
ITEM: BOX BOUNDS xy xz yz pp pp pp
-9.7500000000000000e+00 5.9750000000000000e+01 0.0000000000000000e+00
0.0000000000000000e+00 5.0000000000000000e+01 0.0000000000000000e+00
0.0000000000000000e+00 5.0000000000000000e+01 0.0000000000000000e+00
ITEM: ATOMS id type x y z c_1[1] c_1[2] c_1[3] c_1[4] c_1[5] c_1[6] c_1[7] c_1[8] c_1[13] c_1[15] c_1[22]
1 2 -9.22373 0 0 -3.39586e+08 -0 -0 -0 -0 -0 5.37951e+08 -0 -0 -0 -0
2 2 -9.75 0 0 -3.39586e+08 -0 -0 -0 -0 -0 5.37951e+08 -0 -0 -0 -0
ITEM: TIMESTEP
40
ITEM: NUMBER OF ATOMS
2
ITEM: BOX BOUNDS xy xz yz pp pp pp
-1.0000000000000000e+01 6.0000000000000000e+01 0.0000000000000000e+00
0.0000000000000000e+00 5.0000000000000000e+01 0.0000000000000000e+00
0.0000000000000000e+00 5.0000000000000000e+01 0.0000000000000000e+00
ITEM: ATOMS id type x y z c_1[1] c_1[2] c_1[3] c_1[4] c_1[5] c_1[6] c_1[7] c_1[8] c_1[13] c_1[15] c_1[22]
1 2 -9.46994 0 0 -3.38141e+08 -0 -0 -0 -0 -0 5.39778e+08 -0 -0 -0 -0
2 2 -10 0 0 -3.38141e+08 -0 -0 -0 -0 -0 5.39778e+08 -0 -0 -0 -0
