ITEM: TIMESTEP
0
ITEM: NUMBER OF ATOMS
665
ITEM: BOX BOUNDS xy xz yz pp pp pp
-1.0000000000000000e+01 1.0000000000000000e+01 0.0000000000000000e+00
-1.0000000000000000e+01 1.0000000000000000e+01 0.0000000000000000e+00
-1.0000000000000000e+01 1.0000000000000000e+01 0.0000000000000000e+00
ITEM: ATOMS id type x y z c_1[1] c_1[2] c_1[3] c_1[4] c_1[5] c_1[6] c_1[7] c_1[8] c_1[13] c_1[15] c_1[22]
1 2 -7.4 -9.25 -9.25 4.00561e+06 -3.37762e+07 -3.37762e+07 285.505 285.505 733492 -9.34972e+06 -1.03484e+07 1.98734e+08 -7539.15 -4.45999e+07
2 2 -3.7 -9.25 -9.25 4.01698e+06 -3.37763e+07 -3.37763e+07 -0 -0 733490 -1.02669e+07 -1.0213e+07 1.98737e+08 -0 -4.45814e+07
3 2 0 -9.25 -9.25 4.01698e+06 -3.37763e+07 -3.37763e+07 1.97504e-10 2.09006e-09 733490 -1.02669e+07 -1.0213e+07 1.98737e+08 5.79083e-09 -4.45814e+07
4 2 3.7 -9.25 -9.25 4.01698e+06 -3.37763e+07 -3.37763e+07 5.65773e-12 -7.46403e-14 733490 -1.02669e+07 -1.0213e+07 1.98737e+08 -1.1341e-10 -4.45814e+07
5 2 7.4 -9.25 -9.25 4.00561e+06 -3.37762e+07 -3.37762e+07 -285.505 -285.505 733492 -9.34972e+06 -1.03484e+07 1.98734e+08 7539.15 -4.45999e+07
6 2 -9.25 -7.4 -9.25 -3.37762e+07 4.00561e+06 -3.37762e+07 285.505 733492 285.505 1.98734e+08 -1.04407e+07 -9.34972e+06 -45871.5 -6.81806e+06
7 2 -5.55 -7.4 -9.25 5.75577e+06 5.75403e+06 -3.32225e+07 -0 7.55979e-10 4.62549 -6.82781e+06 -1.23794e+07 -6.60987e+06 9.09255e-14 -6.67269e+06
8 2 -7.4 -5.55 -9.25 5.75403e+06 5.75577e+06 -3.32225e+07 -0 4.62549 7.40862e-10 -6.60987e+06 -1.24031e+07 -6.82781e+06 -0 -6.67096e+06
9 2 -1.85 -7.4 -9.25 5.75577e+06 5.75403e+06 -3.32225e+07 -0 -7.55979e-10 4.62549 -6.82781e+06 -1.23794e+07 -6.60987e+06 -4.74984e-15 -6.67269e+06
10 2 -3.7 -5.55 -9.25 5.75577e+06 5.75577e+06 -3.32225e+07 -0 -0 2.51826e-10 -6.82781e+06 -1.23794e+07 -6.82781e+06 -0 -6.67096e+06
11 2 1.85 -7.4 -9.25 5.75577e+06 5.75403e+06 -3.32225e+07 -0 -1.33408e-09 4.62549 -6.82781e+06 -1.23794e+07 -6.60987e+06 -2.03564e-15 -6.67269e+06
12 2 0 -5.55 -9.25 5.75577e+06 5.75577e+06 -3.32225e+07 2.44581e-10 1.27849e-09 6.74289e-10 -6.82781e+06 -1.23794e+07 -6.82781e+06 -4.86939e-09 -6.67096e+06
13 2 5.55 -7.4 -9.25 5.75577e+06 5.75403e+06 -3.32225e+07 -0 -1.42302e-09 4.62549 -6.82781e+06 -1.23794e+07 -6.60987e+06 6.78548e-16 -6.67269e+06
14 2 3.7 -5.55 -9.25 5.75577e+06 5.75577e+06 -3.32225e+07 -0 -0 7.40862e-10 -6.82781e+06 -1.23794e+07 -6.82781e+06 -0 -6.67096e+06
15 2 9.25 -7.4 -9.25 -3.37762e+07 4.00561e+06 -3.37762e+07 -285.505 -733492 285.505 1.98734e+08 -1.04407e+07 -9.34972e+06 45871.5 -6.81806e+06
16 2 7.4 -5.55 -9.25 5.75403e+06 5.75577e+06 -3.32225e+07 -3.77989e-10 -4.62549 3.1843e-10 -6.60987e+06 -1.24031e+07 -6.82781e+06 -6.4689e-09 -6.67096e+06
17 2 -9.25 -3.7 -9.25 -3.37763e+07 4.01698e+06 -3.37763e+07 1.30281e-13 733490 -5.30014e-12 1.98737e+08 -1.04212e+07 -1.02669e+07 8.89387e-11 -6.78809e+06
18 2 -5.55 -3.7 -9.25 5.75577e+06 5.75577e+06 -3.32225e+07 -0 2.44581e-10 7.23875e-12 -6.82781e+06 -1.23794e+07 -6.82781e+06 -2.52216e-12 -6.67096e+06
19 2 -7.4 -1.85 -9.25 5.75403e+06 5.75577e+06 -3.32225e+07 -0 4.62549 -7.71087e-10 -6.60987e+06 -1.24031e+07 -6.82781e+06 -0 -6.67096e+06
20 2 -1.85 -3.7 -9.25 5.75577e+06 5.75577e+06 -3.32225e+07 -0 -2.44581e-10 7.23875e-12 -6.82781e+06 -1.23794e+07 -6.82781e+06 1.04564e-12 -6.67096e+06
21 2 -3.7 -1.85 -9.25 5.75577e+06 5.75577e+06 -3.32225e+07 -0 -0 -2.59555e-10 -6.82781e+06 -1.23794e+07 -6.82781e+06 -0 -6.67096e+06
22 2 1.85 -3.7 -9.25 5.75577e+06 5.75577e+06 -3.32225e+07 -0 -1.22291e-09 7.31068e-12 -6.82781e+06 -1.23794e+07 -6.82781e+06 1.47381e-12 -6.67096e+06
23 2 0 -1.85 -9.25 5.75577e+06 5.75577e+06 -3.32225e+07 -2.44581e-10 1.27849e-09 -6.82011e-10 -6.82781e+06 -1.23794e+07 -6.82781e+06 4.87e-09 -6.67096e+06
24 2 5.55 -3.7 -9.25 5.75577e+06 5.75577e+06 -3.32225e+07 -0 -2.11229e-09 -1.51764e-11 -6.82781e+06 -1.23794e+07 -6.82781e+06 -3.48095e-13 -6.67096e+06
25 2 3.7 -1.85 -9.25 5.75577e+06 5.75577e+06 -3.32225e+07 -0 -0 -7.71087e-10 -6.82781e+06 -1.23794e+07 -6.82781e+06 -0 -6.67096e+06
26 2 9.25 -3.7 -9.25 -3.37763e+07 4.01698e+06 -3.37763e+07 2.23215e-11 -733490 2.77933e-12 1.98737e+08 -1.04212e+07 -1.02669e+07 -1.11173e-11 -6.78809e+06
27 2 7.4 -1.85 -9.25 5.75403e+06 5.75577e+06 -3.32225e+07 3.77989e-10 -4.62549 -3.26393e-10 -6.60987e+06 -1.24031e+07 -6.82781e+06 6.47168e-09 -6.67096e+06
28 2 -9.25 0 -9.25 -3.37763e+07 4.01698e+06 -3.37763e+07 1.97637e-10 733490 2.08346e-09 1.98737e+08 -1.04212e+07 -1.02669e+07 8.98836e-09 -6.78809e+06
29 2 -5.55 0 -9.25 5.75577e+06 5.75577e+06 -3.32225e+07 2.44581e-10 6.89275e-10 1.27457e-09 -6.82781e+06 -1.23794e+07 -6.82781e+06 -2.02205e-09 -6.67096e+06
30 2 -7.4 1.85 -9.25 5.75403e+06 5.75577e+06 -3.32225e+07 -0 4.62549 -1.34908e-09 -6.60987e+06 -1.24031e+07 -6.82781e+06 -0 -6.67096e+06
31 2 -1.85 0 -9.25 5.75577e+06 5.75577e+06 -3.32225e+07 -2.44581e-10 -6.89275e-10 1.27457e-09 -6.82781e+06 -1.23794e+07 -6.82781e+06 2.02196e-09 -6.67096e+06
32 2 -3.7 1.85 -9.25 5.75577e+06 5.75577e+06 -3.32225e+07 -0 -0 -1.23777e-09 -6.82781e+06 -1.23794e+07 -6.82781e+06 -0 -6.67096e+06
33 2 1.85 0 -9.25 5.75577e+06 5.75577e+06 -3.32225e+07 -5.33632e-10 -8.67152e-10 8.52179e-10 -6.82781e+06 -1.23794e+07 -6.82781e+06 1.34524e-08 -6.67096e+06
34 2 0 1.85 -9.25 5.75577e+06 5.75577e+06 -3.32225e+07 -5.33632e-10 8.67152e-10 -8.5979e-10 -6.82781e+06 -1.23794e+07 -6.82781e+06 1.34548e-08 -6.67096e+06
35 2 5.55 0 -9.25 5.75577e+06 5.75577e+06 -3.32225e+07 -6.6704e-11 -1.36743e-09 1.3633e-09 -6.82781e+06 -1.23794e+07 -6.82781e+06 -1.35484e-09 -6.67096e+06
36 2 3.7 1.85 -9.25 5.75577e+06 5.75577e+06 -3.32225e+07 -0 -0 -1.34909e-09 -6.82781e+06 -1.23794e+07 -6.82781e+06 -0 -6.67096e+06
37 2 9.25 0 -9.25 -3.37763e+07 4.01698e+06 -3.37763e+07 -6.86582e-10 -733490 1.69135e-09 1.98737e+08 -1.04212e+07 -1.02669e+07 4.27461e-09 -6.78809e+06
38 2 7.4 1.85 -9.25 5.75403e+06 5.75577e+06 -3.32225e+07 -6.00336e-10 -4.62549 -9.04362e-10 -6.60987e+06 -1.24031e+07 -6.82781e+06 1.20964e-08 -6.67096e+06
39 2 -9.25 3.7 -9.25 -3.37763e+07 4.01698e+06 -3.37763e+07 5.73237e-12 733490 8.95616e-12 1.98737e+08 -1.04212e+07 -1.02669e+07 -4.22459e-10 -6.78809e+06
40 2 -5.55 3.7 -9.25 5.75577e+06 5.75577e+06 -3.32225e+07 -0 7.55979e-10 -3.71437e-12 -6.82781e+06 -1.23794e+07 -6.82781e+06 1.47584e-12 -6.67096e+06
41 2 -7.4 5.55 -9.25 5.75403e+06 5.75577e+06 -3.32225e+07 -0 4.62549 -1.43802e-09 -6.60987e+06 -1.24031e+07 -6.82781e+06 -0 -6.67096e+06
42 2 -1.85 3.7 -9.25 5.75577e+06 5.75577e+06 -3.32225e+07 -0 -7.55979e-10 -3.71369e-12 -6.82781e+06 -1.23794e+07 -6.82781e+06 -8.67863e-13 -6.67096e+06
43 2 -3.7 5.55 -9.25 5.75577e+06 5.75577e+06 -3.32225e+07 -0 -0 -2.10493e-09 -6.82781e+06 -1.23794e+07 -6.82781e+06 -0 -6.67096e+06
44 2 1.85 3.7 -9.25 5.75577e+06 5.75577e+06 -3.32225e+07 -0 -1.33408e-09 -1.47639e-11 -6.82781e+06 -1.23794e+07 -6.82781e+06 -0 -6.67096e+06
45 2 0 5.55 -9.25 5.75577e+06 5.75577e+06 -3.32225e+07 -6.6704e-11 1.37855e-09 -1.38229e-09 -6.82781e+06 -1.23794e+07 -6.82781e+06 -2.73695e-09 -6.67096e+06
46 2 5.55 3.7 -9.25 5.75577e+06 5.75577e+06 -3.32225e+07 -0 -1.42302e-09 -1.49979e-11 -6.82781e+06 -1.23794e+07 -6.82781e+06 2.08382e-12 -6.67096e+06
47 2 3.7 5.55 -9.25 5.75577e+06 5.75577e+06 -3.32225e+07 -0 -0 -1.43802e-09 -6.82781e+06 -1.23794e+07 -6.82781e+06 -0 -6.67096e+06
48 2 9.25 3.7 -9.25 -3.37763e+07 4.01698e+06 -3.37763e+07 3.88238e-11 -733490 7.22301e-11 1.98737e+08 -1.04212e+07 -1.02669e+07 2.05671e-10 -6.78809e+06
49 2 7.4 5.55 -9.25 5.75403e+06 5.75577e+06 -3.32225e+07 6.6704e-11 -4.62549 -1.10447e-09 -6.60987e+06 -1.24031e+07 -6.82781e+06 -5.62702e-09 -6.67096e+06
50 2 -9.25 7.4 -9.25 -3.37762e+07 4.00561e+06 -3.37762e+07 -285.505 733492 -285.505 1.98734e+08 -1.04407e+07 -9.34972e+06 45871.5 -6.81806e+06
51 2 -5.55 7.4 -9.25 5.75577e+06 5.75403e+06 -3.32225e+07 -3.77989e-10 3.3352e-10 -4.62549 -6.82781e+06 -1.23794e+07 -6.60987e+06 -2.93498e-09 -6.67269e+06
52 2 -7.4 9.25 -9.25 4.00561e+06 -3.37762e+07 -3.37762e+07 -285.505 285.505 -733492 -9.34972e+06 -1.03484e+07 1.98734e+08 7539.15 -4.45999e+07
53 2 -1.85 7.4 -9.25 5.75577e+06 5.75403e+06 -3.32225e+07 3.77989e-10 -3.3352e-10 -4.62549 -6.82781e+06 -1.23794e+07 -6.60987e+06 2.93498e-09 -6.67269e+06
54 2 -3.7 9.25 -9.25 4.01698e+06 -3.37763e+07 -3.37763e+07 5.2981e-12 2.77933e-12 -733490 -1.02669e+07 -1.0213e+07 1.98737e+08 -8.20338e-11 -4.45814e+07
55 2 1.85 7.4 -9.25 5.75577e+06 5.75403e+06 -3.32225e+07 -6.00336e-10 -9.11621e-10 -4.62549 -6.82781e+06 -1.23794e+07 -6.60987e+06 1.07171e-08 -6.67269e+06
56 2 0 9.25 -9.25 4.01698e+06 -3.37763e+07 -3.37763e+07 -7.25924e-10 1.62465e-09 -733490 -1.02669e+07 -1.0213e+07 1.98737e+08 7.69311e-09 -4.45814e+07
57 2 5.55 7.4 -9.25 5.75577e+06 5.75403e+06 -3.32225e+07 6.6704e-11 -1.0895e-09 -4.62549 -6.82781e+06 -1.23794e+07 -6.60987e+06 -4.24682e-09 -6.67269e+06
58 2 3.7 9.25 -9.25 4.01698e+06 -3.37763e+07 -3.37763e+07 -8.95616e-12 5.52542e-12 -733490 -1.02669e+07 -1.0213e+07 1.98737e+08 -2.0085e-11 -4.45814e+07
59 2 9.25 7.4 -9.25 -3.37762e+07 4.00561e+06 -3.37762e+07 285.505 -733492 -285.505 1.98734e+08 -1.04407e+07 -9.34972e+06 -45871.5 -6.81806e+06
60 2 7.4 9.25 -9.25 4.00561e+06 -3.37762e+07 -3.37762e+07 285.505 -285.505 -733492 -9.34972e+06 -1.03484e+07 1.98734e+08 -7539.15 -4.45999e+07
61 2 -9.25 -9.25 -7.4 -3.37762e+07 -3.37762e+07 4.00561e+06 733492 285.505 285.505 1.98734e+08 -1.43293e+07 1.98734e+08 4.14094e+06 -4.83532e+07
62 2 -5.55 -9.25 -7.4 5.75577e+06 -3.32225e+07 5.75403e+06 7.55867e-10 6.6704e-11 4.62549 -6.82781e+06 -8.23332e+06 2.09223e+08 -7.8232e-09 -4.2197e+07
63 2 -7.4 -9.25 -5.55 5.75403e+06 -3.32225e+07 5.75577e+06 4.62549 -0 7.78213e-10 -6.60987e+06 -8.24588e+06 2.09223e+08 -169.37 -4.21974e+07
64 2 -1.85 -9.25 -7.4 5.75577e+06 -3.32225e+07 5.75403e+06 -7.56012e-10 -6.6704e-11 4.62549 -6.82781e+06 -8.23332e+06 2.09223e+08 7.82769e-09 -4.2197e+07
65 2 -3.7 -9.25 -5.55 5.75577e+06 -3.32225e+07 5.75577e+06 -3.87858e-12 -0 3.3352e-10 -6.82781e+06 -8.23332e+06 2.09223e+08 -1.38771e-10 -4.2197e+07
66 2 1.85 -9.25 -7.4 5.75577e+06 -3.32225e+07 5.75403e+06 3.55901e-10 -0 4.62549 -6.82781e+06 -8.23332e+06 2.09223e+08 -5.34103e-09 -4.2197e+07
67 2 0 -9.25 -5.55 5.75577e+06 -3.32225e+07 5.75577e+06 -3.96408e-12 -1.77877e-10 1.06726e-09 -6.82781e+06 -8.23332e+06 2.09223e+08 2.6458e-10 -4.2197e+07
68 2 5.55 -9.25 -7.4 5.75577e+06 -3.32225e+07 5.75403e+06 -1.42298e-09 -2.22347e-11 4.62549 -6.82781e+06 -8.23332e+06 2.09223e+08 1.74308e-08 -4.2197e+07
69 2 3.7 -9.25 -5.55 5.75577e+06 -3.32225e+07 5.75577e+06 -3.71573e-12 -0 7.78213e-10 -6.82781e+06 -8.23332e+06 2.09223e+08 -1.44134e-10 -4.2197e+07
70 2 9.25 -9.25 -7.4 -3.37762e+07 -3.37762e+07 4.00561e+06 -733492 -285.505 285.505 1.98734e+08 -1.43293e+07 1.98734e+08 -4.14094e+06 -4.83532e+07
71 2 7.4 -9.25 -5.55 5.75403e+06 -3.32225e+07 5.75577e+06 -4.62549 -8.67152e-10 6.22571e-10 -6.60987e+06 -8.24588e+06 2.09223e+08 169.37 -4.21974e+07
72 2 -9.25 -5.55 -7.4 -3.32225e+07 5.75577e+06 5.75403e+06 7.59865e-10 4.62549 6.6704e-11 2.09223e+08 -8.25385e+06 -6.82781e+06 -3.94457e-09 -3.21871e+06
73 2 -9.25 -7.4 -5.55 -3.32225e+07 5.75403e+06 5.75577e+06 4.62549 7.55979e-10 -0 2.09223e+08 -8.25427e+06 -6.60987e+06 -1030.52 -3.22086e+06
74 2 -7.4 -7.4 -7.4 7.03256e+06 7.03256e+06 7.03256e+06 -0 -0 -0 8.10912e+06 568745 8.10912e+06 -0 7.59757e+06
75 2 -5.55 -5.55 -7.4 7.03291e+06 7.03291e+06 7.03256e+06 1.77877e-10 -0 -0 8.05601e+06 572479 8.05601e+06 1.33408e-10 7.59792e+06
76 2 -5.55 -7.4 -5.55 7.03291e+06 7.03256e+06 7.03291e+06 -0 1.77877e-10 -0 8.05601e+06 572479 8.10912e+06 -0 7.59757e+06
77 2 -7.4 -5.55 -5.55 7.03256e+06 7.03291e+06 7.03291e+06 -0 -0 1.77877e-10 8.10912e+06 568745 8.05601e+06 -0 7.59792e+06
78 2 -3.7 -7.4 -7.4 7.03291e+06 7.03256e+06 7.03256e+06 -0 -0 -0 8.05601e+06 572479 8.10912e+06 -0 7.59757e+06
79 2 -1.85 -5.55 -7.4 7.03291e+06 7.03291e+06 7.03256e+06 -1.77877e-10 -0 -0 8.05601e+06 572479 8.05601e+06 -1.33408e-10 7.59792e+06
80 2 -1.85 -7.4 -5.55 7.03291e+06 7.03256e+06 7.03291e+06 -0 -1.77877e-10 -0 8.05601e+06 572479 8.10912e+06 -0 7.59757e+06
81 2 -3.7 -5.55 -5.55 7.03291e+06 7.03291e+06 7.03291e+06 -0 -0 1.77877e-10 8.05601e+06 572479 8.05601e+06 -0 7.59792e+06
82 2 0 -7.4 -7.4 7.03291e+06 7.03256e+06 7.03256e+06 -0 -0 -0 8.05601e+06 572479 8.10912e+06 -3.47417e-13 7.59757e+06
83 2 1.85 -5.55 -7.4 7.03291e+06 7.03291e+06 7.03256e+06 -1.77877e-10 -0 -0 8.05601e+06 572479 8.05601e+06 5.5809e-09 7.59792e+06
84 2 1.85 -7.4 -5.55 7.03291e+06 7.03256e+06 7.03291e+06 -0 -1.77877e-10 -0 8.05601e+06 572479 8.10912e+06 -0 7.59757e+06
85 2 0 -5.55 -5.55 7.03291e+06 7.03291e+06 7.03291e+06 1.77877e-10 1.77877e-10 1.77877e-10 8.05601e+06 572479 8.05601e+06 -5.5809e-09 7.59792e+06
86 2 3.7 -7.4 -7.4 7.03291e+06 7.03256e+06 7.03256e+06 -0 -0 -0 8.05601e+06 572479 8.10912e+06 -0 7.59757e+06
87 2 5.55 -5.55 -7.4 7.03291e+06 7.03291e+06 7.03256e+06 1.77877e-10 -0 -0 8.05601e+06 572479 8.05601e+06 1.77704e-10 7.59792e+06
88 2 5.55 -7.4 -5.55 7.03291e+06 7.03256e+06 7.03291e+06 -0 1.77877e-10 -0 8.05601e+06 572479 8.10912e+06 -0 7.59757e+06
89 2 3.7 -5.55 -5.55 7.03291e+06 7.03291e+06 7.03291e+06 -0 -0 1.77877e-10 8.05601e+06 572479 8.05601e+06 -0 7.59792e+06
90 2 7.4 -7.4 -7.4 7.03256e+06 7.03256e+06 7.03256e+06 -0 -0 -0 8.10912e+06 568745 8.10912e+06 -1.73708e-13 7.59757e+06
91 2 9.25 -5.55 -7.4 -3.32225e+07 5.75577e+06 5.75403e+06 -9.37743e-10 -4.62549 6.6704e-11 2.09223e+08 -8.25385e+06 -6.82781e+06 9.63664e-09 -3.21871e+06
92 2 9.25 -7.4 -5.55 -3.32225e+07 5.75403e+06 5.75577e+06 -4.62549 -9.11621e-10 -0 2.09223e+08 -8.25427e+06 -6.60987e+06 1030.52 -3.22086e+06
93 2 7.4 -5.55 -5.55 7.03256e+06 7.03291e+06 7.03291e+06 -0 -0 1.77877e-10 8.10912e+06 568745 8.05601e+06 -5.7586e-09 7.59792e+06
94 2 -9.25 -1.85 -7.4 -3.32225e+07 5.75577e+06 5.75403e+06 -8.29802e-10 4.62549 -6.6704e-11 2.09223e+08 -8.25385e+06 -6.82781e+06 3.86275e-09 -3.21871e+06
95 2 -9.25 -3.7 -5.55 -3.32225e+07 5.75577e+06 5.75577e+06 -3.87722e-12 2.89051e-10 -0 2.09223e+08 -8.25384e+06 -6.82781e+06 1.19859e-10 -3.21871e+06
96 2 -7.4 -3.7 -7.4 7.03256e+06 7.03291e+06 7.03256e+06 -0 -0 -0 8.10912e+06 568745 8.05601e+06 -0 7.59792e+06
97 2 -5.55 -1.85 -7.4 7.03291e+06 7.03291e+06 7.03256e+06 -1.77877e-10 -0 -0 8.05601e+06 572479 8.05601e+06 -1.33408e-10 7.59792e+06
98 2 -5.55 -3.7 -5.55 7.03291e+06 7.03291e+06 7.03291e+06 -0 1.77877e-10 -0 8.05601e+06 572479 8.05601e+06 -1.73708e-13 7.59792e+06
99 2 -7.4 -1.85 -5.55 7.03256e+06 7.03291e+06 7.03291e+06 -0 -0 -1.77877e-10 8.10912e+06 568745 8.05601e+06 -0 7.59792e+06
100 2 -3.7 -3.7 -7.4 7.03291e+06 7.03291e+06 7.03256e+06 -0 -0 -0 8.05601e+06 572479 8.05601e+06 -0 7.59792e+06
101 2 -1.85 -1.85 -7.4 7.03291e+06 7.03291e+06 7.03256e+06 1.77877e-10 -0 -0 8.05601e+06 572479 8.05601e+06 1.33408e-10 7.59792e+06
102 2 -1.85 -3.7 -5.55 7.03291e+06 7.03291e+06 7.03291e+06 -0 -1.77877e-10 -0 8.05601e+06 572479 8.05601e+06 1.73708e-13 7.59792e+06
103 2 -3.7 -1.85 -5.55 7.03291e+06 7.03291e+06 7.03291e+06 -0 -0 -1.77877e-10 8.05601e+06 572479 8.05601e+06 -0 7.59792e+06
104 2 0 -3.7 -7.4 7.03291e+06 7.03291e+06 7.03256e+06 -0 -0 -0 8.05601e+06 572479 8.05601e+06 -0 7.59792e+06
105 2 1.85 -1.85 -7.4 7.03291e+06 7.03291e+06 7.03256e+06 1.77877e-10 -0 -0 8.05601e+06 572479 8.05601e+06 -5.5809e-09 7.59792e+06
106 2 1.85 -3.7 -5.55 7.03291e+06 7.03291e+06 7.03291e+06 -0 -1.77877e-10 -0 8.05601e+06 572479 8.05601e+06 1.73708e-13 7.59792e+06
107 2 0 -1.85 -5.55 7.03291e+06 7.03291e+06 7.03291e+06 -1.77877e-10 1.77877e-10 -1.77877e-10 8.05601e+06 572479 8.05601e+06 5.5809e-09 7.59792e+06
108 2 3.7 -3.7 -7.4 7.03291e+06 7.03291e+06 7.03256e+06 -0 -0 -0 8.05601e+06 572479 8.05601e+06 -0 7.59792e+06
109 2 5.55 -1.85 -7.4 7.03291e+06 7.03291e+06 7.03256e+06 -1.77877e-10 -0 -0 8.05601e+06 572479 8.05601e+06 -1.77877e-10 7.59792e+06
110 2 5.55 -3.7 -5.55 7.03291e+06 7.03291e+06 7.03291e+06 -0 1.77877e-10 -0 8.05601e+06 572479 8.05601e+06 -1.73708e-13 7.59792e+06
111 2 3.7 -1.85 -5.55 7.03291e+06 7.03291e+06 7.03291e+06 -0 -0 -1.77877e-10 8.05601e+06 572479 8.05601e+06 -0 7.59792e+06
112 2 7.4 -3.7 -7.4 7.03256e+06 7.03291e+06 7.03256e+06 -0 -0 -0 8.10912e+06 568745 8.05601e+06 -0 7.59792e+06
113 2 9.25 -1.85 -7.4 -3.32225e+07 5.75577e+06 5.75403e+06 9.29858e-10 -4.62549 -0 2.09223e+08 -8.25385e+06 -6.82781e+06 -9.55483e-09 -3.21871e+06
114 2 9.25 -3.7 -5.55 -3.32225e+07 5.75577e+06 5.75577e+06 4.83479e-11 -4.22459e-10 6.6704e-11 2.09223e+08 -8.25384e+06 -6.82781e+06 -3.02252e-11 -3.21871e+06
115 2 7.4 -1.85 -5.55 7.03256e+06 7.03291e+06 7.03291e+06 -0 -0 -1.77877e-10 8.10912e+06 568745 8.05601e+06 5.75895e-09 7.59792e+06
116 2 -9.25 1.85 -7.4 -3.32225e+07 5.75577e+06 5.75403e+06 2.81968e-10 4.62549 -0 2.09223e+08 -8.25385e+06 -6.82781e+06 -2.49617e-08 -3.21871e+06
117 2 -9.25 0 -5.55 -3.32225e+07 5.75577e+06 5.75577e+06 -3.96136e-12 1.06726e-09 -1.77877e-10 2.09223e+08 -8.25384e+06 -6.82781e+06 1.65461e-08 -3.21871e+06
118 2 -7.4 0 -7.4 7.03256e+06 7.03291e+06 7.03256e+06 -0 -0 -0 8.10912e+06 568745 8.05601e+06 -0 7.59792e+06
119 2 -5.55 1.85 -7.4 7.03291e+06 7.03291e+06 7.03256e+06 -1.77877e-10 -0 -0 8.05601e+06 572479 8.05601e+06 5.5809e-09 7.59792e+06
120 2 -5.55 0 -5.55 7.03291e+06 7.03291e+06 7.03291e+06 1.77877e-10 1.77877e-10 1.77877e-10 8.05601e+06 572479 8.05601e+06 -5.58073e-09 7.59792e+06
121 2 -7.4 1.85 -5.55 7.03256e+06 7.03291e+06 7.03291e+06 -0 -0 -1.77877e-10 8.10912e+06 568745 8.05601e+06 -0 7.59792e+06
122 2 -3.7 0 -7.4 7.03291e+06 7.03291e+06 7.03256e+06 -0 -0 -0 8.05601e+06 572479 8.05601e+06 -0 7.59792e+06
123 2 -1.85 1.85 -7.4 7.03291e+06 7.03291e+06 7.03256e+06 1.77877e-10 -0 -0 8.05601e+06 572479 8.05601e+06 -5.5809e-09 7.59792e+06
124 2 -1.85 0 -5.55 7.03291e+06 7.03291e+06 7.03291e+06 -1.77877e-10 -1.77877e-10 1.77877e-10 8.05601e+06 572479 8.05601e+06 5.58073e-09 7.59792e+06
125 2 -3.7 1.85 -5.55 7.03291e+06 7.03291e+06 7.03291e+06 -0 -0 -1.77877e-10 8.05601e+06 572479 8.05601e+06 -0 7.59792e+06
126 2 0 0 -7.4 7.03291e+06 7.03291e+06 7.03256e+06 -0 -0 -0 8.05601e+06 572479 8.05601e+06 6.6704e-11 7.59792e+06
127 2 1.85 1.85 -7.4 7.03291e+06 7.03291e+06 7.03256e+06 -0 -0 -0 8.05601e+06 572479 8.05601e+06 6.6704e-11 7.59792e+06
128 2 1.85 0 -5.55 7.03291e+06 7.03291e+06 7.03291e+06 -0 -1.77877e-10 1.77877e-10 8.05601e+06 572479 8.05601e+06 -6.6704e-11 7.59792e+06
129 2 0 1.85 -5.55 7.03291e+06 7.03291e+06 7.03291e+06 -0 1.77877e-10 -1.77877e-10 8.05601e+06 572479 8.05601e+06 -6.63566e-11 7.59792e+06
130 2 3.7 0 -7.4 7.03291e+06 7.03291e+06 7.03256e+06 -0 -0 -0 8.05601e+06 572479 8.05601e+06 -0 7.59792e+06
131 2 5.55 1.85 -7.4 7.03291e+06 7.03291e+06 7.03256e+06 -0 -0 -0 8.05601e+06 572479 8.05601e+06 -6.6704e-11 7.59792e+06
132 2 5.55 0 -5.55 7.03291e+06 7.03291e+06 7.03291e+06 -0 1.77877e-10 1.77877e-10 8.05601e+06 572479 8.05601e+06 6.70514e-11 7.59792e+06
133 2 3.7 1.85 -5.55 7.03291e+06 7.03291e+06 7.03291e+06 -0 -0 -1.77877e-10 8.05601e+06 572479 8.05601e+06 -0 7.59792e+06
134 2 7.4 0 -7.4 7.03256e+06 7.03291e+06 7.03256e+06 -0 -0 -0 8.10912e+06 568745 8.05601e+06 -0 7.59792e+06
135 2 9.25 1.85 -7.4 -3.32225e+07 5.75577e+06 5.75403e+06 -3.59786e-10 -4.62549 6.6704e-11 2.09223e+08 -8.25385e+06 -6.82781e+06 2.4961e-08 -3.21871e+06
136 2 9.25 0 -5.55 -3.32225e+07 5.75577e+06 5.75577e+06 3.73134e-11 -1.26738e-09 -2.22347e-10 2.09223e+08 -8.25384e+06 -6.82781e+06 -1.64137e-08 -3.21871e+06
137 2 7.4 1.85 -5.55 7.03256e+06 7.03291e+06 7.03291e+06 -0 -0 -1.77877e-10 8.10912e+06 568745 8.05601e+06 -0 7.59792e+06
138 2 -9.25 5.55 -7.4 -3.32225e+07 5.75577e+06 5.75403e+06 -1.49695e-09 4.62549 1.55643e-10 2.09223e+08 -8.25385e+06 -6.82781e+06 9.92952e-09 -3.21871e+06
139 2 -9.25 3.7 -5.55 -3.32225e+07 5.75577e+06 5.75577e+06 -3.71302e-12 7.78213e-10 -0 2.09223e+08 -8.25384e+06 -6.82781e+06 1.55295e-10 -3.21871e+06
140 2 -7.4 3.7 -7.4 7.03256e+06 7.03291e+06 7.03256e+06 -0 -0 -0 8.10912e+06 568745 8.05601e+06 -0 7.59792e+06
141 2 -5.55 5.55 -7.4 7.03291e+06 7.03291e+06 7.03256e+06 1.77877e-10 -0 -0 8.05601e+06 572479 8.05601e+06 2.00112e-10 7.59792e+06
142 2 -5.55 3.7 -5.55 7.03291e+06 7.03291e+06 7.03291e+06 -0 1.77877e-10 -0 8.05601e+06 572479 8.05601e+06 1.73708e-13 7.59792e+06
143 2 -7.4 5.55 -5.55 7.03256e+06 7.03291e+06 7.03291e+06 -0 -0 1.77877e-10 8.10912e+06 568745 8.05601e+06 -0 7.59792e+06
144 2 -3.7 3.7 -7.4 7.03291e+06 7.03291e+06 7.03256e+06 -0 -0 -0 8.05601e+06 572479 8.05601e+06 -0 7.59792e+06
145 2 -1.85 5.55 -7.4 7.03291e+06 7.03291e+06 7.03256e+06 -1.77877e-10 -0 -0 8.05601e+06 572479 8.05601e+06 -2.00112e-10 7.59792e+06
146 2 -1.85 3.7 -5.55 7.03291e+06 7.03291e+06 7.03291e+06 -0 -1.77877e-10 -0 8.05601e+06 572479 8.05601e+06 -1.73708e-13 7.59792e+06
147 2 -3.7 5.55 -5.55 7.03291e+06 7.03291e+06 7.03291e+06 -0 -0 1.77877e-10 8.05601e+06 572479 8.05601e+06 -0 7.59792e+06
148 2 0 3.7 -7.4 7.03291e+06 7.03291e+06 7.03256e+06 -0 -0 -0 8.05601e+06 572479 8.05601e+06 1.73708e-13 7.59792e+06
149 2 1.85 5.55 -7.4 7.03291e+06 7.03291e+06 7.03256e+06 -0 -0 -0 8.05601e+06 572479 8.05601e+06 -1.11173e-10 7.59792e+06
150 2 1.85 3.7 -5.55 7.03291e+06 7.03291e+06 7.03291e+06 -0 -1.77877e-10 -0 8.05601e+06 572479 8.05601e+06 -0 7.59792e+06
151 2 0 5.55 -5.55 7.03291e+06 7.03291e+06 7.03291e+06 -0 1.77877e-10 1.77877e-10 8.05601e+06 572479 8.05601e+06 1.11173e-10 7.59792e+06
152 2 3.7 3.7 -7.4 7.03291e+06 7.03291e+06 7.03256e+06 -0 -0 -0 8.05601e+06 572479 8.05601e+06 -0 7.59792e+06
153 2 5.55 5.55 -7.4 7.03291e+06 7.03291e+06 7.03256e+06 1.77877e-10 -0 -0 8.05601e+06 572479 8.05601e+06 4.44693e-11 7.59792e+06
154 2 5.55 3.7 -5.55 7.03291e+06 7.03291e+06 7.03291e+06 -0 1.77877e-10 -0 8.05601e+06 572479 8.05601e+06 5.21125e-13 7.59792e+06
155 2 3.7 5.55 -5.55 7.03291e+06 7.03291e+06 7.03291e+06 -0 -0 1.77877e-10 8.05601e+06 572479 8.05601e+06 -0 7.59792e+06
156 2 7.4 3.7 -7.4 7.03256e+06 7.03291e+06 7.03256e+06 -0 -0 -0 8.10912e+06 568745 8.05601e+06 -3.47417e-13 7.59792e+06
157 2 9.25 5.55 -7.4 -3.32225e+07 5.75577e+06 5.75403e+06 1.41913e-09 -4.62549 6.6704e-11 2.09223e+08 -8.25385e+06 -6.82781e+06 -9.92986e-09 -3.21871e+06
158 2 9.25 3.7 -5.55 -3.32225e+07 5.75577e+06 5.75577e+06 -7.40567e-12 -9.33856e-10 -0 2.09223e+08 -8.25384e+06 -6.82781e+06 1.73708e-12 -3.21871e+06
159 2 7.4 5.55 -5.55 7.03256e+06 7.03291e+06 7.03291e+06 -1.77877e-10 -0 1.77877e-10 8.10912e+06 568745 8.05601e+06 6.6704e-11 7.59792e+06
160 2 -9.25 9.25 -7.4 -3.37762e+07 -3.37762e+07 4.00561e+06 -733492 285.505 -285.505 1.98734e+08 -1.43293e+07 1.98734e+08 -4.14094e+06 -4.83532e+07
161 2 -9.25 7.4 -5.55 -3.32225e+07 5.75403e+06 5.75577e+06 -4.62549 6.22571e-10 -8.67152e-10 2.09223e+08 -8.25427e+06 -6.60987e+06 1030.52 -3.22086e+06
162 2 -7.4 7.4 -7.4 7.03256e+06 7.03256e+06 7.03256e+06 -0 -0 -0 8.10912e+06 568745 8.10912e+06 -0 7.59757e+06
163 2 -5.55 9.25 -7.4 5.75577e+06 -3.32225e+07 5.75403e+06 -9.33856e-10 -0 -4.62549 -6.82781e+06 -8.23332e+06 2.09223e+08 1.31629e-08 -4.2197e+07
164 2 -5.55 7.4 -5.55 7.03291e+06 7.03256e+06 7.03291e+06 -0 1.77877e-10 -0 8.05601e+06 572479 8.10912e+06 -5.78101e-09 7.59757e+06
165 2 -7.4 9.25 -5.55 5.75403e+06 -3.32225e+07 5.75577e+06 -4.62549 -0 -9.11621e-10 -6.60987e+06 -8.24588e+06 2.09223e+08 169.37 -4.21974e+07
166 2 -3.7 7.4 -7.4 7.03291e+06 7.03256e+06 7.03256e+06 -0 -0 -0 8.05601e+06 572479 8.10912e+06 -0 7.59757e+06
167 2 -1.85 9.25 -7.4 5.75577e+06 -3.32225e+07 5.75403e+06 9.33856e-10 -0 -4.62549 -6.82781e+06 -8.23332e+06 2.09223e+08 -1.31629e-08 -4.2197e+07
168 2 -1.85 7.4 -5.55 7.03291e+06 7.03256e+06 7.03291e+06 -0 -1.77877e-10 -0 8.05601e+06 572479 8.10912e+06 5.78101e-09 7.59757e+06
169 2 -3.7 9.25 -5.55 5.75577e+06 -3.32225e+07 5.75577e+06 3.87722e-12 -0 -4.22459e-10 -6.82781e+06 -8.23332e+06 2.09223e+08 1.38793e-10 -4.2197e+07
170 2 0 7.4 -7.4 7.03291e+06 7.03256e+06 7.03256e+06 -0 -0 -0 8.05601e+06 572479 8.10912e+06 -4.44693e-11 7.59757e+06
171 2 1.85 9.25 -7.4 5.75577e+06 -3.32225e+07 5.75403e+06 -3.55755e-10 -0 -4.62549 -6.82781e+06 -8.23332e+06 2.09223e+08 5.33632e-09 -4.2197e+07
172 2 1.85 7.4 -5.55 7.03291e+06 7.03256e+06 7.03291e+06 -0 -1.77877e-10 -0 8.05601e+06 572479 8.10912e+06 4.44693e-11 7.59757e+06
173 2 0 9.25 -5.55 5.75577e+06 -3.32225e+07 5.75577e+06 4.84307e-11 -2.22347e-10 -1.24514e-09 -6.82781e+06 -8.23332e+06 2.09223e+08 -5.75409e-10 -4.2197e+07
174 2 3.7 7.4 -7.4 7.03291e+06 7.03256e+06 7.03256e+06 -0 -0 -0 8.05601e+06 572479 8.10912e+06 -0 7.59757e+06
175 2 5.55 9.25 -7.4 5.75577e+06 -3.32225e+07 5.75403e+06 1.42302e-09 -0 -4.62549 -6.82781e+06 -8.23332e+06 2.09223e+08 -1.7432e-08 -4.2197e+07
176 2 5.55 7.4 -5.55 7.03291e+06 7.03256e+06 7.03291e+06 -1.77877e-10 1.77877e-10 -0 8.05601e+06 572479 8.10912e+06 2.22347e-11 7.59757e+06
177 2 3.7 9.25 -5.55 5.75577e+06 -3.32225e+07 5.75577e+06 3.71166e-12 -0 -9.11621e-10 -6.82781e+06 -8.23332e+06 2.09223e+08 1.44134e-10 -4.2197e+07
178 2 7.4 7.4 -7.4 7.03256e+06 7.03256e+06 7.03256e+06 1.77877e-10 -0 -0 8.10912e+06 568745 8.10912e+06 -6.6704e-11 7.59757e+06
179 2 9.25 9.25 -7.4 -3.37762e+07 -3.37762e+07 4.00561e+06 733492 -285.505 -285.505 1.98734e+08 -1.43293e+07 1.98734e+08 4.14094e+06 -4.83532e+07
180 2 9.25 7.4 -5.55 -3.32225e+07 5.75403e+06 5.75577e+06 4.62549 -8.22683e-10 -9.11621e-10 2.09223e+08 -8.25427e+06 -6.60987e+06 -1030.52 -3.22086e+06
181 2 7.4 9.25 -5.55 5.75403e+06 -3.32225e+07 5.75577e+06 4.62549 -8.44917e-10 -8.89387e-10 -6.60987e+06 -8.24588e+06 2.09223e+08 -169.37 -4.21974e+07
182 2 -9.25 -9.25 -3.7 -3.37763e+07 -3.37763e+07 4.01698e+06 733490 2.22347e-11 2.22347e-11 1.98737e+08 -1.4329e+07 1.98737e+08 4.14102e+06 -4.83533e+07
183 2 -5.55 -9.25 -3.7 5.75577e+06 -3.32225e+07 5.75577e+06 2.44457e-10 -6.6704e-11 6.6704e-11 -6.82781e+06 -8.23332e+06 2.09223e+08 -1.06687e-08 -4.2197e+07
184 2 -7.4 -9.25 -1.85 5.75403e+06 -3.32225e+07 5.75577e+06 4.62549 -0 -7.55979e-10 -6.60987e+06 -8.24588e+06 2.09223e+08 -169.37 -4.21974e+07
185 2 -1.85 -9.25 -3.7 5.75577e+06 -3.32225e+07 5.75577e+06 -2.44598e-10 6.6704e-11 6.6704e-11 -6.82781e+06 -8.23332e+06 2.09223e+08 1.06732e-08 -4.2197e+07
186 2 -3.7 -9.25 -1.85 5.75577e+06 -3.32225e+07 5.75577e+06 -3.87858e-12 -0 -3.55755e-10 -6.82781e+06 -8.23332e+06 2.09223e+08 -1.3875e-10 -4.2197e+07
187 2 1.85 -9.25 -3.7 5.75577e+06 -3.32225e+07 5.75577e+06 -2.66674e-10 -4.44693e-11 -2.22347e-11 -6.82781e+06 -8.23332e+06 2.09223e+08 4.62033e-09 -4.2197e+07
188 2 0 -9.25 -1.85 5.75577e+06 -3.32225e+07 5.75577e+06 -4.84321e-11 2.22347e-10 -1.1562e-09 -6.82781e+06 -8.23332e+06 2.09223e+08 2.19742e-10 -4.2197e+07
189 2 5.55 -9.25 -3.7 5.75577e+06 -3.32225e+07 5.75577e+06 -2.11226e-09 6.6704e-11 -6.6704e-11 -6.82781e+06 -8.23332e+06 2.09223e+08 2.02768e-08 -4.2197e+07
190 2 3.7 -9.25 -1.85 5.75577e+06 -3.32225e+07 5.75577e+06 -3.71302e-12 -0 -7.55979e-10 -6.82781e+06 -8.23332e+06 2.09223e+08 -1.44221e-10 -4.2197e+07
191 2 9.25 -9.25 -3.7 -3.37763e+07 -3.37763e+07 4.01698e+06 -733490 -4.44693e-11 -2.22347e-11 1.98737e+08 -1.4329e+07 1.98737e+08 -4.14102e+06 -4.83533e+07
192 2 7.4 -9.25 -1.85 5.75403e+06 -3.32225e+07 5.75577e+06 -4.62549 8.67152e-10 -8.89387e-10 -6.60987e+06 -8.24588e+06 2.09223e+08 169.37 -4.21974e+07
193 2 -9.25 -5.55 -3.7 -3.32225e+07 5.75577e+06 5.75577e+06 2.48332e-10 6.6704e-11 -6.6704e-11 2.09223e+08 -8.25384e+06 -6.82781e+06 -8.186e-09 -3.21871e+06
194 2 -9.25 -7.4 -1.85 -3.32225e+07 5.75403e+06 5.75577e+06 4.62549 -8.00448e-10 -0 2.09223e+08 -8.25427e+06 -6.60987e+06 -1030.52 -3.22086e+06
195 2 -7.4 -7.4 -3.7 7.03256e+06 7.03256e+06 7.03291e+06 -0 -0 -0 8.10912e+06 568745 8.10912e+06 -0 7.59757e+06
196 2 -5.55 -5.55 -3.7 7.03291e+06 7.03291e+06 7.03291e+06 1.77877e-10 -0 -0 8.05601e+06 572479 8.05601e+06 1.33408e-10 7.59792e+06
197 2 -5.55 -7.4 -1.85 7.03291e+06 7.03256e+06 7.03291e+06 -0 -1.77877e-10 -0 8.05601e+06 572479 8.10912e+06 -0 7.59757e+06
198 2 -7.4 -5.55 -1.85 7.03256e+06 7.03291e+06 7.03291e+06 -0 -0 -1.77877e-10 8.10912e+06 568745 8.05601e+06 -0 7.59792e+06
199 2 -3.7 -7.4 -3.7 7.03291e+06 7.03256e+06 7.03291e+06 -0 -0 -0 8.05601e+06 572479 8.10912e+06 -0 7.59757e+06
200 2 -1.85 -5.55 -3.7 7.03291e+06 7.03291e+06 7.03291e+06 -1.77877e-10 -0 -0 8.05601e+06 572479 8.05601e+06 -1.33408e-10 7.59792e+06
201 2 -1.85 -7.4 -1.85 7.03291e+06 7.03256e+06 7.03291e+06 -0 1.77877e-10 -0 8.05601e+06 572479 8.10912e+06 -0 7.59757e+06
202 2 -3.7 -5.55 -1.85 7.03291e+06 7.03291e+06 7.03291e+06 -0 -0 -1.77877e-10 8.05601e+06 572479 8.05601e+06 -0 7.59792e+06
203 2 0 -7.4 -3.7 7.03291e+06 7.03256e+06 7.03291e+06 -0 -0 -0 8.05601e+06 572479 8.10912e+06 -3.47417e-13 7.59757e+06
204 2 1.85 -5.55 -3.7 7.03291e+06 7.03291e+06 7.03291e+06 -1.77877e-10 -0 -0 8.05601e+06 572479 8.05601e+06 5.5809e-09 7.59792e+06
205 2 1.85 -7.4 -1.85 7.03291e+06 7.03256e+06 7.03291e+06 -0 1.77877e-10 -0 8.05601e+06 572479 8.10912e+06 -0 7.59757e+06
206 2 0 -5.55 -1.85 7.03291e+06 7.03291e+06 7.03291e+06 1.77877e-10 -1.77877e-10 -1.77877e-10 8.05601e+06 572479 8.05601e+06 -5.5809e-09 7.59792e+06
207 2 3.7 -7.4 -3.7 7.03291e+06 7.03256e+06 7.03291e+06 -0 -0 -0 8.05601e+06 572479 8.10912e+06 -0 7.59757e+06
208 2 5.55 -5.55 -3.7 7.03291e+06 7.03291e+06 7.03291e+06 1.77877e-10 -0 -0 8.05601e+06 572479 8.05601e+06 1.77704e-10 7.59792e+06
209 2 5.55 -7.4 -1.85 7.03291e+06 7.03256e+06 7.03291e+06 -0 -1.77877e-10 -0 8.05601e+06 572479 8.10912e+06 -0 7.59757e+06
210 2 3.7 -5.55 -1.85 7.03291e+06 7.03291e+06 7.03291e+06 -0 -0 -1.77877e-10 8.05601e+06 572479 8.05601e+06 -0 7.59792e+06
211 2 7.4 -7.4 -3.7 7.03256e+06 7.03256e+06 7.03291e+06 -0 -0 -0 8.10912e+06 568745 8.10912e+06 -1.73708e-13 7.59757e+06
212 2 9.25 -5.55 -3.7 -3.32225e+07 5.75577e+06 5.75577e+06 -4.26208e-10 -2.22347e-11 -0 2.09223e+08 -8.25384e+06 -6.82781e+06 1.38781e-08 -3.21871e+06
213 2 9.25 -7.4 -1.85 -3.32225e+07 5.75403e+06 5.75577e+06 -4.62549 9.33856e-10 6.6704e-11 2.09223e+08 -8.25427e+06 -6.60987e+06 1030.52 -3.22086e+06
214 2 7.4 -5.55 -1.85 7.03256e+06 7.03291e+06 7.03291e+06 -0 -0 -1.77877e-10 8.10912e+06 568745 8.05601e+06 -5.7586e-09 7.59792e+06