ITEM: TIMESTEP
0
ITEM: NUMBER OF ATOMS
665
ITEM: BOX BOUNDS xy xz yz pp pp pp
-1.0000000000000000e+01 1.0000000000000000e+01 0.0000000000000000e+00
-1.0000000000000000e+01 1.0000000000000000e+01 0.0000000000000000e+00
-1.0000000000000000e+01 1.0000000000000000e+01 0.0000000000000000e+00
ITEM: ATOMS id type x y z c_1[1] c_1[2] c_1[3] c_1[4] c_1[5] c_1[6] c_1[7] c_1[22]
1 2 -7.4 -9.25 -9.25 4.83809e+07 5.52936e+07 5.52936e+07 -6.92782e+06 -6.92782e+06 -8.13665e+06 1.30819e+07 2.88777e+06
2 2 -3.7 -9.25 -9.25 8.07018e+07 5.79365e+07 5.79365e+07 -0.103217 -0.103217 -6.78728e+06 2.26995e+07 3.59357e+06
3 2 0 -9.25 -9.25 8.07018e+07 5.79365e+07 5.79365e+07 -9.34931e-10 -1.41858e-09 -6.78728e+06 2.26995e+07 3.59357e+06
4 2 3.7 -9.25 -9.25 8.07018e+07 5.79365e+07 5.79365e+07 0.103217 0.103217 -6.78728e+06 2.26995e+07 3.59357e+06
5 2 7.4 -9.25 -9.25 4.83809e+07 5.52936e+07 5.52936e+07 6.92782e+06 6.92782e+06 -8.13665e+06 1.30819e+07 2.88777e+06
6 2 -9.25 -7.4 -9.25 5.52936e+07 4.83809e+07 5.52936e+07 -6.92782e+06 -8.13665e+06 -6.92782e+06 9.68121e+06 2.88777e+06
7 2 -5.55 -7.4 -9.25 5.12377e+07 3.56458e+07 4.8951e+07 75.9988 -43.2891 -3.56721e+06 1.51586e+07 3.46432e+06
8 2 -7.4 -5.55 -9.25 3.56458e+07 5.12377e+07 4.8951e+07 75.9988 -3.56721e+06 -43.2891 9.83543e+06 3.46432e+06
9 2 -1.85 -7.4 -9.25 5.12374e+07 3.56459e+07 4.8951e+07 1.71156e-17 1.07625e-09 -3.56719e+06 1.51586e+07 3.46432e+06
10 2 -3.7 -5.55 -9.25 5.10461e+07 5.10461e+07 5.01973e+07 -5.02765e-12 -0.00110772 -28.5004 1.51586e+07 3.46432e+06
11 2 1.85 -7.4 -9.25 5.12374e+07 3.56459e+07 4.8951e+07 -7.11509e-10 4.62836e-09 -3.56719e+06 1.51586e+07 3.46432e+06
12 2 0 -5.55 -9.25 5.10461e+07 5.10461e+07 5.01973e+07 1.06329e-12 -3.7281e-09 -28.5004 1.51586e+07 3.46432e+06
13 2 5.55 -7.4 -9.25 5.12377e+07 3.56458e+07 4.8951e+07 -75.9988 43.2891 -3.56721e+06 1.51586e+07 3.46432e+06
14 2 3.7 -5.55 -9.25 5.10461e+07 5.10461e+07 5.01973e+07 3.64822e-10 0.00110772 -28.5004 1.51586e+07 3.46432e+06
15 2 9.25 -7.4 -9.25 5.52936e+07 4.83809e+07 5.52936e+07 6.92782e+06 8.13665e+06 -6.92782e+06 9.68121e+06 2.88777e+06
16 2 7.4 -5.55 -9.25 3.56458e+07 5.12377e+07 4.8951e+07 -75.9988 3.56721e+06 -43.2891 9.83543e+06 3.46432e+06
17 2 -9.25 -3.7 -9.25 5.79365e+07 8.07018e+07 5.79365e+07 -0.103217 -6.78728e+06 -0.103217 9.79721e+06 3.59357e+06
18 2 -5.55 -3.7 -9.25 5.10461e+07 5.10461e+07 5.01973e+07 -1.25943e-11 -28.5004 -0.00110772 1.51586e+07 3.46432e+06
19 2 -7.4 -1.85 -9.25 3.56459e+07 5.12374e+07 4.8951e+07 -3.55755e-10 -3.56719e+06 1.62813e-09 9.83543e+06 3.46432e+06
20 2 -1.85 -3.7 -9.25 5.10461e+07 5.10461e+07 5.01973e+07 -2.1875e-14 1.12101e-09 -0.00110772 1.51586e+07 3.46432e+06
21 2 -3.7 -1.85 -9.25 5.10461e+07 5.10461e+07 5.01973e+07 3.35706e-19 -0.00110772 7.01223e-10 1.51586e+07 3.46432e+06
22 2 1.85 -3.7 -9.25 5.10461e+07 5.10461e+07 5.01973e+07 8.21998e-18 5.65463e-09 -0.00110772 1.51586e+07 3.46432e+06
23 2 0 -1.85 -9.25 5.10461e+07 5.10461e+07 5.01973e+07 1.50331e-12 -3.54579e-09 1.42302e-09 1.51586e+07 3.46432e+06
24 2 5.55 -3.7 -9.25 5.10461e+07 5.10461e+07 5.01973e+07 -4.90031e-15 28.5004 -0.00110772 1.51586e+07 3.46432e+06
25 2 3.7 -1.85 -9.25 5.10461e+07 5.10461e+07 5.01973e+07 -3.55755e-10 0.00110772 1.06726e-09 1.51586e+07 3.46432e+06
26 2 9.25 -3.7 -9.25 5.79365e+07 8.07018e+07 5.79365e+07 0.103217 6.78728e+06 -0.103217 9.79721e+06 3.59357e+06
27 2 7.4 -1.85 -9.25 3.56459e+07 5.12374e+07 4.8951e+07 -5.52332e-10 3.56719e+06 2.13453e-09 9.83543e+06 3.46432e+06
28 2 -9.25 0 -9.25 5.79365e+07 8.07018e+07 5.79365e+07 -1.42302e-09 -6.78728e+06 -1.7702e-09 9.79721e+06 3.59357e+06
29 2 -5.55 0 -9.25 5.10461e+07 5.10461e+07 5.01973e+07 -3.89718e-12 -28.5004 -3.9131e-09 1.51586e+07 3.46432e+06
30 2 -7.4 1.85 -9.25 3.56459e+07 5.12374e+07 4.8951e+07 -3.55755e-10 -3.56719e+06 4.82992e-09 9.83543e+06 3.46432e+06
31 2 -1.85 0 -9.25 5.10461e+07 5.10461e+07 5.01973e+07 4.72232e-12 1.77877e-09 -3.86745e-09 1.51586e+07 3.46432e+06
32 2 -3.7 1.85 -9.25 5.10461e+07 5.10461e+07 5.01973e+07 1.47877e-18 -0.00110772 5.68179e-09 1.51586e+07 3.46432e+06
33 2 1.85 0 -9.25 5.10461e+07 5.10461e+07 5.01973e+07 3.56568e-10 5.69207e-09 -3.9125e-09 1.51586e+07 3.46432e+06
34 2 0 1.85 -9.25 5.10461e+07 5.10461e+07 5.01973e+07 3.53408e-10 -3.54962e-09 5.33632e-09 1.51586e+07 3.46432e+06
35 2 5.55 0 -9.25 5.10461e+07 5.10461e+07 5.01973e+07 -1.06964e-09 28.5004 -2.98153e-09 1.51586e+07 3.46432e+06
36 2 3.7 1.85 -9.25 5.10461e+07 5.10461e+07 5.01973e+07 -3.55755e-10 0.00110772 4.62481e-09 1.51586e+07 3.46432e+06
37 2 9.25 0 -9.25 5.79365e+07 8.07018e+07 5.79365e+07 7.11509e-10 6.78728e+06 -1.06752e-09 9.79721e+06 3.59357e+06
38 2 7.4 1.85 -9.25 3.56459e+07 5.12374e+07 4.8951e+07 -2.08891e-10 3.56719e+06 3.9133e-09 9.83543e+06 3.46432e+06
39 2 -9.25 3.7 -9.25 5.79365e+07 8.07018e+07 5.79365e+07 0.103217 -6.78728e+06 0.103217 9.79721e+06 3.59357e+06
40 2 -5.55 3.7 -9.25 5.10461e+07 5.10461e+07 5.01973e+07 3.58432e-10 -28.5004 0.00110772 1.51586e+07 3.46432e+06
41 2 -7.4 5.55 -9.25 3.56458e+07 5.12377e+07 4.8951e+07 -75.9988 -3.56721e+06 43.2891 9.83543e+06 3.46432e+06
42 2 -1.85 3.7 -9.25 5.10461e+07 5.10461e+07 5.01973e+07 -3.5252e-10 7.11508e-10 0.00110772 1.51586e+07 3.46432e+06
43 2 -3.7 5.55 -9.25 5.10461e+07 5.10461e+07 5.01973e+07 3.55755e-10 -0.00110772 28.5004 1.51586e+07 3.46432e+06
44 2 1.85 3.7 -9.25 5.10461e+07 5.10461e+07 5.01973e+07 -3.57186e-10 4.62481e-09 0.00110772 1.51586e+07 3.46432e+06
45 2 0 5.55 -9.25 5.10461e+07 5.10461e+07 5.01973e+07 -1.0588e-09 -3.01544e-09 28.5004 1.51586e+07 3.46432e+06
46 2 5.55 3.7 -9.25 5.10461e+07 5.10461e+07 5.01973e+07 -5.15983e-13 28.5004 0.00110772 1.51586e+07 3.46432e+06
47 2 3.7 5.55 -9.25 5.10461e+07 5.10461e+07 5.01973e+07 -3.55755e-10 0.00110773 28.5004 1.51586e+07 3.46432e+06
48 2 9.25 3.7 -9.25 5.79365e+07 8.07018e+07 5.79365e+07 -0.103217 6.78728e+06 0.103217 9.79721e+06 3.59357e+06
49 2 7.4 5.55 -9.25 3.56458e+07 5.12377e+07 4.8951e+07 75.9988 3.56721e+06 43.2891 9.83543e+06 3.46432e+06
50 2 -9.25 7.4 -9.25 5.52936e+07 4.83809e+07 5.52936e+07 6.92782e+06 -8.13665e+06 6.92782e+06 9.68121e+06 2.88777e+06
51 2 -5.55 7.4 -9.25 5.12377e+07 3.56458e+07 4.8951e+07 -75.9988 -43.2891 3.56721e+06 1.51586e+07 3.46432e+06
52 2 -7.4 9.25 -9.25 4.83809e+07 5.52936e+07 5.52936e+07 6.92782e+06 -6.92782e+06 8.13665e+06 1.30819e+07 2.88777e+06
53 2 -1.85 7.4 -9.25 5.12374e+07 3.56459e+07 4.8951e+07 1.49388e-10 2.3124e-09 3.56719e+06 1.51586e+07 3.46432e+06
54 2 -3.7 9.25 -9.25 8.07018e+07 5.79365e+07 5.79365e+07 0.103217 -0.103217 6.78728e+06 2.26995e+07 3.59357e+06
55 2 1.85 7.4 -9.25 5.12374e+07 3.56459e+07 4.8951e+07 -9.17404e-10 4.09117e-09 3.56719e+06 1.51586e+07 3.46432e+06
56 2 0 9.25 -9.25 8.07018e+07 5.79365e+07 5.79365e+07 1.06726e-09 -1.06724e-09 6.78728e+06 2.26995e+07 3.59357e+06
57 2 5.55 7.4 -9.25 5.12377e+07 3.56458e+07 4.8951e+07 75.9988 43.2891 3.56721e+06 1.51586e+07 3.46432e+06
58 2 3.7 9.25 -9.25 8.07018e+07 5.79365e+07 5.79365e+07 -0.103217 0.103217 6.78728e+06 2.26995e+07 3.59357e+06
59 2 9.25 7.4 -9.25 5.52936e+07 4.83809e+07 5.52936e+07 -6.92782e+06 8.13665e+06 6.92782e+06 9.68121e+06 2.88777e+06
60 2 7.4 9.25 -9.25 4.83809e+07 5.52936e+07 5.52936e+07 -6.92782e+06 6.92782e+06 8.13665e+06 1.30819e+07 2.88777e+06
61 2 -9.25 -9.25 -7.4 5.52936e+07 5.52936e+07 4.83809e+07 -8.13665e+06 -6.92782e+06 -6.92782e+06 9.68121e+06 2.67618e+06
62 2 -5.55 -9.25 -7.4 5.12377e+07 4.8951e+07 3.56458e+07 -43.2891 75.9988 -3.56721e+06 1.51586e+07 2.72304e+06
63 2 -7.4 -9.25 -5.55 3.56458e+07 4.8951e+07 5.12377e+07 -3.56721e+06 75.9988 -43.2891 9.83543e+06 2.3353e+06
64 2 -1.85 -9.25 -7.4 5.12374e+07 4.8951e+07 3.56459e+07 1.45195e-09 -3.55755e-10 -3.56719e+06 1.51586e+07 2.72304e+06
65 2 -3.7 -9.25 -5.55 5.10461e+07 5.01973e+07 5.10461e+07 -0.00110772 3.25662e-14 -28.5004 1.51586e+07 2.72304e+06
66 2 1.85 -9.25 -7.4 5.12374e+07 4.8951e+07 3.56459e+07 4.60501e-09 -7.11509e-10 -3.56719e+06 1.51586e+07 2.72304e+06
67 2 0 -9.25 -5.55 5.10461e+07 5.01973e+07 5.10461e+07 -2.8469e-09 -3.46323e-10 -28.5004 1.51586e+07 2.72304e+06
68 2 5.55 -9.25 -7.4 5.12377e+07 4.8951e+07 3.56458e+07 43.2891 -75.9988 -3.56721e+06 1.51586e+07 2.72304e+06
69 2 3.7 -9.25 -5.55 5.10461e+07 5.01973e+07 5.10461e+07 0.00110772 -3.34663e-13 -28.5004 1.51586e+07 2.72304e+06
70 2 9.25 -9.25 -7.4 5.52936e+07 5.52936e+07 4.83809e+07 8.13665e+06 6.92782e+06 -6.92782e+06 9.68121e+06 2.67618e+06
71 2 7.4 -9.25 -5.55 3.56458e+07 4.8951e+07 5.12377e+07 3.56721e+06 -75.9988 -43.2891 9.83543e+06 2.3353e+06
72 2 -9.25 -5.55 -7.4 4.8951e+07 5.12377e+07 3.56458e+07 -43.2891 -3.56721e+06 75.9988 7.04415e+06 2.72304e+06
73 2 -9.25 -7.4 -5.55 4.8951e+07 3.56458e+07 5.12377e+07 -3.56721e+06 -43.2891 75.9988 7.04415e+06 2.3353e+06
74 2 -7.4 -7.4 -7.4 2.43647e+07 2.43647e+07 2.43647e+07 -135336 -135336 -135336 7.15579e+06 2.09588e+06
75 2 -5.55 -5.55 -7.4 3.12104e+07 3.12104e+07 2.4217e+07 -6.1435e-06 8.60624 8.60624 1.01198e+07 2.09588e+06
76 2 -5.55 -7.4 -5.55 3.12104e+07 2.4217e+07 3.12104e+07 8.60624 -6.1435e-06 8.60624 1.01198e+07 2.09588e+06
77 2 -7.4 -5.55 -5.55 2.4217e+07 3.12104e+07 3.12104e+07 8.60624 8.60624 -6.14349e-06 7.15579e+06 2.09588e+06
78 2 -3.7 -7.4 -7.4 3.14195e+07 2.4291e+07 2.4291e+07 -7.60816e-11 -1.58067e-14 -135245 1.01198e+07 2.09588e+06
79 2 -1.85 -5.55 -7.4 3.12103e+07 3.12104e+07 2.4217e+07 -3.79312e-10 -0 8.60624 1.01198e+07 2.09588e+06
80 2 -1.85 -7.4 -5.55 3.12103e+07 2.4217e+07 3.12104e+07 -0 -3.79312e-10 8.60624 1.01198e+07 2.09588e+06
81 2 -3.7 -5.55 -5.55 3.10011e+07 3.10011e+07 3.10011e+07 6.1726e-12 4.26235e-15 -6.14459e-06 1.01198e+07 2.09588e+06
82 2 0 -7.4 -7.4 3.14195e+07 2.4291e+07 2.4291e+07 6.4681e-10 1.17719e-11 -135245 1.01198e+07 2.09588e+06
83 2 1.85 -5.55 -7.4 3.12103e+07 3.12104e+07 2.4217e+07 -1.94565e-11 -7.11509e-10 8.60624 1.01198e+07 2.09588e+06
84 2 1.85 -7.4 -5.55 3.12103e+07 2.4217e+07 3.12104e+07 -3.55755e-10 3.36298e-10 8.60624 1.01198e+07 2.09588e+06
85 2 0 -5.55 -5.55 3.10011e+07 3.10011e+07 3.10011e+07 -3.32351e-10 -3.43962e-10 -6.14424e-06 1.01198e+07 2.09588e+06
86 2 3.7 -7.4 -7.4 3.14195e+07 2.4291e+07 2.4291e+07 -1.14636e-09 -1.06729e-09 -135245 1.01198e+07 2.09588e+06
87 2 5.55 -5.55 -7.4 3.12104e+07 3.12104e+07 2.4217e+07 6.14534e-06 -8.60624 8.60624 1.01198e+07 2.09588e+06
88 2 5.55 -7.4 -5.55 3.12104e+07 2.4217e+07 3.12104e+07 -8.60624 6.14534e-06 8.60624 1.01198e+07 2.09588e+06
89 2 3.7 -5.55 -5.55 3.10011e+07 3.10011e+07 3.10011e+07 2.59013e-11 2.84054e-14 -6.14424e-06 1.01198e+07 2.09588e+06
90 2 7.4 -7.4 -7.4 2.43647e+07 2.43647e+07 2.43647e+07 135336 135336 -135336 7.15579e+06 2.09588e+06
91 2 9.25 -5.55 -7.4 4.8951e+07 5.12377e+07 3.56458e+07 43.2891 3.56721e+06 75.9988 7.04415e+06 2.72304e+06
92 2 9.25 -7.4 -5.55 4.8951e+07 3.56458e+07 5.12377e+07 3.56721e+06 43.2891 75.9988 7.04415e+06 2.3353e+06
93 2 7.4 -5.55 -5.55 2.4217e+07 3.12104e+07 3.12104e+07 -8.60624 -8.60624 -6.14353e-06 7.15579e+06 2.09588e+06
94 2 -9.25 -1.85 -7.4 4.8951e+07 5.12374e+07 3.56459e+07 1.42302e-09 -3.56719e+06 -3.55755e-10 7.04415e+06 2.72304e+06
95 2 -9.25 -3.7 -5.55 5.01973e+07 5.10461e+07 5.10461e+07 -0.00110772 -28.5004 3.55791e-10 7.10787e+06 2.72304e+06
96 2 -7.4 -3.7 -7.4 2.4291e+07 3.14195e+07 2.4291e+07 -7.36242e-11 -135245 -0 7.15579e+06 2.09588e+06
97 2 -5.55 -1.85 -7.4 3.12104e+07 3.12103e+07 2.4217e+07 -3.75381e-10 8.60624 -0 1.01198e+07 2.09588e+06
98 2 -5.55 -3.7 -5.55 3.10011e+07 3.10011e+07 3.10011e+07 4.59992e-15 -6.14459e-06 4.26235e-15 1.01198e+07 2.09588e+06
99 2 -7.4 -1.85 -5.55 2.4217e+07 3.12103e+07 3.12104e+07 -0 8.60624 -3.52062e-10 7.15579e+06 2.09588e+06
100 2 -3.7 -3.7 -7.4 3.12103e+07 3.12103e+07 2.42171e+07 -7.95736e-12 -2.79206e-18 -3.55755e-10 1.01198e+07 2.09588e+06
101 2 -1.85 -1.85 -7.4 3.12103e+07 3.12103e+07 2.42171e+07 3.65231e-10 3.45514e-10 -0 1.01198e+07 2.09588e+06
102 2 -1.85 -3.7 -5.55 3.10011e+07 3.10011e+07 3.10011e+07 -4.37088e-15 2.40016e-12 2.4064e-12 1.01198e+07 2.09588e+06
103 2 -3.7 -1.85 -5.55 3.10011e+07 3.10011e+07 3.10011e+07 -0 6.99414e-12 1.58864e-12 1.01198e+07 2.09588e+06
104 2 0 -3.7 -7.4 3.12103e+07 3.12103e+07 2.42171e+07 6.56306e-12 7.11106e-10 -0 1.01198e+07 2.09588e+06
105 2 1.85 -1.85 -7.4 3.12103e+07 3.12103e+07 2.42171e+07 -6.92382e-10 -7.16494e-10 -3.55755e-10 1.01198e+07 2.09588e+06
106 2 1.85 -3.7 -5.55 3.10011e+07 3.10011e+07 3.10011e+07 1.42499e-16 3.46456e-10 -1.73346e-11 1.01198e+07 2.09588e+06
107 2 0 -1.85 -5.55 3.10011e+07 3.10011e+07 3.10011e+07 7.17307e-10 -3.53495e-10 2.73213e-16 1.01198e+07 2.09588e+06
108 2 3.7 -3.7 -7.4 3.12103e+07 3.12103e+07 2.42171e+07 -1.79808e-12 -7.11509e-10 3.55755e-10 1.01198e+07 2.09588e+06
109 2 5.55 -1.85 -7.4 3.12104e+07 3.12103e+07 2.4217e+07 -3.98384e-11 -8.60624 -7.11509e-10 1.01198e+07 2.09588e+06
110 2 5.55 -3.7 -5.55 3.10011e+07 3.10011e+07 3.10011e+07 -1.18978e-15 6.1439e-06 -3.55588e-10 1.01198e+07 2.09588e+06
111 2 3.7 -1.85 -5.55 3.10011e+07 3.10011e+07 3.10011e+07 8.11883e-13 4.40225e-12 -1.879e-16 1.01198e+07 2.09588e+06
112 2 7.4 -3.7 -7.4 2.4291e+07 3.14195e+07 2.4291e+07 8.01354e-11 135245 -0 7.15579e+06 2.09588e+06
113 2 9.25 -1.85 -7.4 4.8951e+07 5.12374e+07 3.56459e+07 -2.13453e-09 3.56719e+06 -3.55755e-10 7.04415e+06 2.72304e+06
114 2 9.25 -3.7 -5.55 5.01973e+07 5.10461e+07 5.10461e+07 0.00110772 28.5004 3.55784e-10 7.10787e+06 2.72304e+06
115 2 7.4 -1.85 -5.55 2.4217e+07 3.12103e+07 3.12104e+07 3.14512e-12 -8.60624 -3.55755e-10 7.15579e+06 2.09588e+06
116 2 -9.25 1.85 -7.4 4.8951e+07 5.12374e+07 3.56459e+07 4.26906e-09 -3.56719e+06 -3.55755e-10 7.04415e+06 2.72304e+06
117 2 -9.25 0 -5.55 5.01973e+07 5.10461e+07 5.10461e+07 -2.84604e-09 -28.5004 -6.97737e-10 7.10787e+06 2.72304e+06
118 2 -7.4 0 -7.4 2.4291e+07 3.14195e+07 2.4291e+07 6.40879e-10 -135245 5.43736e-12 7.15579e+06 2.09588e+06
119 2 -5.55 1.85 -7.4 3.12104e+07 3.12103e+07 2.4217e+07 -1.59315e-11 8.60624 -7.11509e-10 1.01198e+07 2.09588e+06
120 2 -5.55 0 -5.55 3.10011e+07 3.10011e+07 3.10011e+07 -3.46893e-10 -6.14424e-06 -3.50297e-10 1.01198e+07 2.09588e+06
121 2 -7.4 1.85 -5.55 2.4217e+07 3.12103e+07 3.12104e+07 -7.11509e-10 8.60624 3.5612e-10 7.15579e+06 2.09588e+06
122 2 -3.7 0 -7.4 3.12103e+07 3.12103e+07 2.42171e+07 6.32373e-12 -0 7.17834e-10 1.01198e+07 2.09588e+06
123 2 -1.85 1.85 -7.4 3.12103e+07 3.12103e+07 2.42171e+07 -6.99725e-10 -9.49422e-13 -7.11509e-10 1.01198e+07 2.09588e+06
124 2 -1.85 0 -5.55 3.10011e+07 3.10011e+07 3.10011e+07 7.21318e-10 2.73213e-16 -3.49485e-10 1.01198e+07 2.09588e+06
125 2 -3.7 1.85 -5.55 3.10011e+07 3.10011e+07 3.10011e+07 -0 -3.81395e-12 6.93359e-10 1.01198e+07 2.09588e+06
126 2 0 0 -7.4 3.12103e+07 3.12103e+07 2.42171e+07 -6.99746e-10 3.61648e-10 2.4762e-15 1.01198e+07 2.09588e+06
127 2 1.85 1.85 -7.4 3.12103e+07 3.12103e+07 2.42171e+07 -7.09767e-10 -7.1201e-10 -7.11509e-10 1.01198e+07 2.09588e+06
128 2 1.85 0 -5.55 3.10011e+07 3.10011e+07 3.10011e+07 4.07143e-12 7.11509e-10 -7.16741e-10 1.01198e+07 2.09588e+06
129 2 0 1.85 -5.55 3.10011e+07 3.10011e+07 3.10011e+07 3.56252e-10 -7.14546e-10 7.11509e-10 1.01198e+07 2.09588e+06
130 2 3.7 0 -7.4 3.12103e+07 3.12103e+07 2.42171e+07 9.23027e-12 4.26565e-17 3.55757e-10 1.01198e+07 2.09588e+06
131 2 5.55 1.85 -7.4 3.12104e+07 3.12103e+07 2.4217e+07 7.08041e-10 -8.60624 3.55755e-10 1.01198e+07 2.09588e+06
132 2 5.55 0 -5.55 3.10011e+07 3.10011e+07 3.10011e+07 -3.57895e-10 6.14388e-06 1.48352e-11 1.01198e+07 2.09588e+06
133 2 3.7 1.85 -5.55 3.10011e+07 3.10011e+07 3.10011e+07 3.55349e-10 4.8096e-12 3.55755e-10 1.01198e+07 2.09588e+06
134 2 7.4 0 -7.4 2.4291e+07 3.14195e+07 2.4291e+07 -2.81766e-10 135245 3.55757e-10 7.15579e+06 2.09588e+06
135 2 9.25 1.85 -7.4 4.8951e+07 5.12374e+07 3.56459e+07 -5.69207e-09 3.56719e+06 -3.55755e-10 7.04415e+06 2.72304e+06
136 2 9.25 0 -5.55 5.01973e+07 5.10461e+07 5.10461e+07 3.55755e-09 28.5004 -1.06727e-09 7.10787e+06 2.72304e+06
137 2 7.4 1.85 -5.55 2.4217e+07 3.12103e+07 3.12104e+07 -1.24756e-11 -8.60624 1.02587e-16 7.15579e+06 2.09588e+06
138 2 -9.25 5.55 -7.4 4.8951e+07 5.12377e+07 3.56458e+07 43.2891 -3.56721e+06 -75.9988 7.04415e+06 2.72304e+06
139 2 -9.25 3.7 -5.55 5.01973e+07 5.10461e+07 5.10461e+07 0.00110772 -28.5004 -3.55284e-10 7.10787e+06 2.72304e+06
140 2 -7.4 3.7 -7.4 2.4291e+07 3.14195e+07 2.4291e+07 -1.12876e-09 -135245 -7.1235e-10 7.15579e+06 2.09588e+06
141 2 -5.55 5.55 -7.4 3.12104e+07 3.12104e+07 2.4217e+07 6.14534e-06 8.60624 -8.60624 1.01198e+07 2.09588e+06
142 2 -5.55 3.7 -5.55 3.10011e+07 3.10011e+07 3.10011e+07 2.54975e-11 -6.14424e-06 2.88665e-14 1.01198e+07 2.09588e+06
143 2 -7.4 5.55 -5.55 2.4217e+07 3.12104e+07 3.12104e+07 -8.60624 8.60624 6.14532e-06 7.15579e+06 2.09588e+06
144 2 -3.7 3.7 -7.4 3.12103e+07 3.12103e+07 2.42171e+07 -2.75928e-14 -0 -7.11538e-10 1.01198e+07 2.09588e+06
145 2 -1.85 5.55 -7.4 3.12103e+07 3.12104e+07 2.4217e+07 -2.45693e-11 -7.25141e-10 -8.60624 1.01198e+07 2.09588e+06
146 2 -1.85 3.7 -5.55 3.10011e+07 3.10011e+07 3.10011e+07 3.59336e-10 4.26565e-17 1.29358e-11 1.01198e+07 2.09588e+06
147 2 -3.7 5.55 -5.55 3.10011e+07 3.10011e+07 3.10011e+07 3.55755e-10 -2.1898e-12 6.14388e-06 1.01198e+07 2.09588e+06
148 2 0 3.7 -7.4 3.12103e+07 3.12103e+07 2.42171e+07 7.45658e-12 3.63648e-10 -3.55755e-10 1.01198e+07 2.09588e+06
149 2 1.85 5.55 -7.4 3.12103e+07 3.12104e+07 2.4217e+07 1.06293e-09 3.47073e-10 -8.60624 1.01198e+07 2.09588e+06
150 2 1.85 3.7 -5.55 3.10011e+07 3.10011e+07 3.10011e+07 3.53041e-10 3.55755e-10 2.50347e-12 1.01198e+07 2.09588e+06
151 2 0 5.55 -5.55 3.10011e+07 3.10011e+07 3.10011e+07 -3.4228e-10 2.74905e-11 6.14388e-06 1.01198e+07 2.09588e+06
152 2 3.7 3.7 -7.4 3.12103e+07 3.12103e+07 2.42171e+07 3.52726e-10 -4.26565e-17 -1.2797e-16 1.01198e+07 2.09588e+06
153 2 5.55 5.55 -7.4 3.12104e+07 3.12104e+07 2.4217e+07 -6.1446e-06 -8.60624 -8.60624 1.01198e+07 2.09588e+06
154 2 5.55 3.7 -5.55 3.10011e+07 3.10011e+07 3.10011e+07 -1.19669e-13 6.14424e-06 3.70714e-10 1.01198e+07 2.09588e+06
155 2 3.7 5.55 -5.55 3.10011e+07 3.10011e+07 3.10011e+07 4.05954e-13 3.46587e-10 6.14424e-06 1.01198e+07 2.09588e+06
156 2 7.4 3.7 -7.4 2.4291e+07 3.14195e+07 2.4291e+07 7.68197e-10 135245 -1.06726e-09 7.15579e+06 2.09588e+06
157 2 9.25 5.55 -7.4 4.8951e+07 5.12377e+07 3.56458e+07 -43.2891 3.56721e+06 -75.9988 7.04415e+06 2.72304e+06
158 2 9.25 3.7 -5.55 5.01973e+07 5.10461e+07 5.10461e+07 -0.00110772 28.5004 -3.55753e-10 7.10787e+06 2.72304e+06
159 2 7.4 5.55 -5.55 2.4217e+07 3.12104e+07 3.12104e+07 8.60624 -8.60624 6.14495e-06 7.15579e+06 2.09588e+06
160 2 -9.25 9.25 -7.4 5.52936e+07 5.52936e+07 4.83809e+07 8.13665e+06 -6.92782e+06 6.92782e+06 9.68121e+06 2.67618e+06
161 2 -9.25 7.4 -5.55 4.8951e+07 3.56458e+07 5.12377e+07 3.56721e+06 -43.2891 -75.9988 7.04415e+06 2.3353e+06
162 2 -7.4 7.4 -7.4 2.43647e+07 2.43647e+07 2.43647e+07 135336 -135336 135336 7.15579e+06 2.09588e+06
163 2 -5.55 9.25 -7.4 5.12377e+07 4.8951e+07 3.56458e+07 43.2891 75.9988 3.56721e+06 1.51586e+07 2.72304e+06
164 2 -5.55 7.4 -5.55 3.12104e+07 2.4217e+07 3.12104e+07 -8.60624 -6.14353e-06 -8.60624 1.01198e+07 2.09588e+06
165 2 -7.4 9.25 -5.55 3.56458e+07 4.8951e+07 5.12377e+07 3.56721e+06 75.9988 43.2891 9.83543e+06 2.3353e+06
166 2 -3.7 7.4 -7.4 3.14195e+07 2.4291e+07 2.4291e+07 7.89235e-11 -0 135245 1.01198e+07 2.09588e+06
167 2 -1.85 9.25 -7.4 5.12374e+07 4.8951e+07 3.56459e+07 -2.13453e-09 -1.06726e-09 3.56719e+06 1.51586e+07 2.72304e+06
168 2 -1.85 7.4 -5.55 3.12103e+07 2.4217e+07 3.12104e+07 3.53961e-10 -3.55755e-10 -8.60624 1.01198e+07 2.09588e+06
169 2 -3.7 9.25 -5.55 5.10461e+07 5.01973e+07 5.10461e+07 0.00110772 -2.84375e-15 28.5004 1.51586e+07 2.72304e+06
170 2 0 7.4 -7.4 3.14195e+07 2.4291e+07 2.4291e+07 -2.77191e-10 7.09772e-10 135245 1.01198e+07 2.09588e+06
171 2 1.85 9.25 -7.4 5.12374e+07 4.8951e+07 3.56459e+07 -4.62481e-09 -0 3.56719e+06 1.51586e+07 2.72304e+06
172 2 1.85 7.4 -5.55 3.12103e+07 2.4217e+07 3.12104e+07 -1.86111e-11 -2.73213e-16 -8.60624 1.01198e+07 2.09588e+06
173 2 0 9.25 -5.55 5.10461e+07 5.01973e+07 5.10461e+07 3.55755e-09 -3.55754e-10 28.5004 1.51586e+07 2.72304e+06
174 2 3.7 7.4 -7.4 3.14195e+07 2.4291e+07 2.4291e+07 4.85007e-11 -7.11187e-10 135245 1.01198e+07 2.09588e+06
175 2 5.55 9.25 -7.4 5.12377e+07 4.8951e+07 3.56458e+07 -43.2891 -75.9988 3.56721e+06 1.51586e+07 2.72304e+06
176 2 5.55 7.4 -5.55 3.12104e+07 2.4217e+07 3.12104e+07 8.60624 6.14531e-06 -8.60624 1.01198e+07 2.09588e+06
177 2 3.7 9.25 -5.55 5.10461e+07 5.01973e+07 5.10461e+07 -0.00110772 3.03823e-16 28.5004 1.51586e+07 2.72304e+06
178 2 7.4 7.4 -7.4 2.43647e+07 2.43647e+07 2.43647e+07 -135336 135336 135336 7.15579e+06 2.09588e+06
179 2 9.25 9.25 -7.4 5.52936e+07 5.52936e+07 4.83809e+07 -8.13665e+06 6.92782e+06 6.92782e+06 9.68121e+06 2.67618e+06
180 2 9.25 7.4 -5.55 4.8951e+07 3.56458e+07 5.12377e+07 -3.56721e+06 43.2891 -75.9988 7.04415e+06 2.3353e+06
181 2 7.4 9.25 -5.55 3.56458e+07 4.8951e+07 5.12377e+07 -3.56721e+06 -75.9988 43.2891 9.83543e+06 2.3353e+06
182 2 -9.25 -9.25 -3.7 5.79365e+07 5.79365e+07 8.07018e+07 -6.78728e+06 -0.103217 -0.103217 9.79721e+06 2.72846e+06
183 2 -5.55 -9.25 -3.7 5.10461e+07 5.01973e+07 5.10461e+07 -28.5004 -1.29922e-11 -0.00110772 1.51586e+07 2.72304e+06
184 2 -7.4 -9.25 -1.85 3.56459e+07 4.8951e+07 5.12374e+07 -3.56719e+06 -7.11509e-10 7.11509e-10 9.83543e+06 2.3353e+06
185 2 -1.85 -9.25 -3.7 5.10461e+07 5.01973e+07 5.10461e+07 7.34808e-10 -2.14031e-14 -0.00110772 1.51586e+07 2.72304e+06
186 2 -3.7 -9.25 -1.85 5.10461e+07 5.01973e+07 5.10461e+07 -0.00110772 -4.34643e-17 -0 1.51586e+07 2.72304e+06
187 2 1.85 -9.25 -3.7 5.10461e+07 5.01973e+07 5.10461e+07 4.56629e-09 4.81547e-16 -0.00110772 1.51586e+07 2.72304e+06
188 2 0 -9.25 -1.85 5.10461e+07 5.01973e+07 5.10461e+07 -2.83388e-09 3.57632e-10 -0 1.51586e+07 2.72304e+06
189 2 5.55 -9.25 -3.7 5.10461e+07 5.01973e+07 5.10461e+07 28.5004 -5.85248e-15 -0.00110772 1.51586e+07 2.72304e+06
190 2 3.7 -9.25 -1.85 5.10461e+07 5.01973e+07 5.10461e+07 0.00110772 -3.83863e-15 7.11509e-10 1.51586e+07 2.72304e+06
191 2 9.25 -9.25 -3.7 5.79365e+07 5.79365e+07 8.07018e+07 6.78728e+06 0.103217 -0.103217 9.79721e+06 2.72846e+06
192 2 7.4 -9.25 -1.85 3.56459e+07 4.8951e+07 5.12374e+07 3.56719e+06 5.1574e-10 7.11509e-10 9.83543e+06 2.3353e+06
193 2 -9.25 -5.55 -3.7 5.01973e+07 5.10461e+07 5.10461e+07 -28.5004 -0.00110772 -3.55732e-10 7.10787e+06 2.72304e+06
194 2 -9.25 -7.4 -1.85 4.8951e+07 3.56459e+07 5.12374e+07 -3.56719e+06 1.42302e-09 -3.55755e-10 7.04415e+06 2.3353e+06
195 2 -7.4 -7.4 -3.7 2.4291e+07 2.4291e+07 3.14195e+07 -135245 2.79689e-10 3.55755e-10 7.15579e+06 2.09588e+06
196 2 -5.55 -5.55 -3.7 3.10011e+07 3.10011e+07 3.10011e+07 -6.14457e-06 4.59992e-15 3.86559e-15 1.01198e+07 2.09588e+06
197 2 -5.55 -7.4 -1.85 3.12104e+07 2.4217e+07 3.12103e+07 8.60624 -1.05484e-09 -0 1.01198e+07 2.09588e+06
198 2 -7.4 -5.55 -1.85 2.4217e+07 3.12104e+07 3.12103e+07 8.60624 -0 -1.05897e-09 7.15579e+06 2.09588e+06
199 2 -3.7 -7.4 -3.7 3.12103e+07 2.42171e+07 3.12103e+07 -4.05783e-13 7.31534e-16 4.26524e-17 1.01198e+07 2.09588e+06
200 2 -1.85 -5.55 -3.7 3.10011e+07 3.10011e+07 3.10011e+07 -1.87628e-11 -4.37088e-15 -9.92707e-12 1.01198e+07 2.09588e+06
201 2 -1.85 -7.4 -1.85 3.12103e+07 2.42171e+07 3.12103e+07 -7.21979e-12 3.45514e-10 -0 1.01198e+07 2.09588e+06
202 2 -3.7 -5.55 -1.85 3.10011e+07 3.10011e+07 3.10011e+07 -1.47818e-11 -0 -3.69148e-10 1.01198e+07 2.09588e+06
203 2 0 -7.4 -3.7 3.12103e+07 2.42171e+07 3.12103e+07 7.10699e-10 3.55349e-10 4.03108e-17 1.01198e+07 2.09588e+06
204 2 1.85 -5.55 -3.7 3.10011e+07 3.10011e+07 3.10011e+07 3.3467e-10 1.42499e-16 -1.74828e-11 1.01198e+07 2.09588e+06
205 2 1.85 -7.4 -1.85 3.12103e+07 2.42171e+07 3.12103e+07 -7.22194e-10 -1.07225e-09 -3.55755e-10 1.01198e+07 2.09588e+06
206 2 0 -5.55 -1.85 3.10011e+07 3.10011e+07 3.10011e+07 -3.29958e-10 7.17307e-10 -0 1.01198e+07 2.09588e+06
207 2 3.7 -7.4 -3.7 3.12103e+07 2.42171e+07 3.12103e+07 -3.57948e-10 4.24201e-17 4.08471e-17 1.01198e+07 2.09588e+06
208 2 5.55 -5.55 -3.7 3.10011e+07 3.10011e+07 3.10011e+07 6.14392e-06 -1.18978e-15 -9.56291e-12 1.01198e+07 2.09588e+06
209 2 5.55 -7.4 -1.85 3.12104e+07 2.4217e+07 3.12103e+07 -8.60624 1.84178e-12 -3.55755e-10 1.01198e+07 2.09588e+06
210 2 3.7 -5.55 -1.85 3.10011e+07 3.10011e+07 3.10011e+07 1.23181e-12 8.11883e-13 -0 1.01198e+07 2.09588e+06
211 2 7.4 -7.4 -3.7 2.4291e+07 2.4291e+07 3.14195e+07 135245 -2.77494e-10 3.55756e-10 7.15579e+06 2.09588e+06
212 2 9.25 -5.55 -3.7 5.01973e+07 5.10461e+07 5.10461e+07 28.5004 0.00110772 -3.55728e-10 7.10787e+06 2.72304e+06
213 2 9.25 -7.4 -1.85 4.8951e+07 3.56459e+07 5.12374e+07 3.56719e+06 -1.42302e-09 -3.55755e-10 7.04415e+06 2.3353e+06
214 2 7.4 -5.55 -1.85 2.4217e+07 3.12104e+07 3.12103e+07 -8.60624 3.14512e-12 -7.11509e-10 7.15579e+06 2.09588e+06
215 2 -9.25 -1.85 -3.7 5.01973e+07 5.10461e+07 5.10461e+07 7.11509e-10 -0.00110772 -2.45356e-14 7.10787e+06 2.72304e+06
216 2 -9.25 -3.7 -1.85 5.01973e+07 5.10461e+07 5.10461e+07 -0.00110772 -0 -3.55755e-10 7.10787e+06 2.72304e+06
217 2 -7.4 -3.7 -3.7 2.42171e+07 3.12103e+07 3.12103e+07 -7.13036e-12 8.1881e-17 -7.36107e-16 7.15579e+06 2.09588e+06
218 2 -5.55 -1.85 -3.7 3.10011e+07 3.10011e+07 3.10011e+07 -1.96124e-11 -8.724e-12 -5.1052e-15 1.01198e+07 2.09588e+06
219 2 -5.55 -3.7 -1.85 3.10011e+07 3.10011e+07 3.10011e+07 5.21445e-12 -3.64483e-10 -0 1.01198e+07 2.09588e+06
220 2 -7.4 -1.85 -1.85 2.42171e+07 3.12103e+07 3.12103e+07 -8.85929e-12 -2.23211e-14 3.55755e-10 7.15579e+06 2.09588e+06
221 2 -3.7 -3.7 -3.7 3.10011e+07 3.10011e+07 3.10011e+07 2.05113e-12 -2.73213e-16 7.32145e-16 1.01198e+07 2.09588e+06
222 2 -1.85 -1.85 -3.7 3.10011e+07 3.10011e+07 3.10011e+07 3.67425e-10 8.724e-12 -3.59389e-15 1.01198e+07 2.09588e+06
223 2 -1.85 -3.7 -1.85 3.10011e+07 3.10011e+07 3.10011e+07 -5.20499e-12 3.64483e-10 -0 1.01198e+07 2.09588e+06
224 2 -3.7 -1.85 -1.85 3.10011e+07 3.10011e+07 3.10011e+07 1.69597e-11 -2.18519e-14 3.55755e-10 1.01198e+07 2.09588e+06
225 2 0 -3.7 -3.7 3.10011e+07 3.10011e+07 3.10011e+07 -1.13759e-11 -1.17818e-11 -7.36623e-16 1.01198e+07 2.09588e+06
226 2 1.85 -1.85 -3.7 3.10011e+07 3.10011e+07 3.10011e+07 -3.41421e-10 6.39118e-12 -4.55878e-15 1.01198e+07 2.09588e+06
227 2 1.85 -3.7 -1.85 3.10011e+07 3.10011e+07 3.10011e+07 -2.5949e-12 -3.49364e-10 -0 1.01198e+07 2.09588e+06
228 2 0 -1.85 -1.85 3.10011e+07 3.10011e+07 3.10011e+07 6.95758e-10 7.10494e-10 -3.55755e-10 1.01198e+07 2.09588e+06
229 2 3.7 -3.7 -3.7 3.10011e+07 3.10011e+07 3.10011e+07 -3.61931e-10 4.26565e-17 -7.36108e-16 1.01198e+07 2.09588e+06
230 2 5.55 -1.85 -3.7 3.10011e+07 3.10011e+07 3.10011e+07 -4.20324e-11 -2.3807e-11 -3.55758e-10 1.01198e+07 2.09588e+06
231 2 5.55 -3.7 -1.85 3.10011e+07 3.10011e+07 3.10011e+07 -3.48769e-10 3.31949e-10 -0 1.01198e+07 2.09588e+06
232 2 3.7 -1.85 -1.85 3.10011e+07 3.10011e+07 3.10011e+07 2.41948e-12 -3.23636e-14 -0 1.01198e+07 2.09588e+06
233 2 7.4 -3.7 -3.7 2.42171e+07 3.12103e+07 3.12103e+07 1.4795e-11 1.42729e-11 1.8601e-16 7.15579e+06 2.09588e+06
234 2 9.25 -1.85 -3.7 5.01973e+07 5.10461e+07 5.10461e+07 -1.42302e-09 0.00110772 -2.30984e-14 7.10787e+06 2.72304e+06
235 2 9.25 -3.7 -1.85 5.01973e+07 5.10461e+07 5.10461e+07 0.00110772 -1.42302e-09 -3.55755e-10 7.10787e+06 2.72304e+06
236 2 7.4 -1.85 -1.85 2.42171e+07 3.12103e+07 3.12103e+07 3.70591e-10 3.76314e-10 3.55755e-10 7.15579e+06 2.09588e+06
237 2 -9.25 1.85 -3.7 5.01973e+07 5.10461e+07 5.10461e+07 4.98057e-09 -0.00110772 9.78531e-16 7.10787e+06 2.72304e+06
238 2 -9.25 0 -1.85 5.01973e+07 5.10461e+07 5.10461e+07 -2.84604e-09 -0 3.6224e-10 7.10787e+06 2.72304e+06
239 2 -7.4 0 -3.7 2.42171e+07 3.12103e+07 3.12103e+07 1.06052e-09 -4.49654e-17 3.49014e-10 7.15579e+06 2.09588e+06
240 2 -5.55 1.85 -3.7 3.10011e+07 3.10011e+07 3.10011e+07 7.04756e-10 -1.58214e-11 1.42499e-16 1.01198e+07 2.09588e+06
241 2 -5.55 0 -1.85 3.10011e+07 3.10011e+07 3.10011e+07 -3.55809e-10 -0 7.10957e-10 1.01198e+07 2.09588e+06
242 2 -7.4 1.85 -1.85 2.42171e+07 3.12103e+07 3.12103e+07 -7.15568e-10 -3.56177e-10 -1.06726e-09 7.15579e+06 2.09588e+06
243 2 -3.7 0 -3.7 3.10011e+07 3.10011e+07 3.10011e+07 -5.85169e-12 2.70917e-16 -5.85319e-12 1.01198e+07 2.09588e+06
244 2 -1.85 1.85 -3.7 3.10011e+07 3.10011e+07 3.10011e+07 -7.02325e-10 1.58214e-11 9.9842e-17 1.01198e+07 2.09588e+06
245 2 -1.85 0 -1.85 3.10011e+07 3.10011e+07 3.10011e+07 7.13396e-10 -3.55755e-10 7.14492e-10 1.01198e+07 2.09588e+06
246 2 -3.7 1.85 -1.85 3.10011e+07 3.10011e+07 3.10011e+07 1.79297e-12 4.77694e-12 -7.11509e-10 1.01198e+07 2.09588e+06
247 2 0 0 -3.7 3.10011e+07 3.10011e+07 3.10011e+07 -1.13804e-11 -5.48506e-12 -1.01537e-16 1.01198e+07 2.09588e+06
248 2 1.85 1.85 -3.7 3.10011e+07 3.10011e+07 3.10011e+07 2.95982e-12 1.12816e-11 5.71855e-17 1.01198e+07 2.09588e+06
249 2 1.85 0 -1.85 3.10011e+07 3.10011e+07 3.10011e+07 -1.73552e-12 -1.06726e-09 1.06492e-09 1.01198e+07 2.09588e+06
250 2 0 1.85 -1.85 3.10011e+07 3.10011e+07 3.10011e+07 3.51947e-10 1.06096e-09 -1.06726e-09 1.01198e+07 2.09588e+06
251 2 3.7 0 -3.7 3.10011e+07 3.10011e+07 3.10011e+07 3.48414e-10 -4.6062e-17 -1.58078e-17 1.01198e+07 2.09588e+06
252 2 5.55 1.85 -3.7 3.10011e+07 3.10011e+07 3.10011e+07 -3.30417e-12 -1.52757e-11 1.42499e-16 1.01198e+07 2.09588e+06
253 2 5.55 0 -1.85 3.10011e+07 3.10011e+07 3.10011e+07 -3.71631e-10 3.55755e-10 3.52814e-10 1.01198e+07 2.09588e+06
254 2 3.7 1.85 -1.85 3.10011e+07 3.10011e+07 3.10011e+07 3.4984e-10 3.5532e-10 -3.55755e-10 1.01198e+07 2.09588e+06
255 2 7.4 0 -3.7 2.42171e+07 3.12103e+07 3.12103e+07 -7.1632e-10 4.94283e-12 3.55755e-10 7.15579e+06 2.09588e+06
256 2 9.25 1.85 -3.7 5.01973e+07 5.10461e+07 5.10461e+07 -4.26906e-09 0.00110772 2.16104e-15 7.10787e+06 2.72304e+06
257 2 9.25 0 -1.85 5.01973e+07 5.10461e+07 5.10461e+07 3.55755e-09 -1.42302e-09 3.55755e-10 7.10787e+06 2.72304e+06
258 2 7.4 1.85 -1.85 2.42171e+07 3.12103e+07 3.12103e+07 1.02362e-11 3.65087e-10 -1.06726e-09 7.15579e+06 2.09588e+06
259 2 -9.25 5.55 -3.7 5.01973e+07 5.10461e+07 5.10461e+07 28.5004 -0.00110772 -3.55761e-10 7.10787e+06 2.72304e+06
260 2 -9.25 3.7 -1.85 5.01973e+07 5.10461e+07 5.10461e+07 0.00110772 7.11509e-10 -2.4585e-13 7.10787e+06 2.72304e+06