ITEM: TIMESTEP
0
ITEM: NUMBER OF ATOMS
665
ITEM: BOX BOUNDS xy xz yz pp pp pp
-1.0000000000000000e+01 1.0000000000000000e+01 0.0000000000000000e+00
-1.0000000000000000e+01 1.0000000000000000e+01 0.0000000000000000e+00
-1.0000000000000000e+01 1.0000000000000000e+01 0.0000000000000000e+00
ITEM: ATOMS id type x y z c_1[1] c_1[2] c_1[3] c_1[4] c_1[5] c_1[6] c_1[7] c_1[8] c_1[13] c_1[15] c_1[22]
1 2 -7.4 -9.25 -9.25 5.0809e+07 -6.62386e+07 -6.62386e+07 -4.22865e+06 -4.22865e+06 -2.42032e+07 -4.46738e+06 2.39206e+07 5.15408e+08 1.53338e+06 -4.2318e+07
2 2 -3.7 -9.25 -9.25 7.9411e+07 -6.39764e+07 -6.39764e+07 -0.0312007 -0.0312007 -2.34462e+07 -1.01742e+08 1.32369e+07 5.1457e+08 0.0294674 -5.07395e+07
3 2 0 -9.25 -9.25 7.9411e+07 -6.39764e+07 -6.39764e+07 2.31241e-08 2.24125e-08 -2.34462e+07 -1.01742e+08 1.32369e+07 5.1457e+08 -8.78714e-08 -5.07395e+07
4 2 3.7 -9.25 -9.25 7.9411e+07 -6.39764e+07 -6.39764e+07 0.0312007 0.0312007 -2.34462e+07 -1.01742e+08 1.32369e+07 5.1457e+08 -0.0294674 -5.07395e+07
5 2 7.4 -9.25 -9.25 5.0809e+07 -6.62386e+07 -6.62386e+07 4.22865e+06 4.22865e+06 -2.42032e+07 -4.46738e+06 2.39206e+07 5.15408e+08 -1.53338e+06 -4.2318e+07
6 2 -9.25 -7.4 -9.25 -6.62386e+07 5.0809e+07 -6.62386e+07 -4.22865e+06 -2.42032e+07 -4.22865e+06 5.15408e+08 2.39206e+07 -4.46738e+06 1.94438e+07 7.47296e+07
7 2 -5.55 -7.4 -9.25 6.00401e+07 4.32134e+07 -8.01489e+07 -280.94 2.54178 -2.33043e+06 1.90732e+07 5.86429e+07 7.3291e+07 187.038 1.01856e+08
8 2 -7.4 -5.55 -9.25 4.32134e+07 6.00401e+07 -8.01489e+07 -280.94 -2.33043e+06 2.54178 7.3291e+07 5.86429e+07 1.90732e+07 187.038 1.18683e+08
9 2 -1.85 -7.4 -9.25 6.00405e+07 4.32138e+07 -8.01489e+07 -7.11509e-10 -4.80269e-09 -2.33043e+06 1.90724e+07 5.86425e+07 7.3291e+07 4.80269e-09 1.01856e+08
10 2 -3.7 -5.55 -9.25 6.0835e+07 6.0835e+07 -7.86111e+07 -0 -4.15475e-05 3.86065 1.58776e+07 5.4653e+07 1.58784e+07 -0 1.15488e+08
11 2 1.85 -7.4 -9.25 6.00405e+07 4.32138e+07 -8.01489e+07 2.13453e-09 -1.63647e-08 -2.33043e+06 1.90724e+07 5.86425e+07 7.3291e+07 -8.44917e-09 1.01856e+08
12 2 0 -5.55 -9.25 6.0835e+07 6.0835e+07 -7.86111e+07 2.49028e-09 1.45859e-08 3.86065 1.58776e+07 5.4653e+07 1.58784e+07 -3.86883e-08 1.15488e+08
13 2 5.55 -7.4 -9.25 6.00401e+07 4.32134e+07 -8.01489e+07 280.94 -2.54178 -2.33043e+06 1.90732e+07 5.86429e+07 7.3291e+07 -187.038 1.01856e+08
14 2 3.7 -5.55 -9.25 6.0835e+07 6.0835e+07 -7.86111e+07 -7.11509e-10 4.15386e-05 3.86065 1.58776e+07 5.4653e+07 1.58784e+07 -0 1.15488e+08
15 2 9.25 -7.4 -9.25 -6.62386e+07 5.0809e+07 -6.62386e+07 4.22865e+06 2.42032e+07 -4.22865e+06 5.15408e+08 2.39206e+07 -4.46738e+06 -1.94438e+07 7.47296e+07
16 2 7.4 -5.55 -9.25 4.32134e+07 6.00401e+07 -8.01489e+07 280.94 2.33043e+06 2.54178 7.3291e+07 5.86429e+07 1.90732e+07 -187.038 1.18683e+08
17 2 -9.25 -3.7 -9.25 -6.39764e+07 7.9411e+07 -6.39764e+07 -0.0312007 -2.34462e+07 -0.0312007 5.1457e+08 1.32369e+07 -1.01742e+08 0.179293 9.26479e+07
18 2 -5.55 -3.7 -9.25 6.0835e+07 6.0835e+07 -7.86111e+07 -0 3.86065 -4.15479e-05 1.58784e+07 5.4653e+07 1.58776e+07 -2.84604e-09 1.15488e+08
19 2 -7.4 -1.85 -9.25 4.32138e+07 6.00405e+07 -8.01489e+07 -7.11509e-10 -2.33043e+06 -6.04783e-09 7.3291e+07 5.86425e+07 1.90724e+07 -3.64649e-09 1.18683e+08
20 2 -1.85 -3.7 -9.25 6.08351e+07 6.08351e+07 -7.86111e+07 -0 -8.53811e-09 -4.15472e-05 1.58775e+07 5.46528e+07 1.58775e+07 -0 1.15488e+08
21 2 -3.7 -1.85 -9.25 6.08351e+07 6.08351e+07 -7.86111e+07 -0 -4.15479e-05 -7.11509e-09 1.58775e+07 5.46528e+07 1.58775e+07 -0 1.15488e+08
22 2 1.85 -3.7 -9.25 6.08351e+07 6.08351e+07 -7.86111e+07 -0 -2.09895e-08 -4.15479e-05 1.58775e+07 5.46528e+07 1.58775e+07 -0 1.15488e+08
23 2 0 -1.85 -9.25 6.08351e+07 6.08351e+07 -7.86111e+07 -1.77877e-09 1.42302e-08 -6.04783e-09 1.58775e+07 5.46528e+07 1.58775e+07 3.86883e-08 1.15488e+08
24 2 5.55 -3.7 -9.25 6.0835e+07 6.0835e+07 -7.86111e+07 -0 -3.86065 -4.15482e-05 1.58784e+07 5.4653e+07 1.58776e+07 -0 1.15488e+08
25 2 3.7 -1.85 -9.25 6.08351e+07 6.08351e+07 -7.86111e+07 1.06726e-09 4.1539e-05 -5.86995e-09 1.58775e+07 5.46528e+07 1.58775e+07 -0 1.15488e+08
26 2 9.25 -3.7 -9.25 -6.39764e+07 7.9411e+07 -6.39764e+07 0.0312007 2.34462e+07 -0.0312007 5.1457e+08 1.32369e+07 -1.01742e+08 -0.179293 9.26479e+07
27 2 7.4 -1.85 -9.25 4.32138e+07 6.00405e+07 -8.01489e+07 -9.60538e-09 2.33043e+06 -8.89387e-09 7.3291e+07 5.86425e+07 1.90724e+07 4.6426e-08 1.18683e+08
28 2 -9.25 0 -9.25 -6.39764e+07 7.9411e+07 -6.39764e+07 2.31241e-08 -2.34462e+07 2.27683e-08 5.1457e+08 1.32369e+07 -1.01742e+08 -7.3997e-08 9.26479e+07
29 2 -5.55 0 -9.25 6.0835e+07 6.0835e+07 -7.86111e+07 1.06726e-09 3.86065 1.42302e-08 1.58784e+07 5.4653e+07 1.58776e+07 -3.53086e-08 1.15488e+08
30 2 -7.4 1.85 -9.25 4.32138e+07 6.00405e+07 -8.01489e+07 2.13453e-09 -2.33043e+06 -1.77877e-08 7.3291e+07 5.86425e+07 1.90724e+07 -5.33632e-09 1.18683e+08
31 2 -1.85 0 -9.25 6.08351e+07 6.08351e+07 -7.86111e+07 -3.55755e-10 -6.75934e-09 1.49417e-08 1.58775e+07 5.46528e+07 1.58775e+07 4.12675e-08 1.15488e+08
32 2 -3.7 1.85 -9.25 6.08351e+07 6.08351e+07 -7.86111e+07 -0 -4.15479e-05 -2.0278e-08 1.58775e+07 5.46528e+07 1.58775e+07 -0 1.15488e+08
33 2 1.85 0 -9.25 6.08351e+07 6.08351e+07 -7.86111e+07 1.77877e-09 -1.84992e-08 1.49417e-08 1.58775e+07 5.46528e+07 1.58775e+07 -3.02391e-09 1.15488e+08
34 2 0 1.85 -9.25 6.08351e+07 6.08351e+07 -7.86111e+07 1.77877e-09 1.42302e-08 -1.84992e-08 1.58775e+07 5.46528e+07 1.58775e+07 -3.02391e-09 1.15488e+08
35 2 5.55 0 -9.25 6.0835e+07 6.0835e+07 -7.86111e+07 -5.33632e-09 -3.86065 1.6009e-08 1.58784e+07 5.4653e+07 1.58776e+07 6.6704e-09 1.15488e+08
36 2 3.7 1.85 -9.25 6.08351e+07 6.08351e+07 -7.86111e+07 1.06726e-09 4.15379e-05 -1.7432e-08 1.58775e+07 5.46528e+07 1.58775e+07 -2.84604e-09 1.15488e+08
37 2 9.25 0 -9.25 -6.39764e+07 7.9411e+07 -6.39764e+07 -2.13453e-08 2.34462e+07 2.34798e-08 5.1457e+08 1.32369e+07 -1.01742e+08 6.83049e-08 9.26479e+07
38 2 7.4 1.85 -9.25 4.32138e+07 6.00405e+07 -8.01489e+07 -6.04783e-09 2.33043e+06 -1.92108e-08 7.3291e+07 5.86425e+07 1.90724e+07 6.58146e-09 1.18683e+08
39 2 -9.25 3.7 -9.25 -6.39764e+07 7.9411e+07 -6.39764e+07 0.0312007 -2.34462e+07 0.0312007 5.1457e+08 1.32369e+07 -1.01742e+08 -0.179293 9.26479e+07
40 2 -5.55 3.7 -9.25 6.0835e+07 6.0835e+07 -7.86111e+07 -7.11509e-10 3.86065 4.1539e-05 1.58784e+07 5.4653e+07 1.58776e+07 -0 1.15488e+08
41 2 -7.4 5.55 -9.25 4.32134e+07 6.00401e+07 -8.01489e+07 280.94 -2.33043e+06 -2.54178 7.3291e+07 5.86429e+07 1.90732e+07 -187.038 1.18683e+08
42 2 -1.85 3.7 -9.25 6.08351e+07 6.08351e+07 -7.86111e+07 1.06726e-09 -5.15844e-09 4.154e-05 1.58775e+07 5.46528e+07 1.58775e+07 -0 1.15488e+08
43 2 -3.7 5.55 -9.25 6.0835e+07 6.0835e+07 -7.86111e+07 -0 -4.15479e-05 -3.86065 1.58776e+07 5.4653e+07 1.58784e+07 -0 1.15488e+08
44 2 1.85 3.7 -9.25 6.08351e+07 6.08351e+07 -7.86111e+07 1.06726e-09 -1.81435e-08 4.15379e-05 1.58775e+07 5.46528e+07 1.58775e+07 -2.84604e-09 1.15488e+08
45 2 0 5.55 -9.25 6.0835e+07 6.0835e+07 -7.86111e+07 -5.33632e-09 1.67205e-08 -3.86065 1.58776e+07 5.4653e+07 1.58784e+07 6.93722e-09 1.15488e+08
46 2 5.55 3.7 -9.25 6.0835e+07 6.0835e+07 -7.86111e+07 -1.42302e-09 -3.86065 4.15386e-05 1.58784e+07 5.4653e+07 1.58776e+07 -0 1.15488e+08
47 2 3.7 5.55 -9.25 6.0835e+07 6.0835e+07 -7.86111e+07 -1.42302e-09 4.15386e-05 -3.86065 1.58776e+07 5.4653e+07 1.58784e+07 -0 1.15488e+08
48 2 9.25 3.7 -9.25 -6.39764e+07 7.9411e+07 -6.39764e+07 -0.0312007 2.34462e+07 0.0312007 5.1457e+08 1.32369e+07 -1.01742e+08 0.179293 9.26479e+07
49 2 7.4 5.55 -9.25 4.32134e+07 6.00401e+07 -8.01489e+07 -280.94 2.33043e+06 -2.54178 7.3291e+07 5.86429e+07 1.90732e+07 187.038 1.18683e+08
50 2 -9.25 7.4 -9.25 -6.62386e+07 5.0809e+07 -6.62386e+07 4.22865e+06 -2.42032e+07 4.22865e+06 5.15408e+08 2.39206e+07 -4.46738e+06 -1.94438e+07 7.47296e+07
51 2 -5.55 7.4 -9.25 6.00401e+07 4.32134e+07 -8.01489e+07 280.94 2.54178 2.33043e+06 1.90732e+07 5.86429e+07 7.3291e+07 -187.038 1.01856e+08
52 2 -7.4 9.25 -9.25 5.0809e+07 -6.62386e+07 -6.62386e+07 4.22865e+06 -4.22865e+06 2.42032e+07 -4.46738e+06 2.39206e+07 5.15408e+08 -1.53338e+06 -4.2318e+07
53 2 -1.85 7.4 -9.25 6.00405e+07 4.32138e+07 -8.01489e+07 -8.18236e-09 -8.89387e-09 2.33043e+06 1.90724e+07 5.86425e+07 7.3291e+07 4.36689e-08 1.01856e+08
54 2 -3.7 9.25 -9.25 7.9411e+07 -6.39764e+07 -6.39764e+07 0.0312007 -0.0312007 2.34462e+07 -1.01742e+08 1.32369e+07 5.1457e+08 -0.0294674 -5.07395e+07
55 2 1.85 7.4 -9.25 6.00405e+07 4.32138e+07 -8.01489e+07 -7.11509e-09 -1.99223e-08 2.33043e+06 1.90724e+07 5.86425e+07 7.3291e+07 1.53864e-08 1.01856e+08
56 2 0 9.25 -9.25 7.9411e+07 -6.39764e+07 -6.39764e+07 -2.27683e-08 2.41913e-08 2.34462e+07 -1.01742e+08 1.32369e+07 5.1457e+08 9.46307e-08 -5.07395e+07
57 2 5.55 7.4 -9.25 6.00401e+07 4.32134e+07 -8.01489e+07 -280.94 -2.54178 2.33043e+06 1.90732e+07 5.86429e+07 7.3291e+07 187.038 1.01856e+08
58 2 3.7 9.25 -9.25 7.9411e+07 -6.39764e+07 -6.39764e+07 -0.0312007 0.0312007 2.34462e+07 -1.01742e+08 1.32369e+07 5.1457e+08 0.0294674 -5.07395e+07
59 2 9.25 7.4 -9.25 -6.62386e+07 5.0809e+07 -6.62386e+07 -4.22865e+06 2.42032e+07 4.22865e+06 5.15408e+08 2.39206e+07 -4.46738e+06 1.94438e+07 7.47296e+07
60 2 7.4 9.25 -9.25 5.0809e+07 -6.62386e+07 -6.62386e+07 -4.22865e+06 4.22865e+06 2.42032e+07 -4.46738e+06 2.39206e+07 5.15408e+08 1.53338e+06 -4.2318e+07
61 2 -9.25 -9.25 -7.4 -6.62386e+07 -6.62386e+07 5.0809e+07 -2.42032e+07 -4.22865e+06 -4.22865e+06 5.15408e+08 4.87812e+07 5.15408e+08 7.58266e+07 -1.74573e+07
62 2 -5.55 -9.25 -7.4 6.00401e+07 -8.01489e+07 4.32134e+07 2.54178 -280.94 -2.33043e+06 1.90732e+07 2.70994e+07 4.47289e+08 -12.0367 -5.30495e+07
63 2 -7.4 -9.25 -5.55 4.32134e+07 -8.01489e+07 6.00401e+07 -2.33043e+06 -280.94 2.54178 7.3291e+07 3.40843e+07 4.47289e+08 6494.09 -4.60645e+07
64 2 -1.85 -9.25 -7.4 6.00405e+07 -8.01489e+07 4.32138e+07 -4.62481e-09 7.11509e-10 -2.33043e+06 1.90724e+07 2.70993e+07 4.47289e+08 4.39357e-08 -5.30495e+07
65 2 -3.7 -9.25 -5.55 6.0835e+07 -7.86111e+07 6.0835e+07 -4.15475e-05 -0 3.86065 1.58776e+07 2.70931e+07 4.4604e+08 3.91625e-05 -5.1518e+07
66 2 1.85 -9.25 -7.4 6.00405e+07 -8.01489e+07 4.32138e+07 -1.6009e-08 2.49028e-09 -2.33043e+06 1.90724e+07 2.70993e+07 4.47289e+08 8.44028e-08 -5.30495e+07
67 2 0 -9.25 -5.55 6.0835e+07 -7.86111e+07 6.0835e+07 1.49417e-08 3.55755e-10 3.86065 1.58776e+07 2.70931e+07 4.4604e+08 -7.18624e-08 -5.1518e+07
68 2 5.55 -9.25 -7.4 6.00401e+07 -8.01489e+07 4.32134e+07 -2.54178 280.94 -2.33043e+06 1.90732e+07 2.70994e+07 4.47289e+08 12.0367 -5.30495e+07
69 2 3.7 -9.25 -5.55 6.0835e+07 -7.86111e+07 6.0835e+07 4.15386e-05 -0 3.86065 1.58776e+07 2.70931e+07 4.4604e+08 -3.91455e-05 -5.1518e+07
70 2 9.25 -9.25 -7.4 -6.62386e+07 -6.62386e+07 5.0809e+07 2.42032e+07 4.22865e+06 -4.22865e+06 5.15408e+08 4.87812e+07 5.15408e+08 -7.58266e+07 -1.74573e+07
71 2 7.4 -9.25 -5.55 4.32134e+07 -8.01489e+07 6.00401e+07 2.33043e+06 280.94 2.54178 7.3291e+07 3.40843e+07 4.47289e+08 -6494.09 -4.60645e+07
72 2 -9.25 -5.55 -7.4 -8.01489e+07 6.00401e+07 4.32134e+07 2.54178 -2.33043e+06 -280.94 4.47289e+08 2.70994e+07 1.90732e+07 -10.9047 8.71395e+07
73 2 -9.25 -7.4 -5.55 -8.01489e+07 4.32134e+07 6.00401e+07 -2.33043e+06 2.54178 -280.94 4.47289e+08 3.40843e+07 7.3291e+07 1.02555e+07 7.72977e+07
74 2 -7.4 -7.4 -7.4 2.05397e+07 2.05397e+07 2.05397e+07 176235 176235 176235 1.34338e+08 7.62927e+07 1.34338e+08 -611216 9.68324e+07
75 2 -5.55 -5.55 -7.4 3.23416e+07 3.23416e+07 2.18755e+07 1.35831e-05 -18.5685 -18.5685 9.64903e+07 6.88472e+07 9.64903e+07 -5.53554e-06 1.01189e+08
76 2 -5.55 -7.4 -5.55 3.23416e+07 2.18755e+07 3.23416e+07 -18.5685 1.35809e-05 -18.5685 9.64903e+07 7.28757e+07 1.2884e+08 -15.0884 9.47512e+07
77 2 -7.4 -5.55 -5.55 2.18755e+07 3.23416e+07 3.23416e+07 -18.5685 -18.5685 1.35809e-05 1.2884e+08 7.28757e+07 9.64903e+07 -15.0884 1.05217e+08
78 2 -3.7 -7.4 -7.4 3.14975e+07 2.12075e+07 2.12075e+07 -0 -1.06726e-09 176086 9.96741e+07 7.28755e+07 1.3159e+08 -5.69207e-09 9.4083e+07
79 2 -1.85 -5.55 -7.4 3.23416e+07 3.23416e+07 2.18755e+07 7.11509e-10 1.77877e-09 -18.5685 9.649e+07 6.88471e+07 9.64902e+07 -1.13841e-08 1.01189e+08
80 2 -1.85 -7.4 -5.55 3.23416e+07 2.18755e+07 3.23416e+07 2.13453e-09 2.49028e-09 -18.5685 9.649e+07 7.28757e+07 1.2884e+08 -0 9.47512e+07
81 2 -3.7 -5.55 -5.55 3.31858e+07 3.31858e+07 3.31858e+07 -0 -0 1.35809e-05 9.33057e+07 6.88472e+07 9.33059e+07 -2.84604e-09 1.02033e+08
82 2 0 -7.4 -7.4 3.14975e+07 2.12075e+07 2.12075e+07 -1.06726e-09 -1.06726e-09 176086 9.96741e+07 7.28755e+07 1.3159e+08 1.13841e-08 9.4083e+07
83 2 1.85 -5.55 -7.4 3.23416e+07 3.23416e+07 2.18755e+07 -5.33632e-09 7.11509e-10 -18.5685 9.649e+07 6.88471e+07 9.64902e+07 4.26906e-08 1.01189e+08
84 2 1.85 -7.4 -5.55 3.23416e+07 2.18755e+07 3.23416e+07 1.77877e-09 -6.04783e-09 -18.5685 9.649e+07 7.28757e+07 1.2884e+08 -5.69207e-09 9.47512e+07
85 2 0 -5.55 -5.55 3.31858e+07 3.31858e+07 3.31858e+07 4.26906e-09 4.26906e-09 1.35795e-05 9.33057e+07 6.88472e+07 9.33059e+07 -3.41524e-08 1.02033e+08
86 2 3.7 -7.4 -7.4 3.14975e+07 2.12075e+07 2.12075e+07 1.06726e-09 -0 176086 9.96741e+07 7.28755e+07 1.3159e+08 -0 9.4083e+07
87 2 5.55 -5.55 -7.4 3.23416e+07 3.23416e+07 2.18755e+07 -1.35877e-05 18.5685 -18.5685 9.64903e+07 6.88472e+07 9.64903e+07 5.54977e-06 1.01189e+08
88 2 5.55 -7.4 -5.55 3.23416e+07 2.18755e+07 3.23416e+07 18.5685 -1.3587e-05 -18.5685 9.64903e+07 7.28757e+07 1.2884e+08 15.0884 9.47512e+07
89 2 3.7 -5.55 -5.55 3.31858e+07 3.31858e+07 3.31858e+07 -7.11509e-10 -7.11509e-10 1.35813e-05 9.33057e+07 6.88472e+07 9.33059e+07 -0 1.02033e+08
90 2 7.4 -7.4 -7.4 2.05397e+07 2.05397e+07 2.05397e+07 -176235 -176235 176235 1.34338e+08 7.62927e+07 1.34338e+08 611216 9.68324e+07
91 2 9.25 -5.55 -7.4 -8.01489e+07 6.00401e+07 4.32134e+07 -2.54178 2.33043e+06 -280.94 4.47289e+08 2.70994e+07 1.90732e+07 10.9047 8.71395e+07
92 2 9.25 -7.4 -5.55 -8.01489e+07 4.32134e+07 6.00401e+07 2.33043e+06 -2.54178 -280.94 4.47289e+08 3.40843e+07 7.3291e+07 -1.02555e+07 7.72977e+07
93 2 7.4 -5.55 -5.55 2.18755e+07 3.23416e+07 3.23416e+07 18.5685 18.5685 1.35809e-05 1.2884e+08 7.28757e+07 9.64903e+07 15.0884 1.05217e+08
94 2 -9.25 -1.85 -7.4 -8.01489e+07 6.00405e+07 4.32138e+07 -4.26906e-09 -2.33043e+06 -3.55755e-10 4.47289e+08 2.70993e+07 1.90724e+07 2.56143e-08 8.71398e+07
95 2 -9.25 -3.7 -5.55 -7.86111e+07 6.0835e+07 6.0835e+07 -4.15475e-05 3.86065 3.55755e-10 4.4604e+08 2.70931e+07 1.58776e+07 0.000238284 8.79281e+07
96 2 -7.4 -3.7 -7.4 2.12075e+07 3.14975e+07 2.12075e+07 -0 176086 -1.06726e-09 1.3159e+08 7.28755e+07 9.96741e+07 -2.84604e-09 1.04373e+08
97 2 -5.55 -1.85 -7.4 3.23416e+07 3.23416e+07 2.18755e+07 1.42302e-09 -18.5685 2.13453e-09 9.64902e+07 6.88471e+07 9.649e+07 -2.84604e-09 1.01189e+08
98 2 -5.55 -3.7 -5.55 3.31858e+07 3.31858e+07 3.31858e+07 1.42302e-09 1.35809e-05 3.55755e-10 9.33059e+07 6.88472e+07 9.33057e+07 -0 1.02033e+08
99 2 -7.4 -1.85 -5.55 2.18755e+07 3.23416e+07 3.23416e+07 2.13453e-09 -18.5685 2.49028e-09 1.2884e+08 7.28757e+07 9.649e+07 5.69207e-09 1.05217e+08
100 2 -3.7 -3.7 -7.4 3.23417e+07 3.23417e+07 2.18755e+07 -0 -0 -0 9.649e+07 6.88471e+07 9.649e+07 -0 1.01189e+08
101 2 -1.85 -1.85 -7.4 3.23417e+07 3.23417e+07 2.18755e+07 -1.77877e-09 1.77877e-09 1.77877e-09 9.649e+07 6.88471e+07 9.649e+07 5.69207e-09 1.01189e+08
102 2 -1.85 -3.7 -5.55 3.31858e+07 3.31858e+07 3.31858e+07 -0 3.55755e-09 -0 9.33057e+07 6.88471e+07 9.33057e+07 -0 1.02033e+08
103 2 -3.7 -1.85 -5.55 3.31858e+07 3.31858e+07 3.31858e+07 -0 -3.55755e-10 3.55755e-09 9.33057e+07 6.88471e+07 9.33057e+07 -0 1.02033e+08
104 2 0 -3.7 -7.4 3.23417e+07 3.23417e+07 2.18755e+07 -7.11509e-10 -7.11509e-10 -0 9.649e+07 6.88471e+07 9.649e+07 -0 1.01189e+08
105 2 1.85 -1.85 -7.4 3.23417e+07 3.23417e+07 2.18755e+07 5.33632e-09 1.77877e-09 3.55755e-10 9.649e+07 6.88471e+07 9.649e+07 -4.55366e-08 1.01189e+08
106 2 1.85 -3.7 -5.55 3.31858e+07 3.31858e+07 3.31858e+07 -0 -4.26906e-09 -0 9.33057e+07 6.88471e+07 9.33057e+07 -8.53811e-09 1.02033e+08
107 2 0 -1.85 -5.55 3.31858e+07 3.31858e+07 3.31858e+07 -4.26906e-09 4.98057e-09 3.55755e-09 9.33057e+07 6.88471e+07 9.33057e+07 3.69985e-08 1.02033e+08
108 2 3.7 -3.7 -7.4 3.23417e+07 3.23417e+07 2.18755e+07 -0 7.11509e-10 -0 9.649e+07 6.88471e+07 9.649e+07 -0 1.01189e+08
109 2 5.55 -1.85 -7.4 3.23416e+07 3.23416e+07 2.18755e+07 3.20179e-09 18.5685 2.13453e-09 9.64902e+07 6.88471e+07 9.649e+07 -8.53811e-09 1.01189e+08
110 2 5.55 -3.7 -5.55 3.31858e+07 3.31858e+07 3.31858e+07 -7.11509e-10 -1.35863e-05 -0 9.33059e+07 6.88472e+07 9.33057e+07 -0 1.02033e+08
111 2 3.7 -1.85 -5.55 3.31858e+07 3.31858e+07 3.31858e+07 7.11509e-10 -7.11509e-10 1.77877e-09 9.33057e+07 6.88471e+07 9.33057e+07 -8.53811e-09 1.02033e+08
112 2 7.4 -3.7 -7.4 2.12075e+07 3.14975e+07 2.12075e+07 3.55755e-10 -176086 -1.06726e-09 1.3159e+08 7.28755e+07 9.96741e+07 -0 1.04373e+08
113 2 9.25 -1.85 -7.4 -8.01489e+07 6.00405e+07 4.32138e+07 1.06726e-08 2.33043e+06 -0 4.47289e+08 2.70993e+07 1.90724e+07 -6.40358e-08 8.71398e+07
114 2 9.25 -3.7 -5.55 -7.86111e+07 6.0835e+07 6.0835e+07 4.15475e-05 -3.86065 -0 4.4604e+08 2.70931e+07 1.58776e+07 -0.000238292 8.79281e+07
115 2 7.4 -1.85 -5.55 2.18755e+07 3.23416e+07 3.23416e+07 -1.04948e-08 18.5685 2.49028e-09 1.2884e+08 7.28757e+07 9.649e+07 5.12287e-08 1.05217e+08
116 2 -9.25 1.85 -7.4 -8.01489e+07 6.00405e+07 4.32138e+07 -1.6009e-08 -2.33043e+06 2.49028e-09 4.47289e+08 2.70993e+07 1.90724e+07 4.41136e-08 8.71398e+07
117 2 -9.25 0 -5.55 -7.86111e+07 6.0835e+07 6.0835e+07 1.49417e-08 3.86065 1.77877e-09 4.4604e+08 2.70931e+07 1.58776e+07 -2.56143e-08 8.79281e+07
118 2 -7.4 0 -7.4 2.12075e+07 3.14975e+07 2.12075e+07 -1.06726e-09 176086 -1.06726e-09 1.3159e+08 7.28755e+07 9.96741e+07 1.13841e-08 1.04373e+08
119 2 -5.55 1.85 -7.4 3.23416e+07 3.23416e+07 2.18755e+07 -5.33632e-09 -18.5685 1.77877e-09 9.64902e+07 6.88471e+07 9.649e+07 4.26906e-08 1.01189e+08
120 2 -5.55 0 -5.55 3.31858e+07 3.31858e+07 3.31858e+07 4.26906e-09 1.35795e-05 4.26906e-09 9.33059e+07 6.88472e+07 9.33057e+07 -3.41524e-08 1.02033e+08
121 2 -7.4 1.85 -5.55 2.18755e+07 3.23416e+07 3.23416e+07 1.77877e-09 -18.5685 -6.04783e-09 1.2884e+08 7.28757e+07 9.649e+07 8.53811e-09 1.05217e+08
122 2 -3.7 0 -7.4 3.23417e+07 3.23417e+07 2.18755e+07 -0 -0 -0 9.649e+07 6.88471e+07 9.649e+07 -0 1.01189e+08
123 2 -1.85 1.85 -7.4 3.23417e+07 3.23417e+07 2.18755e+07 5.33632e-09 3.55755e-10 1.77877e-09 9.649e+07 6.88471e+07 9.649e+07 -4.26906e-08 1.01189e+08
124 2 -1.85 0 -5.55 3.31858e+07 3.31858e+07 3.31858e+07 -4.26906e-09 3.55755e-09 4.26906e-09 9.33057e+07 6.88471e+07 9.33057e+07 4.26906e-08 1.02033e+08
125 2 -3.7 1.85 -5.55 3.31858e+07 3.31858e+07 3.31858e+07 -0 -0 -4.26906e-09 9.33057e+07 6.88471e+07 9.33057e+07 -5.69207e-09 1.02033e+08
126 2 0 0 -7.4 3.23417e+07 3.23417e+07 2.18755e+07 1.06726e-09 -0 -0 9.649e+07 6.88471e+07 9.649e+07 -0 1.01189e+08
127 2 1.85 1.85 -7.4 3.23417e+07 3.23417e+07 2.18755e+07 2.13453e-09 -0 -0 9.649e+07 6.88471e+07 9.649e+07 -0 1.01189e+08
128 2 1.85 0 -5.55 3.31858e+07 3.31858e+07 3.31858e+07 -3.55755e-10 -4.26906e-09 4.26906e-09 9.33057e+07 6.88471e+07 9.33057e+07 2.84604e-09 1.02033e+08
129 2 0 1.85 -5.55 3.31858e+07 3.31858e+07 3.31858e+07 -3.55755e-10 4.26906e-09 -4.26906e-09 9.33057e+07 6.88471e+07 9.33057e+07 2.84604e-09 1.02033e+08
130 2 3.7 0 -7.4 3.23417e+07 3.23417e+07 2.18755e+07 -0 -7.11509e-10 -1.77877e-09 9.649e+07 6.88471e+07 9.649e+07 -5.69207e-09 1.01189e+08
131 2 5.55 1.85 -7.4 3.23416e+07 3.23416e+07 2.18755e+07 2.49028e-09 18.5685 2.13453e-09 9.64902e+07 6.88471e+07 9.649e+07 -0 1.01189e+08
132 2 5.55 0 -5.55 3.31858e+07 3.31858e+07 3.31858e+07 -3.20179e-09 -1.35863e-05 4.98057e-09 9.33059e+07 6.88472e+07 9.33057e+07 5.69207e-09 1.02033e+08
133 2 3.7 1.85 -5.55 3.31858e+07 3.31858e+07 3.31858e+07 -0 -7.11509e-10 -4.62481e-09 9.33057e+07 6.88471e+07 9.33057e+07 5.69207e-09 1.02033e+08
134 2 7.4 0 -7.4 2.12075e+07 3.14975e+07 2.12075e+07 5.33632e-09 -176086 -1.06726e-09 1.3159e+08 7.28755e+07 9.96741e+07 -8.53811e-09 1.04373e+08
135 2 9.25 1.85 -7.4 -8.01489e+07 6.00405e+07 4.32138e+07 1.70762e-08 2.33043e+06 7.11509e-10 4.47289e+08 2.70993e+07 1.90724e+07 -3.84215e-08 8.71398e+07
136 2 9.25 0 -5.55 -7.86111e+07 6.0835e+07 6.0835e+07 -1.63647e-08 -3.86065 2.84604e-09 4.4604e+08 2.70931e+07 1.58776e+07 3.69985e-08 8.79281e+07
137 2 7.4 1.85 -5.55 2.18755e+07 3.23416e+07 3.23416e+07 -6.58146e-09 18.5685 -6.04783e-09 1.2884e+08 7.28757e+07 9.649e+07 1.70762e-08 1.05217e+08
138 2 -9.25 5.55 -7.4 -8.01489e+07 6.00401e+07 4.32134e+07 -2.54178 -2.33043e+06 280.94 4.47289e+08 2.70994e+07 1.90732e+07 10.9047 8.71395e+07
139 2 -9.25 3.7 -5.55 -7.86111e+07 6.0835e+07 6.0835e+07 4.15386e-05 3.86065 -0 4.4604e+08 2.70931e+07 1.58776e+07 -0.000238265 8.79281e+07
140 2 -7.4 3.7 -7.4 2.12075e+07 3.14975e+07 2.12075e+07 -0 176086 -0 1.3159e+08 7.28755e+07 9.96741e+07 -0 1.04373e+08
141 2 -5.55 5.55 -7.4 3.23416e+07 3.23416e+07 2.18755e+07 -1.35877e-05 -18.5685 18.5685 9.64903e+07 6.88472e+07 9.64903e+07 5.54408e-06 1.01189e+08
142 2 -5.55 3.7 -5.55 3.31858e+07 3.31858e+07 3.31858e+07 -7.11509e-10 1.35813e-05 -7.11509e-10 9.33059e+07 6.88472e+07 9.33057e+07 -0 1.02033e+08
143 2 -7.4 5.55 -5.55 2.18755e+07 3.23416e+07 3.23416e+07 18.5685 -18.5685 -1.3587e-05 1.2884e+08 7.28757e+07 9.64903e+07 15.0884 1.05217e+08
144 2 -3.7 3.7 -7.4 3.23417e+07 3.23417e+07 2.18755e+07 -0 -0 1.77877e-09 9.649e+07 6.88471e+07 9.649e+07 -0 1.01189e+08
145 2 -1.85 5.55 -7.4 3.23416e+07 3.23416e+07 2.18755e+07 3.20179e-09 2.13453e-09 18.5685 9.649e+07 6.88471e+07 9.64902e+07 -2.84604e-09 1.01189e+08
146 2 -1.85 3.7 -5.55 3.31858e+07 3.31858e+07 3.31858e+07 7.11509e-10 1.77877e-09 -0 9.33057e+07 6.88471e+07 9.33057e+07 -5.69207e-09 1.02033e+08
147 2 -3.7 5.55 -5.55 3.31858e+07 3.31858e+07 3.31858e+07 -7.11509e-10 -0 -1.35863e-05 9.33057e+07 6.88472e+07 9.33059e+07 -0 1.02033e+08
148 2 0 3.7 -7.4 3.23417e+07 3.23417e+07 2.18755e+07 -0 -1.77877e-09 1.06726e-09 9.649e+07 6.88471e+07 9.649e+07 -5.69207e-09 1.01189e+08
149 2 1.85 5.55 -7.4 3.23416e+07 3.23416e+07 2.18755e+07 3.55755e-09 2.13453e-09 18.5685 9.649e+07 6.88471e+07 9.64902e+07 -8.53811e-09 1.01189e+08
150 2 1.85 3.7 -5.55 3.31858e+07 3.31858e+07 3.31858e+07 -0 -4.62481e-09 -7.11509e-10 9.33057e+07 6.88471e+07 9.33057e+07 5.69207e-09 1.02033e+08
151 2 0 5.55 -5.55 3.31858e+07 3.31858e+07 3.31858e+07 -3.20179e-09 4.98057e-09 -1.35863e-05 9.33057e+07 6.88472e+07 9.33059e+07 5.69207e-09 1.02033e+08
152 2 3.7 3.7 -7.4 3.23417e+07 3.23417e+07 2.18755e+07 -1.42302e-09 -1.06726e-09 -1.06726e-09 9.649e+07 6.88471e+07 9.649e+07 2.84604e-09 1.01189e+08
153 2 5.55 5.55 -7.4 3.23416e+07 3.23416e+07 2.18755e+07 1.35806e-05 18.5685 18.5685 9.64903e+07 6.88472e+07 9.64903e+07 -5.53554e-06 1.01189e+08
154 2 5.55 3.7 -5.55 3.31858e+07 3.31858e+07 3.31858e+07 -0 -1.35866e-05 7.11509e-10 9.33059e+07 6.88472e+07 9.33057e+07 2.84604e-09 1.02033e+08
155 2 3.7 5.55 -5.55 3.31858e+07 3.31858e+07 3.31858e+07 -0 7.11509e-10 -1.35866e-05 9.33057e+07 6.88472e+07 9.33059e+07 -0 1.02033e+08
156 2 7.4 3.7 -7.4 2.12075e+07 3.14975e+07 2.12075e+07 -0 -176086 1.06726e-09 1.3159e+08 7.28755e+07 9.96741e+07 -0 1.04373e+08
157 2 9.25 5.55 -7.4 -8.01489e+07 6.00401e+07 4.32134e+07 2.54178 2.33043e+06 280.94 4.47289e+08 2.70994e+07 1.90732e+07 -10.9047 8.71395e+07
158 2 9.25 3.7 -5.55 -7.86111e+07 6.0835e+07 6.0835e+07 -4.15386e-05 -3.86065 7.11509e-10 4.4604e+08 2.70931e+07 1.58776e+07 0.000238276 8.79281e+07
159 2 7.4 5.55 -5.55 2.18755e+07 3.23416e+07 3.23416e+07 -18.5685 18.5685 -1.35863e-05 1.2884e+08 7.28757e+07 9.64903e+07 -15.0884 1.05217e+08
160 2 -9.25 9.25 -7.4 -6.62386e+07 -6.62386e+07 5.0809e+07 2.42032e+07 -4.22865e+06 4.22865e+06 5.15408e+08 4.87812e+07 5.15408e+08 -7.58266e+07 -1.74573e+07
161 2 -9.25 7.4 -5.55 -8.01489e+07 4.32134e+07 6.00401e+07 2.33043e+06 2.54178 280.94 4.47289e+08 3.40843e+07 7.3291e+07 -1.02555e+07 7.72977e+07
162 2 -7.4 7.4 -7.4 2.05397e+07 2.05397e+07 2.05397e+07 -176235 176235 -176235 1.34338e+08 7.62927e+07 1.34338e+08 611216 9.68324e+07
163 2 -5.55 9.25 -7.4 6.00401e+07 -8.01489e+07 4.32134e+07 -2.54178 -280.94 2.33043e+06 1.90732e+07 2.70994e+07 4.47289e+08 12.0367 -5.30495e+07
164 2 -5.55 7.4 -5.55 3.23416e+07 2.18755e+07 3.23416e+07 18.5685 1.35809e-05 18.5685 9.64903e+07 7.28757e+07 1.2884e+08 15.0884 9.47512e+07
165 2 -7.4 9.25 -5.55 4.32134e+07 -8.01489e+07 6.00401e+07 2.33043e+06 -280.94 -2.54178 7.3291e+07 3.40843e+07 4.47289e+08 -6494.09 -4.60645e+07
166 2 -3.7 7.4 -7.4 3.14975e+07 2.12075e+07 2.12075e+07 -0 -1.06726e-09 -176086 9.96741e+07 7.28755e+07 1.3159e+08 -0 9.4083e+07
167 2 -1.85 9.25 -7.4 6.00405e+07 -8.01489e+07 4.32138e+07 1.06726e-08 -7.11509e-10 2.33043e+06 1.90724e+07 2.70993e+07 4.47289e+08 -8.61816e-08 -5.30495e+07
168 2 -1.85 7.4 -5.55 3.23416e+07 2.18755e+07 3.23416e+07 -9.78325e-09 2.49028e-09 18.5685 9.649e+07 7.28757e+07 1.2884e+08 5.40747e-08 9.47512e+07
169 2 -3.7 9.25 -5.55 6.0835e+07 -7.86111e+07 6.0835e+07 4.15479e-05 -0 -3.86065 1.58776e+07 2.70931e+07 4.4604e+08 -3.91625e-05 -5.1518e+07
170 2 0 7.4 -7.4 3.14975e+07 2.12075e+07 2.12075e+07 6.75934e-09 -1.06726e-09 -176086 9.96741e+07 7.28755e+07 1.3159e+08 -8.53811e-09 9.4083e+07
171 2 1.85 9.25 -7.4 6.00405e+07 -8.01489e+07 4.32138e+07 1.70762e-08 7.11509e-10 2.33043e+06 1.90724e+07 2.70993e+07 4.47289e+08 -7.29742e-08 -5.30495e+07
172 2 1.85 7.4 -5.55 3.23416e+07 2.18755e+07 3.23416e+07 -6.58146e-09 -6.04783e-09 18.5685 9.649e+07 7.28757e+07 1.2884e+08 1.99223e-08 9.47512e+07
173 2 0 9.25 -5.55 6.0835e+07 -7.86111e+07 6.0835e+07 -1.63647e-08 1.42302e-09 -3.86065 1.58776e+07 2.70931e+07 4.4604e+08 7.79992e-08 -5.1518e+07
174 2 3.7 7.4 -7.4 3.14975e+07 2.12075e+07 2.12075e+07 -0 1.06726e-09 -176086 9.96741e+07 7.28755e+07 1.3159e+08 -0 9.4083e+07
175 2 5.55 9.25 -7.4 6.00401e+07 -8.01489e+07 4.32134e+07 2.54178 280.94 2.33043e+06 1.90732e+07 2.70994e+07 4.47289e+08 -12.0367 -5.30495e+07
176 2 5.55 7.4 -5.55 3.23416e+07 2.18755e+07 3.23416e+07 -18.5685 -1.35863e-05 18.5685 9.64903e+07 7.28757e+07 1.2884e+08 -15.0884 9.47512e+07
177 2 3.7 9.25 -5.55 6.0835e+07 -7.86111e+07 6.0835e+07 -4.1539e-05 -0 -3.86065 1.58776e+07 2.70931e+07 4.4604e+08 3.91565e-05 -5.1518e+07
178 2 7.4 7.4 -7.4 2.05397e+07 2.05397e+07 2.05397e+07 176235 -176235 -176235 1.34338e+08 7.62927e+07 1.34338e+08 -611216 9.68324e+07
179 2 9.25 9.25 -7.4 -6.62386e+07 -6.62386e+07 5.0809e+07 -2.42032e+07 4.22865e+06 4.22865e+06 5.15408e+08 4.87812e+07 5.15408e+08 7.58266e+07 -1.74573e+07
180 2 9.25 7.4 -5.55 -8.01489e+07 4.32134e+07 6.00401e+07 -2.33043e+06 -2.54178 280.94 4.47289e+08 3.40843e+07 7.3291e+07 1.02555e+07 7.72977e+07
181 2 7.4 9.25 -5.55 4.32134e+07 -8.01489e+07 6.00401e+07 -2.33043e+06 280.94 -2.54178 7.3291e+07 3.40843e+07 4.47289e+08 6494.09 -4.60645e+07
182 2 -9.25 -9.25 -3.7 -6.39764e+07 -6.39764e+07 7.9411e+07 -2.34462e+07 -0.0312007 -0.0312007 5.1457e+08 4.81655e+07 5.1457e+08 7.52238e+07 -1.58109e+07
183 2 -5.55 -9.25 -3.7 6.0835e+07 -7.86111e+07 6.0835e+07 3.86065 3.55755e-10 -4.15479e-05 1.58784e+07 2.70931e+07 4.4604e+08 -13.1769 -5.1518e+07
184 2 -7.4 -9.25 -1.85 4.32138e+07 -8.01489e+07 6.00405e+07 -2.33043e+06 -3.55755e-10 -5.69207e-09 7.3291e+07 3.40843e+07 4.47289e+08 6492.95 -4.60645e+07
185 2 -1.85 -9.25 -3.7 6.08351e+07 -7.86111e+07 6.08351e+07 -8.18236e-09 -3.55755e-10 -4.15479e-05 1.58775e+07 2.70931e+07 4.4604e+08 2.43247e-08 -5.1518e+07
186 2 -3.7 -9.25 -1.85 6.08351e+07 -7.86111e+07 6.08351e+07 -4.15479e-05 -0 -7.11509e-09 1.58775e+07 2.70931e+07 4.4604e+08 3.91625e-05 -5.1518e+07
187 2 1.85 -9.25 -3.7 6.08351e+07 -7.86111e+07 6.08351e+07 -1.92108e-08 -3.55755e-10 -4.15465e-05 1.58775e+07 2.70931e+07 4.4604e+08 7.29297e-08 -5.1518e+07
188 2 0 -9.25 -1.85 6.08351e+07 -7.86111e+07 6.08351e+07 1.28072e-08 -1.06726e-09 -4.26906e-09 1.58775e+07 2.70931e+07 4.4604e+08 -7.51532e-08 -5.1518e+07
189 2 5.55 -9.25 -3.7 6.0835e+07 -7.86111e+07 6.0835e+07 -3.86065 -0 -4.15493e-05 1.58784e+07 2.70931e+07 4.4604e+08 13.1769 -5.1518e+07
190 2 3.7 -9.25 -1.85 6.08351e+07 -7.86111e+07 6.08351e+07 4.15379e-05 2.13453e-09 -7.11509e-09 1.58775e+07 2.70931e+07 4.4604e+08 -3.91451e-05 -5.1518e+07
191 2 9.25 -9.25 -3.7 -6.39764e+07 -6.39764e+07 7.9411e+07 2.34462e+07 0.0312007 -0.0312007 5.1457e+08 4.81655e+07 5.1457e+08 -7.52238e+07 -1.58109e+07
192 2 7.4 -9.25 -1.85 4.32138e+07 -8.01489e+07 6.00405e+07 2.33043e+06 -9.24962e-09 -1.13841e-08 7.3291e+07 3.40843e+07 4.47289e+08 -6492.95 -4.60645e+07
193 2 -9.25 -5.55 -3.7 -7.86111e+07 6.0835e+07 6.0835e+07 3.86065 -4.15479e-05 3.55755e-10 4.4604e+08 2.70931e+07 1.58784e+07 -12.6393 8.79281e+07
194 2 -9.25 -7.4 -1.85 -8.01489e+07 4.32138e+07 6.00405e+07 -2.33043e+06 -5.69207e-09 -3.55755e-10 4.47289e+08 3.40843e+07 7.3291e+07 1.02555e+07 7.72981e+07
195 2 -7.4 -7.4 -3.7 2.12075e+07 2.12075e+07 3.14975e+07 176086 -1.06726e-09 -0 1.3159e+08 7.62944e+07 1.3159e+08 -609832 9.75019e+07
196 2 -5.55 -5.55 -3.7 3.31858e+07 3.31858e+07 3.31858e+07 1.35795e-05 -0 1.42302e-09 9.33059e+07 6.88472e+07 9.33059e+07 -5.52985e-06 1.02033e+08
197 2 -5.55 -7.4 -1.85 3.23416e+07 2.18755e+07 3.23416e+07 -18.5685 7.11509e-10 7.11509e-10 9.64902e+07 7.28757e+07 1.2884e+08 -15.0884 9.47512e+07
198 2 -7.4 -5.55 -1.85 2.18755e+07 3.23416e+07 3.23416e+07 -18.5685 -0 2.49028e-09 1.2884e+08 7.28757e+07 9.64902e+07 -15.0884 1.05217e+08
199 2 -3.7 -7.4 -3.7 3.23417e+07 2.18755e+07 3.23417e+07 -0 -0 -0 9.649e+07 7.28757e+07 1.2884e+08 -0 9.47512e+07
200 2 -1.85 -5.55 -3.7 3.31858e+07 3.31858e+07 3.31858e+07 3.55755e-09 -0 -0 9.33057e+07 6.88472e+07 9.33059e+07 -1.99223e-08 1.02033e+08
201 2 -1.85 -7.4 -1.85 3.23417e+07 2.18755e+07 3.23417e+07 7.11509e-10 -1.77877e-09 -7.11509e-10 9.649e+07 7.28757e+07 1.2884e+08 5.69207e-09 9.47512e+07
202 2 -3.7 -5.55 -1.85 3.31858e+07 3.31858e+07 3.31858e+07 -3.55755e-10 -0 3.55755e-09 9.33057e+07 6.88472e+07 9.33059e+07 2.84604e-09 1.02033e+08
203 2 0 -7.4 -3.7 3.23417e+07 2.18755e+07 3.23417e+07 -7.11509e-10 -0 -0 9.649e+07 7.28757e+07 1.2884e+08 8.53811e-09 9.47512e+07