ITEM: TIMESTEP
0
ITEM: NUMBER OF ATOMS
665
ITEM: BOX BOUNDS xy xz yz pp pp pp
-1.0000000000000000e+01 1.0000000000000000e+01 0.0000000000000000e+00
-1.0000000000000000e+01 1.0000000000000000e+01 0.0000000000000000e+00
-1.0000000000000000e+01 1.0000000000000000e+01 0.0000000000000000e+00
ITEM: ATOMS id type x y z c_1[1] c_1[2] c_1[3] c_1[4] c_1[5] c_1[6] c_1[7] c_1[8] c_1[13] c_1[15] c_1[22]
1 2 -7.4 -9.25 -9.25 6.25943e+06 -2.49678e+08 -2.49614e+08 32235.9 -29962.8 -3.35291e+07 -nan -nan -nan -nan -nan
2 2 -3.7 -9.25 -9.25 6.70835e+06 -2.49613e+08 -2.49568e+08 0.0913009 0.0913009 -3.3573e+07 -nan -nan -nan -nan -nan
3 2 0 -9.25 -9.25 6.70833e+06 -2.49613e+08 -2.49568e+08 4.09699e-08 4.35137e-08 -3.3573e+07 -nan -nan -nan -nan -nan
4 2 3.7 -9.25 -9.25 6.70833e+06 -2.49613e+08 -2.49568e+08 -0.0920144 -0.0920144 -3.3573e+07 -nan -nan -nan -nan -nan
5 2 7.4 -9.25 -9.25 6.25941e+06 -2.49678e+08 -2.49614e+08 -32235.9 29962.8 -3.35291e+07 -nan -nan -nan -nan -nan
6 2 -9.25 -7.4 -9.25 -2.62098e+08 1.86795e+07 -2.49614e+08 32235.8 -3.39772e+07 418206 -nan -nan -nan -nan -nan
7 2 -5.55 -7.4 -9.25 7.57492e+06 3.25272e+07 -4.58683e+08 263.917 -5.50969 392304 -nan -nan -nan -nan -nan
8 2 -7.4 -5.55 -9.25 3.2366e+07 1.98332e+07 -4.58683e+08 -6.04829e+06 168220 224079 -nan -nan -nan -nan -nan
9 2 -1.85 -7.4 -9.25 7.63696e+06 3.25267e+07 -4.58683e+08 3.53531e-08 -4.52083e-08 392302 -nan -nan -nan -nan -nan
10 2 -3.7 -5.55 -9.25 3.22636e+07 3.22014e+07 -4.5861e+08 -5.92397e-10 0.000158286 -7.46959 -nan -nan -nan -nan -nan
11 2 1.85 -7.4 -9.25 7.63696e+06 3.25267e+07 -4.58683e+08 4.60258e-08 -7.23635e-08 392302 -nan -nan -nan -nan -nan
12 2 0 -5.55 -9.25 3.22636e+07 3.22014e+07 -4.5861e+08 -6.53772e-09 7.12887e-08 -7.46959 -nan -nan -nan -nan -nan
13 2 5.55 -7.4 -9.25 7.6369e+06 3.25272e+07 -4.58683e+08 -263.917 32.6369 392304 -nan -nan -nan -nan -nan
14 2 3.7 -5.55 -9.25 3.22636e+07 3.22014e+07 -4.5861e+08 -2.28186e-10 -0.000159254 -7.46959 -nan -nan -nan -nan -nan
15 2 9.25 -7.4 -9.25 -2.62036e+08 1.86795e+07 -2.49614e+08 -32197.9 2.07744e+07 418206 -nan -nan -nan -nan -nan
16 2 7.4 -5.55 -9.25 3.2366e+07 1.98332e+07 -4.58683e+08 6.04829e+06 -168220 224079 -nan -nan -nan -nan -nan
17 2 -9.25 -3.7 -9.25 -2.49775e+08 1.89667e+07 -2.49568e+08 -6.04855e+06 -3.37971e+07 224083 -nan -nan -nan -nan -nan
18 2 -5.55 -3.7 -9.25 3.22014e+07 3.22636e+07 -4.5861e+08 27.7342 -7.46158 -0.00785247 -nan -nan -nan -nan -nan
19 2 -7.4 -1.85 -9.25 3.23654e+07 1.98953e+07 -4.58683e+08 -6.04853e+06 168217 224085 -nan -nan -nan -nan -nan
20 2 -1.85 -3.7 -9.25 3.22635e+07 3.22635e+07 -4.5861e+08 3.02391e-09 -4.70507e-08 0.000158285 -nan -nan -nan -nan -nan
21 2 -3.7 -1.85 -9.25 3.22635e+07 3.22635e+07 -4.5861e+08 -0 0.000158286 -4.73731e-08 -nan -nan -nan -nan -nan
22 2 1.85 -3.7 -9.25 3.22635e+07 3.22635e+07 -4.5861e+08 2.84604e-09 -7.02135e-08 0.000158284 -nan -nan -nan -nan -nan
23 2 0 -1.85 -9.25 3.22635e+07 3.22635e+07 -4.5861e+08 4.93441e-09 7.13298e-08 -4.92995e-08 -nan -nan -nan -nan -nan
24 2 5.55 -3.7 -9.25 3.22634e+07 3.22636e+07 -4.5861e+08 -27.7342 34.5888 -0.00785247 -nan -nan -nan -nan -nan
25 2 3.7 -1.85 -9.25 3.22635e+07 3.22635e+07 -4.5861e+08 8.09342e-09 -0.000159253 -4.92993e-08 -nan -nan -nan -nan -nan
26 2 9.25 -3.7 -9.25 -2.49713e+08 1.89667e+07 -2.49568e+08 6.04855e+06 2.05943e+07 224083 -nan -nan -nan -nan -nan
27 2 7.4 -1.85 -9.25 3.23654e+07 1.98953e+07 -4.58683e+08 6.04853e+06 -168217 224085 -nan -nan -nan -nan -nan
28 2 -9.25 0 -9.25 -2.49775e+08 1.89667e+07 -2.49568e+08 -6.04855e+06 -3.37971e+07 224083 -nan -nan -nan -nan -nan
29 2 -5.55 0 -9.25 3.22014e+07 3.22636e+07 -4.5861e+08 27.7342 -7.46158 -0.00801068 -nan -nan -nan -nan -nan
30 2 -7.4 1.85 -9.25 3.23654e+07 1.98953e+07 -4.58683e+08 -6.04853e+06 168217 224085 -nan -nan -nan -nan -nan
31 2 -1.85 0 -9.25 3.22635e+07 3.22635e+07 -4.5861e+08 1.06591e-08 -5.00725e-08 7.19198e-08 -nan -nan -nan -nan -nan
32 2 -3.7 1.85 -9.25 3.22635e+07 3.22635e+07 -4.5861e+08 -0 0.000158286 -7.21561e-08 -nan -nan -nan -nan -nan
33 2 1.85 0 -9.25 3.22635e+07 3.22635e+07 -4.5861e+08 -7.43991e-09 -6.97724e-08 6.9998e-08 -nan -nan -nan -nan -nan
34 2 0 1.85 -9.25 3.22635e+07 3.22635e+07 -4.5861e+08 -7.43987e-09 7.08222e-08 -6.97558e-08 -nan -nan -nan -nan -nan
35 2 5.55 0 -9.25 3.22634e+07 3.22636e+07 -4.5861e+08 -27.7342 34.5888 -0.00801068 -nan -nan -nan -nan -nan
36 2 3.7 1.85 -9.25 3.22635e+07 3.22635e+07 -4.5861e+08 1.77877e-10 -0.000159253 -7.02002e-08 -nan -nan -nan -nan -nan
37 2 9.25 0 -9.25 -2.49713e+08 1.89667e+07 -2.49568e+08 6.04855e+06 2.05943e+07 224083 -nan -nan -nan -nan -nan
38 2 7.4 1.85 -9.25 3.23654e+07 1.98953e+07 -4.58683e+08 6.04853e+06 -168217 224085 -nan -nan -nan -nan -nan
39 2 -9.25 3.7 -9.25 -2.49775e+08 1.89667e+07 -2.49568e+08 -6.04855e+06 -3.37971e+07 224083 -nan -nan -nan -nan -nan
40 2 -5.55 3.7 -9.25 3.22014e+07 3.22636e+07 -4.5861e+08 27.7342 -7.46158 -0.00817 -nan -nan -nan -nan -nan
41 2 -7.4 5.55 -9.25 3.23654e+07 1.98952e+07 -4.58683e+08 -6.04853e+06 168220 224117 -nan -nan -nan -nan -nan
42 2 -1.85 3.7 -9.25 3.22635e+07 3.22635e+07 -4.5861e+08 5.33614e-09 -4.16678e-08 -0.000159253 -nan -nan -nan -nan -nan
43 2 -3.7 5.55 -9.25 3.22635e+07 3.22634e+07 -4.5861e+08 -4.36926e-22 0.000158286 34.5808 -nan -nan -nan -nan -nan
44 2 1.85 3.7 -9.25 3.22635e+07 3.22635e+07 -4.5861e+08 -8.89873e-11 -6.92832e-08 -0.000159254 -nan -nan -nan -nan -nan
45 2 0 5.55 -9.25 3.22635e+07 3.22634e+07 -4.5861e+08 7.08444e-09 7.4015e-08 34.5808 -nan -nan -nan -nan -nan
46 2 5.55 3.7 -9.25 3.22634e+07 3.22636e+07 -4.5861e+08 -27.7342 34.5888 -0.00817 -nan -nan -nan -nan -nan
47 2 3.7 5.55 -9.25 3.22635e+07 3.22634e+07 -4.5861e+08 3.02391e-09 -0.000159254 34.5808 -nan -nan -nan -nan -nan
48 2 9.25 3.7 -9.25 -2.49713e+08 1.89667e+07 -2.49568e+08 6.04855e+06 2.05943e+07 224083 -nan -nan -nan -nan -nan
49 2 7.4 5.55 -9.25 3.23654e+07 1.98952e+07 -4.58683e+08 6.04853e+06 -168220 224117 -nan -nan -nan -nan -nan
50 2 -9.25 7.4 -9.25 -2.49839e+08 1.85177e+07 -2.49614e+08 -6.08053e+06 -3.37531e+07 254047 -nan -nan -nan -nan -nan
51 2 -5.55 7.4 -9.25 3.20915e+07 3.22042e+07 -4.58683e+08 24.5456 -4.87303 55864.2 -nan -nan -nan -nan -nan
52 2 -7.4 9.25 -9.25 3.09378e+07 -2.62197e+08 -2.49614e+08 -6.08049e+06 194122 2.09985e+07 -nan -nan -nan -nan -nan
53 2 -1.85 7.4 -9.25 3.21536e+07 3.22042e+07 -4.58683e+08 1.24078e-08 -4.52253e-08 55867.4 -nan -nan -nan -nan -nan
54 2 -3.7 9.25 -9.25 3.1225e+07 -2.49874e+08 -2.49568e+08 0.000446003 0.0913056 2.08184e+07 -nan -nan -nan -nan -nan
55 2 1.85 7.4 -9.25 3.21536e+07 3.22042e+07 -4.58683e+08 -4.23848e-09 -7.06618e-08 55867.4 -nan -nan -nan -nan -nan
56 2 0 9.25 -9.25 3.1225e+07 -2.49874e+08 -2.49568e+08 5.07565e-08 4.60445e-08 2.08184e+07 -nan -nan -nan -nan -nan
57 2 5.55 7.4 -9.25 3.21535e+07 3.22042e+07 -4.58683e+08 -24.5455 32.0002 55864.2 -nan -nan -nan -nan -nan
58 2 3.7 9.25 -9.25 3.1225e+07 -2.49874e+08 -2.49568e+08 0.000267442 -0.0920191 2.08184e+07 -nan -nan -nan -nan -nan
59 2 9.25 7.4 -9.25 -2.49777e+08 1.85177e+07 -2.49614e+08 6.08049e+06 2.05503e+07 254047 -nan -nan -nan -nan -nan
60 2 7.4 9.25 -9.25 3.09378e+07 -2.62197e+08 -2.49614e+08 6.08049e+06 -194122 2.09985e+07 -nan -nan -nan -nan -nan
61 2 -9.25 -9.25 -7.4 -2.62111e+08 -2.62111e+08 3.10859e+07 -3.43807e+07 462916 462916 -nan -nan -nan -nan -nan
62 2 -5.55 -9.25 -7.4 7.57492e+06 -4.7065e+08 4.44935e+07 -5.81832 264.297 392304 -nan -nan -nan -nan -nan
63 2 -7.4 -9.25 -5.55 3.23796e+07 -4.58647e+08 1.98882e+07 196149 -6.08257e+06 179366 -nan -nan -nan -nan -nan
64 2 -1.85 -9.25 -7.4 7.63697e+06 -4.7065e+08 4.4493e+07 -4.42987e-08 3.11285e-08 392301 -nan -nan -nan -nan -nan
65 2 -3.7 -9.25 -5.55 3.22636e+07 -4.5861e+08 3.22014e+07 0.000158286 2.22347e-10 -7.46959 -nan -nan -nan -nan -nan
66 2 1.85 -9.25 -7.4 7.63697e+06 -4.7065e+08 4.4493e+07 -7.04096e-08 3.69095e-08 392301 -nan -nan -nan -nan -nan
67 2 0 -9.25 -5.55 3.22636e+07 -4.5861e+08 3.22014e+07 7.04934e-08 -1.67322e-08 -7.46959 -nan -nan -nan -nan -nan
68 2 5.55 -9.25 -7.4 7.6369e+06 -4.7065e+08 4.44935e+07 32.9455 -264.297 392304 -nan -nan -nan -nan -nan
69 2 3.7 -9.25 -5.55 3.22636e+07 -4.5861e+08 3.22014e+07 -0.000159253 -8.00453e-09 -7.46959 -nan -nan -nan -nan -nan
70 2 9.25 -9.25 -7.4 -2.62049e+08 -2.62111e+08 3.10859e+07 2.11779e+07 -462879 462916 -nan -nan -nan -nan -nan
71 2 7.4 -9.25 -5.55 3.23796e+07 -4.58647e+08 1.98882e+07 -196149 6.08257e+06 179366 -nan -nan -nan -nan -nan
72 2 -9.25 -5.55 -7.4 -4.7065e+08 7.57492e+06 4.44935e+07 -5.81832 392304 264.297 -nan -nan -nan -nan -nan
73 2 -9.25 -7.4 -5.55 -4.70613e+08 4.43459e+07 1.98882e+07 196149 179366 -6.08257e+06 -nan -nan -nan -nan -nan
74 2 -7.4 -7.4 -7.4 -4.70396e+07 -4.70396e+07 -4.70396e+07 -1.88932e+06 -1.88932e+06 -1.88932e+06 -nan -nan -nan -nan -nan
75 2 -5.55 -5.55 -7.4 -1.75195e+07 -1.75195e+07 5.81878e+06 9.60123 27.7949 27.7949 -nan -nan -nan -nan -nan
76 2 -5.55 -7.4 -5.55 -1.75195e+07 6.12227e+06 -5.24967e+06 27.7949 9.60123 -6.28661e+06 -nan -nan -nan -nan -nan
77 2 -7.4 -5.55 -5.55 6.42575e+06 -5.24967e+06 -5.24967e+06 -6.28661e+06 -6.28661e+06 9.60123 -nan -nan -nan -nan -nan
78 2 -3.7 -7.4 -7.4 -4.20465e+07 -2.06099e+07 -2.06099e+07 4.80062 4.80062 -1.8889e+06 -nan -nan -nan -nan -nan
79 2 -1.85 -5.55 -7.4 -1.75067e+07 -1.75195e+07 5.81873e+06 4.80062 3.184e-08 27.7949 -nan -nan -nan -nan -nan
80 2 -1.85 -7.4 -5.55 -1.75067e+07 6.12221e+06 -5.24968e+06 3.41524e-08 4.80062 -6.28661e+06 -nan -nan -nan -nan -nan
81 2 -3.7 -5.55 -5.55 7.03295e+06 7.02013e+06 7.02013e+06 5.6795e-11 -1.77877e-10 9.60123 -nan -nan -nan -nan -nan
82 2 0 -7.4 -7.4 -4.20465e+07 -2.06099e+07 -2.06099e+07 4.80062 4.80062 -1.8889e+06 -nan -nan -nan -nan -nan
83 2 1.85 -5.55 -7.4 -1.75067e+07 -1.75195e+07 5.81873e+06 4.80062 4.1979e-08 27.7949 -nan -nan -nan -nan -nan
84 2 1.85 -7.4 -5.55 -1.75067e+07 6.12221e+06 -5.24968e+06 3.20179e-08 4.80062 -6.28661e+06 -nan -nan -nan -nan -nan
85 2 0 -5.55 -5.55 7.03295e+06 7.02013e+06 7.02013e+06 -6.54714e-10 -7.11509e-10 9.60123 -nan -nan -nan -nan -nan
86 2 3.7 -7.4 -7.4 -4.20465e+07 -2.06099e+07 -2.06099e+07 4.80062 4.80062 -1.8889e+06 -nan -nan -nan -nan -nan
87 2 5.55 -5.55 -7.4 -1.75067e+07 -1.75195e+07 5.81878e+06 4.80062 -27.7949 27.7949 -nan -nan -nan -nan -nan
88 2 5.55 -7.4 -5.55 -1.75067e+07 6.12227e+06 -5.24968e+06 -27.7949 4.80062 -6.28661e+06 -nan -nan -nan -nan -nan
89 2 3.7 -5.55 -5.55 7.03295e+06 7.02013e+06 7.02013e+06 -2.61136e-09 -2.66816e-09 9.60123 -nan -nan -nan -nan -nan
90 2 7.4 -7.4 -7.4 -4.64325e+07 -3.47697e+07 -3.47697e+07 8.17601e+06 8.17601e+06 -1.88932e+06 -nan -nan -nan -nan -nan
91 2 9.25 -5.55 -7.4 -4.70333e+08 1.98448e+07 4.44935e+07 6.28669e+06 -392304 264.289 -nan -nan -nan -nan -nan
92 2 9.25 -7.4 -5.55 -4.70297e+08 4.43459e+07 3.2158e+07 -196149 6.10732e+06 -6.08257e+06 -nan -nan -nan -nan -nan
93 2 7.4 -5.55 -5.55 6.42575e+06 -5.24967e+06 -5.24967e+06 6.28661e+06 6.28661e+06 9.60123 -nan -nan -nan -nan -nan
94 2 -9.25 -1.85 -7.4 -4.7065e+08 7.63697e+06 4.4493e+07 -4.29412e-08 392301 2.63535e-08 -nan -nan -nan -nan -nan
95 2 -9.25 -3.7 -5.55 -4.58306e+08 4.45334e+07 3.22014e+07 -6.28664e+06 -7.46959 -8.89386e-11 -nan -nan -nan -nan -nan
96 2 -7.4 -3.7 -7.4 -2.06099e+07 -4.20465e+07 -2.06099e+07 4.80062 -1.8889e+06 4.80062 -nan -nan -nan -nan -nan
97 2 -5.55 -1.85 -7.4 -1.75195e+07 -1.75067e+07 5.81873e+06 4.80062 27.7949 3.59312e-08 -nan -nan -nan -nan -nan
98 2 -5.55 -3.7 -5.55 7.02013e+06 7.03294e+06 7.02013e+06 4.80062 9.60123 4.80269e-09 -nan -nan -nan -nan -nan
99 2 -7.4 -1.85 -5.55 6.42568e+06 -5.23689e+06 -5.24968e+06 -6.28663e+06 -6.28661e+06 4.80062 -nan -nan -nan -nan -nan
100 2 -3.7 -3.7 -7.4 -1.75067e+07 -1.75067e+07 5.81868e+06 1.6009e-09 4.80062 4.80062 -nan -nan -nan -nan -nan
101 2 -1.85 -1.85 -7.4 -1.75067e+07 -1.75067e+07 5.81868e+06 -1.52481e-08 3.56323e-08 3.57533e-08 -nan -nan -nan -nan -nan
102 2 -1.85 -3.7 -5.55 7.03292e+06 7.03293e+06 7.02012e+06 7.11509e-10 4.80062 8.32592e-10 -nan -nan -nan -nan -nan
103 2 -3.7 -1.85 -5.55 7.03293e+06 7.03292e+06 7.02012e+06 -0 -3.9133e-09 4.80062 -nan -nan -nan -nan -nan
104 2 0 -3.7 -7.4 -1.75067e+07 -1.75067e+07 5.81868e+06 -1.03169e-08 4.80062 4.80062 -nan -nan -nan -nan -nan
105 2 1.85 -1.85 -7.4 -1.75067e+07 -1.75067e+07 5.81868e+06 -1.6009e-09 4.16233e-08 3.50418e-08 -nan -nan -nan -nan -nan
106 2 1.85 -3.7 -5.55 7.03292e+06 7.03293e+06 7.02012e+06 -3.20179e-09 4.80062 1.06726e-09 -nan -nan -nan -nan -nan
107 2 0 -1.85 -5.55 7.03293e+06 7.03292e+06 7.02012e+06 -4.80269e-09 3.37967e-09 4.80062 -nan -nan -nan -nan -nan
108 2 3.7 -3.7 -7.4 -1.75067e+07 -1.75067e+07 5.81868e+06 2.84604e-09 4.80062 4.80062 -nan -nan -nan -nan -nan
109 2 5.55 -1.85 -7.4 -1.75067e+07 -1.75067e+07 5.81873e+06 5.80303e-09 -27.7949 2.56143e-08 -nan -nan -nan -nan -nan
110 2 5.55 -3.7 -5.55 7.03292e+06 7.03294e+06 7.02012e+06 -4.80062 4.80062 -7.39249e-10 -nan -nan -nan -nan -nan
111 2 3.7 -1.85 -5.55 7.03293e+06 7.03292e+06 7.02012e+06 1.06726e-09 -4.62481e-09 4.80062 -nan -nan -nan -nan -nan
112 2 7.4 -3.7 -7.4 -2.00029e+07 -2.97767e+07 -8.34015e+06 6.28668e+06 8.17555e+06 4.7926 -nan -nan -nan -nan -nan
113 2 9.25 -1.85 -7.4 -4.70333e+08 1.99068e+07 4.4493e+07 6.28668e+06 -392301 -0.00801071 -nan -nan -nan -nan -nan
114 2 9.25 -3.7 -5.55 -4.5799e+08 4.45334e+07 4.44712e+07 6.28664e+06 6.28665e+06 5.3363e-10 -nan -nan -nan -nan -nan
115 2 7.4 -1.85 -5.55 6.42568e+06 -5.23689e+06 -5.24968e+06 6.28663e+06 6.28661e+06 4.80062 -nan -nan -nan -nan -nan
116 2 -9.25 1.85 -7.4 -4.7065e+08 7.63697e+06 4.4493e+07 -7.03041e-08 392301 4.18733e-08 -nan -nan -nan -nan -nan
117 2 -9.25 0 -5.55 -4.58306e+08 4.45334e+07 3.22014e+07 -6.28664e+06 -7.46959 -1.60771e-08 -nan -nan -nan -nan -nan
118 2 -7.4 0 -7.4 -2.06099e+07 -4.20465e+07 -2.06099e+07 4.80062 -1.8889e+06 4.80062 -nan -nan -nan -nan -nan
119 2 -5.55 1.85 -7.4 -1.75195e+07 -1.75067e+07 5.81873e+06 4.80062 27.7949 4.1979e-08 -nan -nan -nan -nan -nan
120 2 -5.55 0 -5.55 7.02013e+06 7.03294e+06 7.02013e+06 4.80062 9.60123 -9.22188e-10 -nan -nan -nan -nan -nan
121 2 -7.4 1.85 -5.55 6.42568e+06 -5.23689e+06 -5.24968e+06 -6.28663e+06 -6.28661e+06 4.80062 -nan -nan -nan -nan -nan
122 2 -3.7 0 -7.4 -1.75067e+07 -1.75067e+07 5.81868e+06 -6.58146e-09 4.80062 4.80062 -nan -nan -nan -nan -nan
123 2 -1.85 1.85 -7.4 -1.75067e+07 -1.75067e+07 5.81868e+06 2.1812e-09 3.48312e-08 4.1979e-08 -nan -nan -nan -nan -nan
124 2 -1.85 0 -5.55 7.03292e+06 7.03293e+06 7.02012e+06 7.44311e-10 4.80062 2.82204e-09 -nan -nan -nan -nan -nan
125 2 -3.7 1.85 -5.55 7.03293e+06 7.03292e+06 7.02012e+06 -0 -0 4.80062 -nan -nan -nan -nan -nan
126 2 0 0 -7.4 -1.75067e+07 -1.75067e+07 5.81868e+06 3.56634e-09 4.80062 4.80062 -nan -nan -nan -nan -nan
127 2 1.85 1.85 -7.4 -1.75067e+07 -1.75067e+07 5.81868e+06 9.26724e-09 4.54521e-08 4.55366e-08 -nan -nan -nan -nan -nan
128 2 1.85 0 -5.55 7.03292e+06 7.03293e+06 7.02012e+06 -1.11217e-08 4.80062 3.64208e-09 -nan -nan -nan -nan -nan
129 2 0 1.85 -5.55 7.03293e+06 7.03292e+06 7.02012e+06 -9.16508e-09 4.53147e-09 4.80062 -nan -nan -nan -nan -nan
130 2 3.7 0 -7.4 -1.75067e+07 -1.75067e+07 5.81868e+06 1.6009e-09 4.80062 4.80062 -nan -nan -nan -nan -nan
131 2 5.55 1.85 -7.4 -1.75067e+07 -1.75067e+07 5.81873e+06 5.60754e-09 -27.7949 4.16233e-08 -nan -nan -nan -nan -nan
132 2 5.55 0 -5.55 7.03292e+06 7.03294e+06 7.02012e+06 -4.80062 4.80062 6.97508e-09 -nan -nan -nan -nan -nan
133 2 3.7 1.85 -5.55 7.03293e+06 7.03292e+06 7.02012e+06 -5.15844e-09 2.84604e-09 4.80062 -nan -nan -nan -nan -nan
134 2 7.4 0 -7.4 -2.00029e+07 -2.97767e+07 -8.34015e+06 6.28668e+06 8.17555e+06 4.7926 -nan -nan -nan -nan -nan
135 2 9.25 1.85 -7.4 -4.70333e+08 1.99068e+07 4.4493e+07 6.28668e+06 -392301 -0.00801071 -nan -nan -nan -nan -nan
136 2 9.25 0 -5.55 -4.5799e+08 4.45334e+07 4.44712e+07 6.28664e+06 6.28665e+06 -3.29073e-09 -nan -nan -nan -nan -nan
137 2 7.4 1.85 -5.55 6.42568e+06 -5.23689e+06 -5.24968e+06 6.28663e+06 6.28661e+06 4.80062 -nan -nan -nan -nan -nan
138 2 -9.25 5.55 -7.4 -4.7065e+08 7.63698e+06 4.44935e+07 -2.25333 392304 -264.297 -nan -nan -nan -nan -nan
139 2 -9.25 3.7 -5.55 -4.58306e+08 4.45334e+07 3.22014e+07 -6.28664e+06 -7.46959 -5.69212e-09 -nan -nan -nan -nan -nan
140 2 -7.4 3.7 -7.4 -2.06099e+07 -4.20465e+07 -2.06099e+07 4.80062 -1.8889e+06 4.80062 -nan -nan -nan -nan -nan
141 2 -5.55 5.55 -7.4 -1.75195e+07 -1.75067e+07 5.81878e+06 4.80062 27.7949 -27.7949 -nan -nan -nan -nan -nan
142 2 -5.55 3.7 -5.55 7.02013e+06 7.03294e+06 7.02013e+06 4.80062 9.60123 -3.02391e-09 -nan -nan -nan -nan -nan
143 2 -7.4 5.55 -5.55 6.42568e+06 -5.23689e+06 -5.24968e+06 -6.28663e+06 -6.28661e+06 4.80062 -nan -nan -nan -nan -nan
144 2 -3.7 3.7 -7.4 -1.75067e+07 -1.75067e+07 5.81868e+06 2.84604e-09 4.80062 4.80062 -nan -nan -nan -nan -nan
145 2 -1.85 5.55 -7.4 -1.75067e+07 -1.75067e+07 5.81873e+06 9.89421e-09 2.81324e-08 -27.7949 -nan -nan -nan -nan -nan
146 2 -1.85 3.7 -5.55 7.03292e+06 7.03293e+06 7.02012e+06 -8.89387e-10 4.80062 -3.08071e-09 -nan -nan -nan -nan -nan
147 2 -3.7 5.55 -5.55 7.03293e+06 7.03292e+06 7.02012e+06 -2.49028e-09 -1.77877e-10 4.80062 -nan -nan -nan -nan -nan
148 2 0 3.7 -7.4 -1.75067e+07 -1.75067e+07 5.81868e+06 -1.77877e-10 4.80062 4.80062 -nan -nan -nan -nan -nan
149 2 1.85 5.55 -7.4 -1.75067e+07 -1.75067e+07 5.81873e+06 9.38963e-09 3.90346e-08 -27.7949 -nan -nan -nan -nan -nan
150 2 1.85 3.7 -5.55 7.03292e+06 7.03293e+06 7.02012e+06 -3.9133e-09 4.80062 2.49028e-09 -nan -nan -nan -nan -nan
151 2 0 5.55 -5.55 7.03293e+06 7.03292e+06 7.02012e+06 -7.37244e-09 1.16567e-09 4.80062 -nan -nan -nan -nan -nan
152 2 3.7 3.7 -7.4 -1.75067e+07 -1.75067e+07 5.81868e+06 6.58146e-09 4.80062 4.80062 -nan -nan -nan -nan -nan
153 2 5.55 5.55 -7.4 -1.75067e+07 -1.75067e+07 5.81878e+06 4.53147e-09 -27.7949 -27.7949 -nan -nan -nan -nan -nan
154 2 5.55 3.7 -5.55 7.03292e+06 7.03294e+06 7.02012e+06 -4.80062 4.80062 1.75103e-09 -nan -nan -nan -nan -nan
155 2 3.7 5.55 -5.55 7.03293e+06 7.03292e+06 7.02012e+06 -8.89387e-10 1.77877e-09 4.80062 -nan -nan -nan -nan -nan
156 2 7.4 3.7 -7.4 -2.00029e+07 -2.97767e+07 -8.34015e+06 6.28668e+06 8.17555e+06 4.7926 -nan -nan -nan -nan -nan
157 2 9.25 5.55 -7.4 -4.70333e+08 1.99068e+07 4.44935e+07 6.28668e+06 -392304 -264.305 -nan -nan -nan -nan -nan
158 2 9.25 3.7 -5.55 -4.5799e+08 4.45334e+07 4.44712e+07 6.28664e+06 6.28665e+06 -3.11286e-09 -nan -nan -nan -nan -nan
159 2 7.4 5.55 -5.55 6.42568e+06 -5.23689e+06 -5.24968e+06 6.28663e+06 6.28661e+06 4.80062 -nan -nan -nan -nan -nan
160 2 -9.25 9.25 -7.4 -2.62111e+08 -2.62049e+08 3.10859e+07 2.11779e+07 462916 -462878 -nan -nan -nan -nan -nan
161 2 -9.25 7.4 -5.55 -4.58343e+08 4.46494e+07 1.98882e+07 -6.48276e+06 179366 6.08257e+06 -nan -nan -nan -nan -nan
162 2 -7.4 7.4 -7.4 -3.47697e+07 -4.64325e+07 -3.47697e+07 8.17601e+06 -1.88932e+06 8.17601e+06 -nan -nan -nan -nan -nan
163 2 -5.55 9.25 -7.4 1.98448e+07 -4.70333e+08 4.44935e+07 6.28666e+06 264.289 -392304 -nan -nan -nan -nan -nan
164 2 -5.55 7.4 -5.55 7.02011e+06 6.72916e+06 -5.24967e+06 4.80062 9.60123 6.28661e+06 -nan -nan -nan -nan -nan
165 2 -7.4 9.25 -5.55 5.66157e+07 -4.69994e+08 3.2158e+07 -6.48276e+06 -6.08257e+06 6.10732e+06 -nan -nan -nan -nan -nan
166 2 -3.7 7.4 -7.4 -2.97767e+07 -2.00029e+07 -8.34015e+06 6.28668e+06 4.7926 8.17555e+06 -nan -nan -nan -nan -nan
167 2 -1.85 9.25 -7.4 1.99068e+07 -4.70333e+08 4.4493e+07 6.28668e+06 -0.00801072 -392301 -nan -nan -nan -nan -nan
168 2 -1.85 7.4 -5.55 7.0329e+06 6.72915e+06 -5.24968e+06 -5.0083e-10 4.80062 6.28661e+06 -nan -nan -nan -nan -nan
169 2 -3.7 9.25 -5.55 5.68032e+07 -4.57686e+08 4.44712e+07 9.6977e-07 5.69207e-09 6.28665e+06 -nan -nan -nan -nan -nan
170 2 0 7.4 -7.4 -2.97767e+07 -2.00029e+07 -8.34015e+06 6.28668e+06 4.7926 8.17555e+06 -nan -nan -nan -nan -nan
171 2 1.85 9.25 -7.4 1.99068e+07 -4.70333e+08 4.4493e+07 6.28668e+06 -0.0080107 -392301 -nan -nan -nan -nan -nan
172 2 1.85 7.4 -5.55 7.0329e+06 6.72915e+06 -5.24968e+06 -1.45531e-08 4.80062 6.28661e+06 -nan -nan -nan -nan -nan
173 2 0 9.25 -5.55 5.68032e+07 -4.57686e+08 4.44712e+07 2.5108e-08 -2.0278e-08 6.28665e+06 -nan -nan -nan -nan -nan
174 2 3.7 7.4 -7.4 -2.97767e+07 -2.00029e+07 -8.34015e+06 6.28668e+06 4.7926 8.17555e+06 -nan -nan -nan -nan -nan
175 2 5.55 9.25 -7.4 1.99068e+07 -4.70333e+08 4.44935e+07 6.28668e+06 -264.305 -392304 -nan -nan -nan -nan -nan
176 2 5.55 7.4 -5.55 7.0329e+06 6.72916e+06 -5.24968e+06 -4.80062 4.80062 6.28661e+06 -nan -nan -nan -nan -nan
177 2 3.7 9.25 -5.55 5.68032e+07 -4.57686e+08 4.44712e+07 -5.75297e-09 -1.77877e-10 6.28665e+06 -nan -nan -nan -nan -nan
178 2 7.4 7.4 -7.4 -3.22734e+07 -3.22734e+07 -2.24999e+07 1.25734e+07 8.17601e+06 8.17601e+06 -nan -nan -nan -nan -nan
179 2 9.25 9.25 -7.4 -2.47587e+08 -2.47587e+08 3.10859e+07 6.48759e+06 -462880 -462880 -nan -nan -nan -nan -nan
180 2 9.25 7.4 -5.55 -4.58027e+08 4.46494e+07 3.2158e+07 6.48276e+06 6.10732e+06 6.08257e+06 -nan -nan -nan -nan -nan
181 2 7.4 9.25 -5.55 5.66157e+07 -4.69994e+08 3.2158e+07 6.48276e+06 6.08257e+06 6.10732e+06 -nan -nan -nan -nan -nan
182 2 -9.25 -9.25 -3.7 -2.49752e+08 -2.49752e+08 3.1225e+07 -3.40212e+07 -5.81403e+06 -5.81403e+06 -nan -nan -nan -nan -nan
183 2 -5.55 -9.25 -3.7 3.22014e+07 -4.58306e+08 4.45334e+07 -7.7702 28.1148 -6.28663e+06 -nan -nan -nan -nan -nan
184 2 -7.4 -9.25 -1.85 3.2379e+07 -4.58647e+08 1.99502e+07 196147 -6.0828e+06 179371 -nan -nan -nan -nan -nan
185 2 -1.85 -9.25 -3.7 3.22635e+07 -4.58306e+08 4.45333e+07 -4.99425e-08 6.22571e-10 -6.28664e+06 -nan -nan -nan -nan -nan
186 2 -3.7 -9.25 -1.85 3.22635e+07 -4.5861e+08 3.22635e+07 0.000158286 2.15528e-17 -4.86494e-08 -nan -nan -nan -nan -nan
187 2 1.85 -9.25 -3.7 3.22635e+07 -4.58306e+08 4.45333e+07 -7.00766e-08 -1.33408e-09 -6.28664e+06 -nan -nan -nan -nan -nan
188 2 0 -9.25 -1.85 3.22635e+07 -4.5861e+08 3.22635e+07 6.96379e-08 1.17707e-08 -5.0784e-08 -nan -nan -nan -nan -nan
189 2 5.55 -9.25 -3.7 3.22634e+07 -4.58306e+08 4.45334e+07 34.8974 -28.1148 -6.28663e+06 -nan -nan -nan -nan -nan
190 2 3.7 -9.25 -1.85 3.22635e+07 -4.5861e+08 3.22635e+07 -0.000159254 6.22566e-09 -4.56255e-08 -nan -nan -nan -nan -nan
191 2 9.25 -9.25 -3.7 -2.4969e+08 -2.49752e+08 3.1225e+07 2.08184e+07 5.81403e+06 -5.81403e+06 -nan -nan -nan -nan -nan
192 2 7.4 -9.25 -1.85 3.2379e+07 -4.58647e+08 1.99502e+07 -196147 6.0828e+06 179371 -nan -nan -nan -nan -nan
193 2 -9.25 -5.55 -3.7 -4.58306e+08 3.22014e+07 4.45334e+07 -7.7702 -6.28663e+06 28.1148 -nan -nan -nan -nan -nan
194 2 -9.25 -7.4 -1.85 -4.70613e+08 4.43454e+07 1.99502e+07 196147 179371 -6.0828e+06 -nan -nan -nan -nan -nan
195 2 -7.4 -7.4 -3.7 -2.06099e+07 -2.06099e+07 -4.20465e+07 -1.8889e+06 4.80062 4.80062 -nan -nan -nan -nan -nan
196 2 -5.55 -5.55 -3.7 7.02013e+06 7.02013e+06 7.03293e+06 9.60123 4.80062 4.80062 -nan -nan -nan -nan -nan
197 2 -5.55 -7.4 -1.85 -1.75195e+07 6.1222e+06 -5.23689e+06 27.7949 4.80062 -6.28663e+06 -nan -nan -nan -nan -nan
198 2 -7.4 -5.55 -1.85 6.42568e+06 -5.24968e+06 -5.23689e+06 -6.28661e+06 -6.28663e+06 4.80062 -nan -nan -nan -nan -nan
199 2 -3.7 -7.4 -3.7 -1.75067e+07 5.81868e+06 -1.75067e+07 4.80062 -7.11509e-10 4.80062 -nan -nan -nan -nan -nan
200 2 -1.85 -5.55 -3.7 7.03292e+06 7.02012e+06 7.03292e+06 4.80062 -5.33632e-10 4.80062 -nan -nan -nan -nan -nan
201 2 -1.85 -7.4 -1.85 -1.75067e+07 6.12215e+06 -5.2369e+06 3.73542e-08 -1.45291e-08 -6.28663e+06 -nan -nan -nan -nan -nan
202 2 -3.7 -5.55 -1.85 7.03293e+06 7.02012e+06 7.03292e+06 -3.9133e-09 -0 4.80062 -nan -nan -nan -nan -nan
203 2 0 -7.4 -3.7 -1.75067e+07 5.81868e+06 -1.75067e+07 4.80062 -6.58146e-09 4.80062 -nan -nan -nan -nan -nan
204 2 1.85 -5.55 -3.7 7.03292e+06 7.02012e+06 7.03292e+06 4.80062 -3.20179e-09 4.80062 -nan -nan -nan -nan -nan
205 2 1.85 -7.4 -1.85 -1.75067e+07 6.12215e+06 -5.2369e+06 3.20179e-08 4.09118e-09 -6.28663e+06 -nan -nan -nan -nan -nan
206 2 0 -5.55 -1.85 7.03293e+06 7.02012e+06 7.03292e+06 3.37967e-09 -6.40358e-09 4.80062 -nan -nan -nan -nan -nan
207 2 3.7 -7.4 -3.7 -1.75067e+07 5.81868e+06 -1.75067e+07 4.80062 1.06726e-09 4.80062 -nan -nan -nan -nan -nan
208 2 5.55 -5.55 -3.7 7.03292e+06 7.02012e+06 7.03293e+06 4.80062 -4.80062 4.80062 -nan -nan -nan -nan -nan
209 2 5.55 -7.4 -1.85 -1.75067e+07 6.1222e+06 -5.2369e+06 -27.7949 2.6959e-09 -6.28663e+06 -nan -nan -nan -nan -nan
210 2 3.7 -5.55 -1.85 7.03293e+06 7.02012e+06 7.03292e+06 -4.62481e-09 2.84604e-09 4.80062 -nan -nan -nan -nan -nan
211 2 7.4 -7.4 -3.7 -2.00029e+07 -8.34015e+06 -2.97767e+07 8.17555e+06 6.28668e+06 4.7926 -nan -nan -nan -nan -nan
212 2 9.25 -5.55 -3.7 -4.5799e+08 4.44712e+07 4.45334e+07 6.28665e+06 6.28663e+06 28.1148 -nan -nan -nan -nan -nan
213 2 9.25 -7.4 -1.85 -4.70297e+08 4.43454e+07 3.22201e+07 -196146 6.10731e+06 -6.0828e+06 -nan -nan -nan -nan -nan
214 2 7.4 -5.55 -1.85 6.42568e+06 -5.24968e+06 -5.23689e+06 6.28661e+06 6.28663e+06 4.80062 -nan -nan -nan -nan -nan
215 2 -9.25 -1.85 -3.7 -4.58306e+08 3.22635e+07 4.45333e+07 -5.09268e-08 -6.28664e+06 3.46861e-09 -nan -nan -nan -nan -nan
216 2 -9.25 -3.7 -1.85 -4.58306e+08 4.45333e+07 3.22635e+07 -6.28664e+06 -5.17623e-08 2.84604e-09 -nan -nan -nan -nan -nan
217 2 -7.4 -3.7 -3.7 5.81868e+06 -1.75067e+07 -1.75067e+07 4.80062 4.80062 -2.31241e-09 -nan -nan -nan -nan -nan
218 2 -5.55 -1.85 -3.7 7.02012e+06 7.03292e+06 7.03292e+06 4.80062 4.80062 1.42302e-09 -nan -nan -nan -nan -nan
219 2 -5.55 -3.7 -1.85 7.02012e+06 7.03292e+06 7.03292e+06 4.80062 4.80062 -1.06726e-09 -nan -nan -nan -nan -nan
220 2 -7.4 -1.85 -1.85 6.42562e+06 -5.2369e+06 -5.2369e+06 -6.28663e+06 -6.28663e+06 -1.33408e-08 -nan -nan -nan -nan -nan
221 2 -3.7 -3.7 -3.7 7.03291e+06 7.03291e+06 7.03291e+06 3.02391e-09 -7.11509e-10 -3.55755e-10 -nan -nan -nan -nan -nan
222 2 -1.85 -1.85 -3.7 7.03291e+06 7.03291e+06 7.03291e+06 -1.43588e-08 -2.9896e-10 -1.77877e-10 -nan -nan -nan -nan -nan
223 2 -1.85 -3.7 -1.85 7.03291e+06 7.03291e+06 7.03291e+06 8.89387e-10 -1.3284e-08 -2.31241e-09 -nan -nan -nan -nan -nan
224 2 -3.7 -1.85 -1.85 7.03291e+06 7.03291e+06 7.03291e+06 -1.6009e-09 -1.24514e-09 -2.24125e-08 -nan -nan -nan -nan -nan
225 2 0 -3.7 -3.7 7.03291e+06 7.03291e+06 7.03291e+06 3.37967e-09 4.09118e-09 1.77877e-09 -nan -nan -nan -nan -nan
226 2 1.85 -1.85 -3.7 7.03291e+06 7.03291e+06 7.03291e+06 5.5142e-09 -5.86995e-09 1.77877e-10 -nan -nan -nan -nan -nan
227 2 1.85 -3.7 -1.85 7.03291e+06 7.03291e+06 7.03291e+06 -3.9133e-09 5.69207e-09 -1.06726e-09 -nan -nan -nan -nan -nan
228 2 0 -1.85 -1.85 7.03291e+06 7.03291e+06 7.03291e+06 -8.36023e-09 -1.04948e-08 -1.44081e-08 -nan -nan -nan -nan -nan
229 2 3.7 -3.7 -3.7 7.03291e+06 7.03291e+06 7.03291e+06 1.06726e-09 1.06726e-09 -8.89387e-10 -nan -nan -nan -nan -nan
230 2 5.55 -1.85 -3.7 7.03291e+06 7.03291e+06 7.03292e+06 4.02426e-09 -4.80062 -3.02391e-09 -nan -nan -nan -nan -nan
231 2 5.55 -3.7 -1.85 7.03291e+06 7.03292e+06 7.03291e+06 -4.80062 6.96496e-09 -4.80269e-09 -nan -nan -nan -nan -nan
232 2 3.7 -1.85 -1.85 7.03291e+06 7.03291e+06 7.03291e+06 -8.89387e-10 -8.89387e-10 -1.54753e-08 -nan -nan -nan -nan -nan
233 2 7.4 -3.7 -3.7 6.42562e+06 -5.23691e+06 -5.23691e+06 6.28664e+06 6.28664e+06 6.22571e-09 -nan -nan -nan -nan -nan
234 2 9.25 -1.85 -3.7 -4.5799e+08 4.45333e+07 4.45333e+07 6.28664e+06 6.28664e+06 7.55978e-10 -nan -nan -nan -nan -nan
235 2 9.25 -3.7 -1.85 -4.5799e+08 4.45333e+07 4.45333e+07 6.28664e+06 6.28664e+06 2.66816e-10 -nan -nan -nan -nan -nan
236 2 7.4 -1.85 -1.85 6.42562e+06 -5.2369e+06 -5.2369e+06 6.28663e+06 6.28663e+06 -1.35187e-08 -nan -nan -nan -nan -nan
237 2 -9.25 1.85 -3.7 -4.58306e+08 3.22635e+07 4.45333e+07 -7.04147e-08 -6.28664e+06 -1.33408e-09 -nan -nan -nan -nan -nan
238 2 -9.25 0 -1.85 -4.58306e+08 4.45333e+07 3.22635e+07 -6.28664e+06 -5.25627e-08 6.60041e-09 -nan -nan -nan -nan -nan
239 2 -7.4 0 -3.7 5.81868e+06 -1.75067e+07 -1.75067e+07 4.80062 4.80062 -3.20179e-09 -nan -nan -nan -nan -nan
240 2 -5.55 1.85 -3.7 7.02012e+06 7.03292e+06 7.03292e+06 4.80062 4.80062 -3.20179e-09 -nan -nan -nan -nan -nan
241 2 -5.55 0 -1.85 7.02012e+06 7.03292e+06 7.03292e+06 4.80062 4.80062 -5.90275e-09 -nan -nan -nan -nan -nan
242 2 -7.4 1.85 -1.85 6.42562e+06 -5.2369e+06 -5.2369e+06 -6.28663e+06 -6.28663e+06 8.53811e-09 -nan -nan -nan -nan -nan
243 2 -3.7 0 -3.7 7.03291e+06 7.03291e+06 7.03291e+06 4.80269e-09 5.69207e-09 1.77877e-10 -nan -nan -nan -nan -nan
244 2 -1.85 1.85 -3.7 7.03291e+06 7.03291e+06 7.03291e+06 4.84936e-09 -3.41247e-09 -5.5142e-09 -nan -nan -nan -nan -nan
245 2 -1.85 0 -1.85 7.03291e+06 7.03291e+06 7.03291e+06 -4.67148e-09 -1.10284e-08 -8.14956e-09 -nan -nan -nan -nan -nan
246 2 -3.7 1.85 -1.85 7.03291e+06 7.03291e+06 7.03291e+06 -1.42302e-09 -0 8.18236e-09 -nan -nan -nan -nan -nan
247 2 0 0 -3.7 7.03291e+06 7.03291e+06 7.03291e+06 8.79697e-12 2.7615e-09 -1.42302e-09 -nan -nan -nan -nan -nan
248 2 1.85 1.85 -3.7 7.03291e+06 7.03291e+06 7.03291e+06 1.49593e-08 3.82877e-09 -0 -nan -nan -nan -nan -nan
249 2 1.85 0 -1.85 7.03291e+06 7.03291e+06 7.03291e+06 -7.66634e-09 7.11509e-09 -5.60754e-09 -nan -nan -nan -nan -nan
250 2 0 1.85 -1.85 7.03291e+06 7.03291e+06 7.03291e+06 -8.02209e-09 -6.14117e-09 8.89387e-09 -nan -nan -nan -nan -nan
251 2 3.7 0 -3.7 7.03291e+06 7.03291e+06 7.03291e+06 5.5142e-09 -4.44693e-09 2.13453e-09 -nan -nan -nan -nan -nan
252 2 5.55 1.85 -3.7 7.03291e+06 7.03291e+06 7.03292e+06 -8.45347e-11 -4.80062 6.22571e-09 -nan -nan -nan -nan -nan
253 2 5.55 0 -1.85 7.03291e+06 7.03292e+06 7.03291e+06 -4.80062 1.35187e-08 6.5603e-11 -nan -nan -nan -nan -nan
254 2 3.7 1.85 -1.85 7.03291e+06 7.03291e+06 7.03291e+06 -4.80269e-09 7.11509e-10 9.4275e-09 -nan -nan -nan -nan -nan
255 2 7.4 0 -3.7 6.42562e+06 -5.23691e+06 -5.23691e+06 6.28664e+06 6.28664e+06 -2.49028e-09 -nan -nan -nan -nan -nan
256 2 9.25 1.85 -3.7 -4.5799e+08 4.45333e+07 4.45333e+07 6.28664e+06 6.28664e+06 1.64536e-09 -nan -nan -nan -nan -nan
257 2 9.25 0 -1.85 -4.5799e+08 4.45333e+07 4.45333e+07 6.28664e+06 6.28664e+06 1.29406e-08 -nan -nan -nan -nan -nan
258 2 7.4 1.85 -1.85 6.42562e+06 -5.2369e+06 -5.2369e+06 6.28663e+06 6.28663e+06 8.00448e-09 -nan -nan -nan -nan -nan