ITEM: TIMESTEP
0
ITEM: NUMBER OF ATOMS
665
ITEM: BOX BOUNDS xy xz yz pp pp pp
-1.0000000000000000e+01 1.0000000000000000e+01 0.0000000000000000e+00
-1.0000000000000000e+01 1.0000000000000000e+01 0.0000000000000000e+00
-1.0000000000000000e+01 1.0000000000000000e+01 0.0000000000000000e+00
ITEM: ATOMS id type x y z c_1[1] c_1[2] c_1[3] c_1[4] c_1[5] c_1[6] c_1[7] c_1[8] c_1[13] c_1[15] c_1[22]
1 2 -7.4 -9.25 -9.25 3.66581e+06 -3.66682e+07 -3.66682e+07 38056.8 38056.8 471738 4.39037e+06 5153.89 3.02583e+08 -302641 -4.38109e+07
2 2 -3.7 -9.25 -9.25 3.72206e+06 -3.66055e+07 -3.66055e+07 -0.282097 -0.282097 457093 3.45606e+06 -422218 3.02302e+08 6.3431 -4.41833e+07
3 2 0 -9.25 -9.25 3.72208e+06 -3.66055e+07 -3.66055e+07 1.10634e-10 1.76363e-09 457093 3.45512e+06 -421819 3.02302e+08 6.09236e-09 -4.41833e+07
4 2 3.7 -9.25 -9.25 3.72206e+06 -3.66055e+07 -3.66055e+07 0.282097 0.282097 457093 3.45606e+06 -422218 3.02302e+08 -6.3431 -4.41833e+07
5 2 7.4 -9.25 -9.25 3.66581e+06 -3.66682e+07 -3.66682e+07 -38056.8 -38056.8 471738 4.38517e+06 5153.89 3.02583e+08 302641 -4.38216e+07
6 2 -9.25 -7.4 -9.25 -3.66682e+07 3.66581e+06 -3.66682e+07 38056.8 471738 38056.8 3.26477e+08 33829.2 4.4814e+06 -280759 310003
7 2 -5.55 -7.4 -9.25 5.22204e+06 5.28475e+06 -3.84619e+07 -48.4639 -15.7876 1297.72 7.43991e+06 -220053 7.76767e+06 -18.5354 4.7391e+06
8 2 -7.4 -5.55 -9.25 5.28475e+06 5.22204e+06 -3.84619e+07 -48.4639 1297.72 -15.7876 7.60525e+06 -209454 7.64238e+06 -18.6877 4.76234e+06
9 2 -1.85 -7.4 -9.25 5.22175e+06 5.28485e+06 -3.84618e+07 5.33632e-10 -1.00228e-09 1307.66 7.45661e+06 -230067 7.76762e+06 -7.11379e-10 4.73932e+06
10 2 -3.7 -5.55 -9.25 5.34143e+06 5.34176e+06 -3.84207e+07 4.30913e-13 -0.000623515 -6.01174 6.8451e+06 -982035 7.03913e+06 -3.60971e-17 4.1738e+06
11 2 1.85 -7.4 -9.25 5.22175e+06 5.28485e+06 -3.84618e+07 1.77877e-10 -1.55295e-09 1307.66 7.45661e+06 -230067 7.76762e+06 -2.8015e-09 4.73932e+06
12 2 0 -5.55 -9.25 5.34143e+06 5.34176e+06 -3.84207e+07 6.1131e-10 1.4424e-09 -6.01174 6.84508e+06 -982022 7.03913e+06 -1.78962e-08 4.1738e+06
13 2 5.55 -7.4 -9.25 5.22204e+06 5.28475e+06 -3.84619e+07 48.4639 15.7876 1297.72 7.43994e+06 -220053 7.76767e+06 18.5354 4.73913e+06
14 2 3.7 -5.55 -9.25 5.34143e+06 5.34176e+06 -3.84207e+07 -1.93988e-10 0.000623515 -6.01174 6.8451e+06 -982035 7.03913e+06 -8.40623e-11 4.1738e+06
15 2 9.25 -7.4 -9.25 -3.66682e+07 3.66581e+06 -3.66682e+07 -38056.8 -471738 38056.8 3.26467e+08 33829.2 4.4814e+06 280759 304801
16 2 7.4 -5.55 -9.25 5.28475e+06 5.22204e+06 -3.84619e+07 48.4639 -1297.72 -15.7876 7.60529e+06 -209454 7.64238e+06 18.6877 4.76237e+06
17 2 -9.25 -3.7 -9.25 -3.66055e+07 3.72206e+06 -3.66055e+07 -0.282097 457093 -0.282097 3.26178e+08 -350851 3.57353e+06 38.6044 -68.3703
18 2 -5.55 -3.7 -9.25 5.34176e+06 5.34143e+06 -3.84207e+07 -9.77366e-13 -6.01174 -0.000623515 6.82853e+06 -971997 7.05533e+06 -1.62316e-10 4.17342e+06
19 2 -7.4 -1.85 -9.25 5.28485e+06 5.22175e+06 -3.84618e+07 1.77877e-10 1307.66 -1.06972e-09 7.60521e+06 -209464 7.6587e+06 9.78325e-10 4.76198e+06
20 2 -1.85 -3.7 -9.25 5.34145e+06 5.34145e+06 -3.84207e+07 -4.10716e-15 -6.3354e-10 -0.000623515 6.84505e+06 -982036 7.05531e+06 3.53762e-10 4.17346e+06
21 2 -3.7 -1.85 -9.25 5.34145e+06 5.34145e+06 -3.84207e+07 6.30308e-20 -0.000623515 -5.98613e-10 6.84507e+06 -982050 7.05528e+06 -7.05335e-18 4.17346e+06
22 2 1.85 -3.7 -9.25 5.34145e+06 5.34145e+06 -3.84207e+07 1.54335e-18 -1.36971e-09 -0.000623515 6.84505e+06 -982036 7.05531e+06 1.77048e-10 4.17346e+06
23 2 0 -1.85 -9.25 5.34145e+06 5.34145e+06 -3.84207e+07 -6.15953e-10 1.44332e-09 -8.43189e-10 6.84505e+06 -982036 7.05528e+06 1.61211e-08 4.17346e+06
24 2 5.55 -3.7 -9.25 5.34176e+06 5.34143e+06 -3.84207e+07 -9.20063e-16 6.01174 -0.000623515 6.82853e+06 -971997 7.05533e+06 1.79452e-10 4.17342e+06
25 2 3.7 -1.85 -9.25 5.34145e+06 5.34145e+06 -3.84207e+07 1.77877e-10 0.000623515 -8.65607e-10 6.84507e+06 -982050 7.05528e+06 -4.89163e-10 4.17346e+06
26 2 9.25 -3.7 -9.25 -3.66055e+07 3.72206e+06 -3.66055e+07 0.282097 -457093 -0.282097 3.26178e+08 -350851 3.57353e+06 -38.6044 -68.3697
27 2 7.4 -1.85 -9.25 5.28485e+06 5.22175e+06 -3.84618e+07 -2.75994e-10 -1307.66 -5.70901e-10 7.60521e+06 -209464 7.6587e+06 1.73206e-08 4.76198e+06
28 2 -9.25 0 -9.25 -3.66055e+07 3.72208e+06 -3.66055e+07 -4.74658e-11 457093 1.58479e-09 3.26178e+08 -350856 3.57253e+06 1.39745e-08 -57.487
29 2 -5.55 0 -9.25 5.34176e+06 5.34143e+06 -3.84207e+07 4.09984e-10 -6.01174 1.55332e-09 6.82853e+06 -971997 7.05531e+06 -1.67019e-08 4.17342e+06
30 2 -7.4 1.85 -9.25 5.28485e+06 5.22175e+06 -3.84618e+07 -1.77877e-10 1307.66 -1.59209e-09 7.60521e+06 -209464 7.6587e+06 1.77877e-10 4.76198e+06
31 2 -1.85 0 -9.25 5.34145e+06 5.34145e+06 -3.84207e+07 -5.70712e-10 -9.22739e-10 1.46199e-09 6.84505e+06 -982036 7.05528e+06 1.76091e-08 4.17346e+06
32 2 -3.7 1.85 -9.25 5.34145e+06 5.34145e+06 -3.84207e+07 2.77648e-19 -0.000623515 -1.30996e-09 6.84507e+06 -982050 7.05528e+06 -4.44693e-11 4.17346e+06
33 2 1.85 0 -9.25 5.34145e+06 5.34145e+06 -3.84207e+07 -4.82667e-10 -1.11173e-09 1.0866e-09 6.84505e+06 -982036 7.05528e+06 2.65929e-08 4.17346e+06
34 2 0 1.85 -9.25 5.34145e+06 5.34145e+06 -3.84207e+07 -6.61614e-10 1.07526e-09 -1.10986e-09 6.84505e+06 -982036 7.05528e+06 2.69913e-08 4.17346e+06
35 2 5.55 0 -9.25 5.34176e+06 5.34143e+06 -3.84207e+07 -8.37456e-11 6.01174 1.55214e-09 6.82853e+06 -971997 7.05531e+06 -9.0717e-09 4.17342e+06
36 2 3.7 1.85 -9.25 5.34145e+06 5.34145e+06 -3.84207e+07 1.77877e-10 0.000623515 -1.37685e-09 6.84507e+06 -982050 7.05528e+06 4.44693e-11 4.17346e+06
37 2 9.25 0 -9.25 -3.66055e+07 3.72208e+06 -3.66055e+07 -6.29606e-10 -457093 1.04305e-09 3.26178e+08 -350856 3.57253e+06 9.91666e-09 -57.487
38 2 7.4 1.85 -9.25 5.28485e+06 5.22175e+06 -3.84618e+07 -7.34581e-10 -1307.66 -1.19328e-09 7.60521e+06 -209464 7.6587e+06 1.7606e-08 4.76198e+06
39 2 -9.25 3.7 -9.25 -3.66055e+07 3.72206e+06 -3.66055e+07 0.282097 457093 0.282097 3.26178e+08 -350851 3.57353e+06 -38.6044 -68.3697
40 2 -5.55 3.7 -9.25 5.34176e+06 5.34143e+06 -3.84207e+07 -1.95223e-10 -6.01174 0.000623515 6.82853e+06 -971997 7.05533e+06 -1.8827e-10 4.17342e+06
41 2 -7.4 5.55 -9.25 5.28475e+06 5.22204e+06 -3.84619e+07 48.4639 1297.72 15.7876 7.60529e+06 -209450 7.64238e+06 18.6877 4.76237e+06
42 2 -1.85 3.7 -9.25 5.34145e+06 5.34145e+06 -3.84207e+07 1.78723e-10 -8.56035e-10 0.000623515 6.84505e+06 -982036 7.05531e+06 -8.88654e-11 4.17346e+06
43 2 -3.7 5.55 -9.25 5.34143e+06 5.34176e+06 -3.84207e+07 1.77877e-10 -0.000623515 6.01174 6.8451e+06 -982035 7.03913e+06 4.45377e-19 4.1738e+06
44 2 1.85 3.7 -9.25 5.34145e+06 5.34145e+06 -3.84207e+07 -2.24328e-11 -1.3452e-09 0.000623515 6.84505e+06 -982036 7.05531e+06 -7.09817e-10 4.17346e+06
45 2 0 5.55 -9.25 5.34143e+06 5.34176e+06 -3.84207e+07 -8.10923e-11 1.56685e-09 6.01174 6.84508e+06 -982021 7.03913e+06 -8.73892e-09 4.1738e+06
46 2 5.55 3.7 -9.25 5.34176e+06 5.34143e+06 -3.84207e+07 -2.00447e-10 6.01174 0.000623515 6.82853e+06 -971997 7.05533e+06 1.74924e-10 4.17342e+06
47 2 3.7 5.55 -9.25 5.34143e+06 5.34176e+06 -3.84207e+07 -2.00112e-10 0.000623515 6.01174 6.8451e+06 -982035 7.03913e+06 4.447e-10 4.1738e+06
48 2 9.25 3.7 -9.25 -3.66055e+07 3.72206e+06 -3.66055e+07 -0.282097 -457093 0.282097 3.26178e+08 -350851 3.57353e+06 38.6044 -68.3703
49 2 7.4 5.55 -9.25 5.28475e+06 5.22204e+06 -3.84619e+07 -48.4639 -1297.72 15.7876 7.60525e+06 -209450 7.64238e+06 -18.6877 4.76234e+06
50 2 -9.25 7.4 -9.25 -3.66682e+07 3.66581e+06 -3.66682e+07 -38056.8 471738 -38056.8 3.26467e+08 35614.7 4.4814e+06 280759 304801
51 2 -5.55 7.4 -9.25 5.22204e+06 5.28475e+06 -3.84619e+07 48.4639 -15.7876 -1297.72 7.43994e+06 -216462 7.76767e+06 18.5354 4.73913e+06
52 2 -7.4 9.25 -9.25 3.66581e+06 -3.66682e+07 -3.66682e+07 -38056.8 38056.8 -471738 4.38517e+06 3295.91 3.02583e+08 302641 -4.38216e+07
53 2 -1.85 7.4 -9.25 5.22175e+06 5.28485e+06 -3.84618e+07 -7.81758e-11 -6.6704e-10 -1307.66 7.45661e+06 -226485 7.76762e+06 1.76099e-08 4.73932e+06
54 2 -3.7 9.25 -9.25 3.72206e+06 -3.66055e+07 -3.66055e+07 0.282097 -0.282097 -457093 3.45606e+06 -418636 3.02302e+08 -6.3431 -4.41833e+07
55 2 1.85 7.4 -9.25 5.22175e+06 5.28485e+06 -3.84618e+07 -1.13424e-09 -1.14509e-09 -1307.66 7.45661e+06 -226485 7.76762e+06 1.70762e-08 4.73932e+06
56 2 0 9.25 -9.25 3.72208e+06 -3.66055e+07 -3.66055e+07 -9.63037e-10 1.19898e-09 -457093 3.45512e+06 -418238 3.02302e+08 1.96021e-08 -4.41833e+07
57 2 5.55 7.4 -9.25 5.22204e+06 5.28475e+06 -3.84619e+07 -48.4639 15.7876 -1297.72 7.43991e+06 -216462 7.76767e+06 -18.5354 4.7391e+06
58 2 3.7 9.25 -9.25 3.72206e+06 -3.66055e+07 -3.66055e+07 -0.282097 0.282097 -457093 3.45606e+06 -418636 3.02302e+08 6.3431 -4.41833e+07
59 2 9.25 7.4 -9.25 -3.66682e+07 3.66581e+06 -3.66682e+07 38056.8 -471738 -38056.8 3.26477e+08 35614.7 4.4814e+06 -280759 310003
60 2 7.4 9.25 -9.25 3.66581e+06 -3.66682e+07 -3.66682e+07 38056.8 -38056.8 -471738 4.39037e+06 3295.91 3.02583e+08 -302641 -4.38109e+07
61 2 -9.25 -9.25 -7.4 -3.66682e+07 -3.66682e+07 3.66581e+06 471738 38056.8 38056.8 3.26453e+08 1.07683e+06 3.02583e+08 7.59562e+06 -4.84049e+07
62 2 -5.55 -9.25 -7.4 5.22204e+06 -3.84619e+07 5.28475e+06 -15.7876 -48.4639 1297.72 7.43992e+06 1.39189e+06 3.05343e+08 170.88 -4.8305e+07
63 2 -7.4 -9.25 -5.55 5.28475e+06 -3.84619e+07 5.22204e+06 1297.72 -48.4639 -15.7876 7.60774e+06 1.60142e+06 3.05343e+08 -43018.5 -4.81115e+07
64 2 -1.85 -9.25 -7.4 5.22175e+06 -3.84618e+07 5.28485e+06 -9.08328e-10 3.55755e-10 1307.66 7.45661e+06 1.3867e+06 3.05343e+08 8.88692e-09 -4.83052e+07
65 2 -3.7 -9.25 -5.55 5.34143e+06 -3.84207e+07 5.34176e+06 -0.000623515 6.1145e-15 -6.01174 6.8451e+06 1.35884e+06 3.05169e+08 0.0137283 -4.84431e+07
66 2 1.85 -9.25 -7.4 5.22175e+06 -3.84618e+07 5.28485e+06 -1.35864e-10 -3.3352e-10 1307.66 7.45661e+06 1.3867e+06 3.05343e+08 2.15912e-09 -4.83052e+07
67 2 0 -9.25 -5.55 5.34143e+06 -3.84207e+07 5.34176e+06 2.75754e-10 -6.13909e-10 -6.01174 6.84508e+06 1.35884e+06 3.05169e+08 -4.86528e-09 -4.84431e+07
68 2 5.55 -9.25 -7.4 5.22204e+06 -3.84619e+07 5.28475e+06 15.7876 48.4639 1297.72 7.43993e+06 1.39189e+06 3.05343e+08 -170.88 -4.8305e+07
69 2 3.7 -9.25 -5.55 5.34143e+06 -3.84207e+07 5.34176e+06 0.000623515 -3.55853e-10 -6.01174 6.8451e+06 1.35884e+06 3.05169e+08 -0.0137283 -4.84431e+07
70 2 9.25 -9.25 -7.4 -3.66682e+07 -3.66682e+07 3.66581e+06 -471738 -38056.8 38056.8 3.26491e+08 1.07683e+06 3.02583e+08 -7.59562e+06 -4.83664e+07
71 2 7.4 -9.25 -5.55 5.28475e+06 -3.84619e+07 5.22204e+06 -1297.72 48.4639 -15.7876 7.6028e+06 1.60142e+06 3.05343e+08 43018.5 -4.81274e+07
72 2 -9.25 -5.55 -7.4 -3.84619e+07 5.22204e+06 5.28475e+06 -15.7876 1297.72 -48.4639 3.31404e+08 1.39618e+06 7.64238e+06 308.759 -293403
73 2 -9.25 -7.4 -5.55 -3.84619e+07 5.28475e+06 5.22204e+06 1297.72 -15.7876 -48.4639 3.31412e+08 1.60126e+06 7.76767e+06 85186.8 -112512
74 2 -7.4 -7.4 -7.4 5.61659e+06 5.61659e+06 5.61659e+06 -13336.5 -13336.5 -13336.5 1.59533e+07 5.44736e+06 1.62341e+07 62285 1.04762e+07
75 2 -5.55 -5.55 -7.4 5.70055e+06 5.70055e+06 5.78185e+06 -4.44372e-06 -2.17055 -2.17055 1.49087e+07 4.55505e+06 1.52881e+07 1.66581e-05 9.85767e+06
76 2 -5.55 -7.4 -5.55 5.70055e+06 5.78185e+06 5.70055e+06 -2.17055 -4.44381e-06 -2.17055 1.49086e+07 4.96593e+06 1.54098e+07 -8.9587 1.02148e+07
77 2 -7.4 -5.55 -5.55 5.78185e+06 5.70055e+06 5.70055e+06 -2.17055 -2.17055 -4.44381e-06 1.51033e+07 4.97526e+06 1.52881e+07 -8.96135 1.02297e+07
78 2 -3.7 -7.4 -7.4 5.63112e+06 5.69923e+06 5.69923e+06 1.07902e-10 -8.8943e-11 -13340.3 1.52746e+07 4.96192e+06 1.58222e+07 2.13061e-13 1.01283e+07
79 2 -1.85 -5.55 -7.4 5.70041e+06 5.70055e+06 5.78186e+06 -6.47196e-12 -8.89387e-11 -2.17055 1.49177e+07 4.55105e+06 1.52881e+07 -1.468e-09 9.85767e+06
80 2 -1.85 -7.4 -5.55 5.70041e+06 5.78186e+06 5.70055e+06 8.89387e-11 -6.47196e-12 -2.17055 1.49177e+07 4.96193e+06 1.54098e+07 -1.24514e-09 1.02149e+07
81 2 -3.7 -5.55 -5.55 5.7697e+06 5.76984e+06 5.76984e+06 1.69584e-12 1.17102e-15 -4.44364e-06 1.45609e+07 4.55104e+06 1.49552e+07 1.39156e-15 9.95052e+06
82 2 0 -7.4 -7.4 5.63112e+06 5.69923e+06 5.69923e+06 -1.55787e-10 -8.57046e-11 -13340.3 1.52746e+07 4.96193e+06 1.58222e+07 1.23712e-09 1.01283e+07
83 2 1.85 -5.55 -7.4 5.70041e+06 5.70055e+06 5.78186e+06 -1.83223e-10 3.55755e-10 -2.17055 1.49177e+07 4.55105e+06 1.52881e+07 7.48111e-09 9.85767e+06
84 2 1.85 -7.4 -5.55 5.70041e+06 5.78186e+06 5.70055e+06 2.66816e-10 -3.611e-10 -2.17055 1.49177e+07 4.96193e+06 1.54098e+07 -1.77877e-09 1.02149e+07
85 2 0 -5.55 -5.55 5.7697e+06 5.76984e+06 5.76984e+06 4.51123e-10 4.47933e-10 -4.44391e-06 1.45609e+07 4.55104e+06 1.49552e+07 -6.94765e-09 9.95052e+06
86 2 3.7 -7.4 -7.4 5.63112e+06 5.69923e+06 5.69923e+06 -7.08043e-11 -8.89465e-11 -13340.3 1.52746e+07 4.96192e+06 1.58222e+07 3.84156e-13 1.01283e+07
87 2 5.55 -5.55 -7.4 5.70055e+06 5.70055e+06 5.78185e+06 4.44365e-06 2.17055 -2.17055 1.49087e+07 4.55505e+06 1.52881e+07 -1.66548e-05 9.85767e+06
88 2 5.55 -7.4 -5.55 5.70055e+06 5.78185e+06 5.70055e+06 2.17055 4.44374e-06 -2.17055 1.49087e+07 4.96593e+06 1.54098e+07 8.9587 1.02148e+07
89 2 3.7 -5.55 -5.55 5.7697e+06 5.76984e+06 5.76984e+06 9.60547e-11 1.77885e-10 -4.444e-06 1.45609e+07 4.55104e+06 1.49552e+07 -3.81361e-13 9.95052e+06
90 2 7.4 -7.4 -7.4 5.61659e+06 5.61659e+06 5.61659e+06 13336.5 13336.5 -13336.5 1.5951e+07 5.44736e+06 1.62341e+07 -62285 1.04739e+07
91 2 9.25 -5.55 -7.4 -3.84619e+07 5.22204e+06 5.28475e+06 15.7876 -1297.72 -48.4639 3.31404e+08 1.39618e+06 7.64238e+06 -308.759 -293392
92 2 9.25 -7.4 -5.55 -3.84619e+07 5.28475e+06 5.22204e+06 -1297.72 15.7876 -48.4639 3.31396e+08 1.60126e+06 7.76767e+06 -85186.8 -117462
93 2 7.4 -5.55 -5.55 5.78185e+06 5.70055e+06 5.70055e+06 2.17055 2.17055 -4.44373e-06 1.51033e+07 4.97526e+06 1.52881e+07 8.96135 1.02297e+07
94 2 -9.25 -1.85 -7.4 -3.84618e+07 5.22175e+06 5.28485e+06 -8.11978e-10 1307.66 2.00112e-10 3.31404e+08 1.39614e+06 7.6587e+06 4.00467e-09 -293856
95 2 -9.25 -3.7 -5.55 -3.84207e+07 5.34143e+06 5.34176e+06 -0.000623514 -6.01174 6.77397e-15 3.31221e+08 1.36814e+06 7.05533e+06 0.0843414 -330561
96 2 -7.4 -3.7 -7.4 5.69923e+06 5.63112e+06 5.69923e+06 1.08577e-10 -13340.3 -8.89387e-11 1.55279e+07 4.97526e+06 1.56296e+07 -3.5785e-09 1.01367e+07
97 2 -5.55 -1.85 -7.4 5.70055e+06 5.70041e+06 5.78186e+06 -9.43309e-11 -2.17055 -0 1.49086e+07 4.55505e+06 1.52968e+07 -1.66141e-09 9.85753e+06
98 2 -5.55 -3.7 -5.55 5.76984e+06 5.7697e+06 5.76984e+06 1.26377e-15 -4.44364e-06 8.89398e-11 1.45518e+07 4.55504e+06 1.49639e+07 1.79251e-10 9.95038e+06
99 2 -7.4 -1.85 -5.55 5.78186e+06 5.70041e+06 5.70055e+06 1.77877e-10 -2.17055 1.01442e-12 1.51033e+07 4.97527e+06 1.52968e+07 -7.11509e-10 1.02296e+07
100 2 -3.7 -3.7 -7.4 5.70042e+06 5.70042e+06 5.78186e+06 -2.18617e-12 5.14148e-18 -0 1.49177e+07 4.55105e+06 1.52968e+07 -1.4671e-15 9.85754e+06
101 2 -1.85 -1.85 -7.4 5.70042e+06 5.70042e+06 5.78186e+06 -1.75274e-10 -2.81354e-12 -8.89387e-11 1.49177e+07 4.55105e+06 1.52968e+07 2.01749e-09 9.85754e+06
102 2 -1.85 -3.7 -5.55 5.7697e+06 5.7697e+06 5.76984e+06 -1.20084e-15 1.78537e-10 -8.82775e-11 1.45609e+07 4.55103e+06 1.49639e+07 1.77198e-10 9.95039e+06
103 2 -3.7 -1.85 -5.55 5.7697e+06 5.7697e+06 5.76984e+06 -0 -8.70171e-11 1.78314e-10 1.45609e+07 4.55103e+06 1.49639e+07 -0 9.95039e+06
104 2 0 -3.7 -7.4 5.70042e+06 5.70042e+06 5.78186e+06 -1.76074e-10 -2.66927e-10 -0 1.49177e+07 4.55105e+06 1.52968e+07 6.16493e-12 9.85754e+06
105 2 1.85 -1.85 -7.4 5.70042e+06 5.70042e+06 5.78186e+06 1.83132e-10 3.54385e-10 -8.89387e-11 1.49177e+07 4.55105e+06 1.52968e+07 -6.9368e-09 9.85754e+06
106 2 1.85 -3.7 -5.55 5.7697e+06 5.7697e+06 5.76984e+06 8.89387e-11 -4.47248e-10 -4.76245e-12 1.45609e+07 4.55103e+06 1.49639e+07 1.16274e-21 9.95039e+06
107 2 0 -1.85 -5.55 5.7697e+06 5.7697e+06 5.76984e+06 -3.54162e-10 4.45314e-10 8.89387e-11 1.45609e+07 4.55103e+06 1.49639e+07 6.56052e-09 9.95039e+06
108 2 3.7 -3.7 -7.4 5.70042e+06 5.70042e+06 5.78186e+06 -4.93992e-13 1.77877e-10 -0 1.49177e+07 4.55105e+06 1.52968e+07 -1.46922e-15 9.85754e+06
109 2 5.55 -1.85 -7.4 5.70055e+06 5.70041e+06 5.78186e+06 2.55871e-10 2.17055 -8.89387e-11 1.49086e+07 4.55505e+06 1.52968e+07 -1.43001e-09 9.85753e+06
110 2 5.55 -3.7 -5.55 5.76984e+06 5.7697e+06 5.76984e+06 -8.8939e-11 4.44418e-06 4.56787e-14 1.45518e+07 4.55504e+06 1.49639e+07 -1.44796e-15 9.95038e+06
111 2 3.7 -1.85 -5.55 5.7697e+06 5.7697e+06 5.76984e+06 -8.87156e-11 1.20946e-12 8.89386e-11 1.45609e+07 4.55103e+06 1.49639e+07 -1.09444e-11 9.95039e+06
112 2 7.4 -3.7 -7.4 5.69923e+06 5.63112e+06 5.69923e+06 -1.77516e-11 13340.3 8.89387e-11 1.55279e+07 4.97526e+06 1.56296e+07 4.29015e-09 1.01367e+07
113 2 9.25 -1.85 -7.4 -3.84618e+07 5.22175e+06 5.28485e+06 1.18563e-09 -1307.66 1.6676e-10 3.31404e+08 1.39614e+06 7.6587e+06 -1.22794e-08 -293856
114 2 9.25 -3.7 -5.55 -3.84207e+07 5.34143e+06 5.34176e+06 0.000623515 6.01174 -8.89331e-11 3.31221e+08 1.36814e+06 7.05533e+06 -0.0843414 -330561
115 2 7.4 -1.85 -5.55 5.78186e+06 5.70041e+06 5.70055e+06 -2.65952e-10 2.17055 -1.77877e-10 1.51033e+07 4.97527e+06 1.52968e+07 7.98818e-09 1.02296e+07
116 2 -9.25 1.85 -7.4 -3.84618e+07 5.22175e+06 5.28485e+06 -5.20813e-11 1307.66 1.18994e-18 3.31404e+08 1.39614e+06 7.6587e+06 -1.5878e-08 -293856
117 2 -9.25 0 -5.55 -3.84207e+07 5.34143e+06 5.34176e+06 2.96991e-10 -6.01174 -5.68147e-10 3.31221e+08 1.36814e+06 7.05531e+06 1.00601e-08 -330560
118 2 -7.4 0 -7.4 5.69923e+06 5.63112e+06 5.69923e+06 2.04609e-11 -13340.3 -8.7445e-11 1.55279e+07 4.97526e+06 1.56296e+07 6.90558e-10 1.01367e+07
119 2 -5.55 1.85 -7.4 5.70055e+06 5.70041e+06 5.78186e+06 -1.82254e-10 -2.17055 3.55755e-10 1.49086e+07 4.55505e+06 1.52968e+07 6.78021e-09 9.85753e+06
120 2 -5.55 0 -5.55 5.76984e+06 5.7697e+06 5.76984e+06 2.69251e-10 -4.44391e-06 4.46193e-10 1.45518e+07 4.55504e+06 1.49639e+07 -6.55674e-09 9.95038e+06
121 2 -7.4 1.85 -5.55 5.78186e+06 5.70041e+06 5.70055e+06 8.89387e-11 -2.17055 -3.55654e-10 1.51033e+07 4.97527e+06 1.52968e+07 -1.77877e-09 1.02296e+07
122 2 -3.7 0 -7.4 5.70042e+06 5.70042e+06 5.78186e+06 1.73727e-12 -0 -1.7614e-10 1.49177e+07 4.55105e+06 1.52968e+07 -1.05676e-18 9.85754e+06
123 2 -1.85 1.85 -7.4 5.70042e+06 5.70042e+06 5.78186e+06 1.81115e-10 1.77617e-10 8.89387e-11 1.49177e+07 4.55105e+06 1.52968e+07 -6.9476e-09 9.85754e+06
124 2 -1.85 0 -5.55 5.7697e+06 5.7697e+06 5.76984e+06 -3.5306e-10 8.89387e-11 1.796e-10 1.45609e+07 4.55103e+06 1.49639e+07 6.76073e-09 9.95039e+06
125 2 -3.7 1.85 -5.55 5.7697e+06 5.7697e+06 5.76984e+06 -1.77877e-10 -1.04783e-12 -5.38619e-10 1.45609e+07 4.55103e+06 1.49639e+07 1.77877e-10 9.95039e+06
126 2 0 0 -7.4 5.70042e+06 5.70042e+06 5.78186e+06 -1.74646e-10 -1.76258e-10 -1.77877e-10 1.49177e+07 4.55105e+06 1.52968e+07 -8.94516e-10 9.85754e+06
127 2 1.85 1.85 -7.4 5.70042e+06 5.70042e+06 5.78186e+06 4.78577e-13 2.66679e-10 2.66816e-10 1.49177e+07 4.55105e+06 1.52968e+07 -9.00073e-10 9.85754e+06
128 2 1.85 0 -5.55 5.7697e+06 5.7697e+06 5.76984e+06 -1.76759e-10 -2.66816e-10 3.54317e-10 1.45609e+07 4.55103e+06 1.49639e+07 3.56447e-10 9.95039e+06
129 2 0 1.85 -5.55 5.7697e+06 5.7697e+06 5.76984e+06 -1.77741e-10 3.5492e-10 -2.66816e-10 1.45609e+07 4.55103e+06 1.49639e+07 1.07899e-09 9.95039e+06
130 2 3.7 0 -7.4 5.70042e+06 5.70042e+06 5.78186e+06 2.5358e-12 1.17193e-17 6.56855e-16 1.49177e+07 4.55105e+06 1.52968e+07 -7.11509e-10 9.85754e+06
131 2 5.55 1.85 -7.4 5.70055e+06 5.70041e+06 5.78186e+06 -8.98917e-11 2.17055 2.66816e-10 1.49086e+07 4.55505e+06 1.52968e+07 -1.07835e-09 9.85753e+06
132 2 5.55 0 -5.55 5.76984e+06 5.7697e+06 5.76984e+06 -5.88038e-13 4.44391e-06 1.81953e-10 1.45518e+07 4.55504e+06 1.49639e+07 1.95595e-09 9.95038e+06
133 2 3.7 1.85 -5.55 5.7697e+06 5.7697e+06 5.76984e+06 1.77766e-10 -2.65495e-10 -4.44693e-10 1.45609e+07 4.55103e+06 1.49639e+07 3.61226e-10 9.95039e+06
134 2 7.4 0 -7.4 5.69923e+06 5.63112e+06 5.69923e+06 2.39719e-10 13340.3 -2.66815e-10 1.55279e+07 4.97526e+06 1.56296e+07 -3.19227e-09 1.01367e+07
135 2 9.25 1.85 -7.4 -3.84618e+07 5.22175e+06 5.28485e+06 1.82679e-11 -1307.66 2.22347e-11 3.31404e+08 1.39614e+06 7.6587e+06 1.61875e-08 -293856
136 2 9.25 0 -5.55 -3.84207e+07 5.34143e+06 5.34176e+06 -3.12865e-10 6.01174 -4.44695e-10 3.31221e+08 1.36814e+06 7.05531e+06 -1.08027e-08 -330560
137 2 7.4 1.85 -5.55 5.78186e+06 5.70041e+06 5.70055e+06 -2.70243e-10 2.17055 -6.22571e-10 1.51033e+07 4.97527e+06 1.52968e+07 3.56228e-09 1.02296e+07
138 2 -9.25 5.55 -7.4 -3.84619e+07 5.22204e+06 5.28475e+06 15.7876 1297.72 48.4639 3.31404e+08 1.39618e+06 7.64238e+06 -308.759 -293392
139 2 -9.25 3.7 -5.55 -3.84207e+07 5.34143e+06 5.34176e+06 0.000623515 -6.01174 -2.22294e-10 3.31221e+08 1.36814e+06 7.05533e+06 -0.0843414 -330561
140 2 -7.4 3.7 -7.4 5.69923e+06 5.63112e+06 5.69923e+06 -9.85789e-11 -13340.3 -2.3088e-13 1.55279e+07 4.97526e+06 1.56296e+07 3.12938e-09 1.01367e+07
141 2 -5.55 5.55 -7.4 5.70055e+06 5.70055e+06 5.78185e+06 4.44374e-06 -2.17055 2.17055 1.49087e+07 4.55505e+06 1.52881e+07 -1.66545e-05 9.85767e+06
142 2 -5.55 3.7 -5.55 5.76984e+06 5.7697e+06 5.76984e+06 -8.19336e-11 -4.444e-06 1.77885e-10 1.45518e+07 4.55504e+06 1.49639e+07 2.01982e-10 9.95038e+06
143 2 -7.4 5.55 -5.55 5.78185e+06 5.70055e+06 5.70055e+06 2.17055 -2.17055 4.44373e-06 1.51033e+07 4.97526e+06 1.52881e+07 8.96135 1.02297e+07
144 2 -3.7 3.7 -7.4 5.70042e+06 5.70042e+06 5.78186e+06 -7.58025e-15 -0 -7.80195e-15 1.49177e+07 4.55105e+06 1.52968e+07 1.88129e-21 9.85754e+06
145 2 -1.85 5.55 -7.4 5.70041e+06 5.70055e+06 5.78186e+06 1.71127e-10 8.51935e-11 2.17055 1.49177e+07 4.55105e+06 1.52881e+07 -1.60197e-09 9.85767e+06
146 2 -1.85 3.7 -5.55 5.7697e+06 5.7697e+06 5.76984e+06 -1.76893e-10 8.89387e-11 9.24926e-11 1.45609e+07 4.55103e+06 1.49639e+07 6.94833e-13 9.95039e+06
147 2 -3.7 5.55 -5.55 5.7697e+06 5.76984e+06 5.76984e+06 -8.89387e-11 1.77276e-10 4.44391e-06 1.45609e+07 4.55104e+06 1.49552e+07 -0 9.95052e+06
148 2 0 3.7 -7.4 5.70042e+06 5.70042e+06 5.78186e+06 2.04851e-12 2.1686e-12 1.77877e-10 1.49177e+07 4.55105e+06 1.52968e+07 -1.82892e-10 9.85754e+06
149 2 1.85 5.55 -7.4 5.70041e+06 5.70055e+06 5.78186e+06 -1.19085e-12 2.64431e-10 2.17055 1.49177e+07 4.55105e+06 1.52881e+07 -8.78689e-10 9.85767e+06
150 2 1.85 3.7 -5.55 5.7697e+06 5.7697e+06 5.76984e+06 -7.45545e-13 -4.44693e-10 -8.82509e-11 1.45609e+07 4.55103e+06 1.49639e+07 -6.91937e-13 9.95039e+06
151 2 0 5.55 -5.55 5.7697e+06 5.76984e+06 5.76984e+06 3.70164e-12 1.8543e-10 4.44391e-06 1.45609e+07 4.55104e+06 1.49552e+07 1.40186e-09 9.95052e+06
152 2 3.7 3.7 -7.4 5.70042e+06 5.70042e+06 5.78186e+06 -8.97709e-11 8.89387e-11 -3.5158e-17 1.49177e+07 4.55105e+06 1.52968e+07 -1.77877e-10 9.85754e+06
153 2 5.55 5.55 -7.4 5.70055e+06 5.70055e+06 5.78185e+06 -4.44382e-06 2.17055 2.17055 1.49087e+07 4.55505e+06 1.52881e+07 1.66573e-05 9.85767e+06
154 2 5.55 3.7 -5.55 5.76984e+06 5.7697e+06 5.76984e+06 2.66783e-10 4.44391e-06 4.10985e-12 1.45518e+07 4.55504e+06 1.49639e+07 2.89594e-15 9.95038e+06
155 2 3.7 5.55 -5.55 5.7697e+06 5.76984e+06 5.76984e+06 1.11528e-13 -2.51872e-12 4.44382e-06 1.45609e+07 4.55104e+06 1.49552e+07 -1.8335e-10 9.95052e+06
156 2 7.4 3.7 -7.4 5.69923e+06 5.63112e+06 5.69923e+06 -1.6976e-10 13340.3 1.77877e-10 1.55279e+07 4.97526e+06 1.56296e+07 -2.25086e-09 1.01367e+07
157 2 9.25 5.55 -7.4 -3.84619e+07 5.22204e+06 5.28475e+06 -15.7876 -1297.72 48.4639 3.31404e+08 1.39618e+06 7.64238e+06 308.759 -293403
158 2 9.25 3.7 -5.55 -3.84207e+07 5.34143e+06 5.34176e+06 -0.000623515 6.01174 4.22459e-10 3.31221e+08 1.36814e+06 7.05533e+06 0.0843414 -330561
159 2 7.4 5.55 -5.55 5.78185e+06 5.70055e+06 5.70055e+06 -2.17055 2.17055 4.44391e-06 1.51033e+07 4.97526e+06 1.52881e+07 -8.96135 1.02297e+07
160 2 -9.25 9.25 -7.4 -3.66682e+07 -3.66682e+07 3.66581e+06 -471738 38056.8 -38056.8 3.26491e+08 1.07683e+06 3.02583e+08 -7.59562e+06 -4.83664e+07
161 2 -9.25 7.4 -5.55 -3.84619e+07 5.28475e+06 5.22204e+06 -1297.72 -15.7876 48.4639 3.31396e+08 1.60126e+06 7.76767e+06 -85186.8 -117462
162 2 -7.4 7.4 -7.4 5.61659e+06 5.61659e+06 5.61659e+06 13336.5 -13336.5 13336.5 1.5951e+07 5.44736e+06 1.62341e+07 -62285 1.04739e+07
163 2 -5.55 9.25 -7.4 5.22204e+06 -3.84619e+07 5.28475e+06 15.7876 -48.4639 -1297.72 7.43993e+06 1.39189e+06 3.05343e+08 -170.88 -4.8305e+07
164 2 -5.55 7.4 -5.55 5.70055e+06 5.78185e+06 5.70055e+06 2.17055 -4.44373e-06 2.17055 1.49087e+07 4.96593e+06 1.54098e+07 8.9587 1.02148e+07
165 2 -7.4 9.25 -5.55 5.28475e+06 -3.84619e+07 5.22204e+06 -1297.72 -48.4639 15.7876 7.6028e+06 1.60142e+06 3.05343e+08 43018.5 -4.81274e+07
166 2 -3.7 7.4 -7.4 5.63112e+06 5.69923e+06 5.69923e+06 -1.84054e-11 -0 13340.3 1.52746e+07 4.96193e+06 1.58222e+07 3.52148e-10 1.01283e+07
167 2 -1.85 9.25 -7.4 5.22175e+06 -3.84618e+07 5.28485e+06 1.20067e-09 -1.11173e-11 -1307.66 7.45661e+06 1.3867e+06 3.05343e+08 -1.70762e-08 -4.83052e+07
168 2 -1.85 7.4 -5.55 5.70041e+06 5.78186e+06 5.70055e+06 -5.34125e-10 8.89386e-11 2.17055 1.49177e+07 4.96193e+06 1.54098e+07 8.89387e-09 1.02149e+07
169 2 -3.7 9.25 -5.55 5.34143e+06 -3.84207e+07 5.34176e+06 0.000623515 -5.33931e-16 6.01174 6.8451e+06 1.35884e+06 3.05169e+08 -0.0137283 -4.84431e+07
170 2 0 7.4 -7.4 5.63112e+06 5.69923e+06 5.69923e+06 1.51864e-10 -9.71473e-11 13340.3 1.52746e+07 4.96193e+06 1.58222e+07 -3.19628e-09 1.01283e+07
171 2 1.85 9.25 -7.4 5.22175e+06 -3.84618e+07 5.28485e+06 1.11173e-11 -2.22347e-11 -1307.66 7.45661e+06 1.3867e+06 3.05343e+08 -1.77877e-09 -4.83052e+07
172 2 1.85 7.4 -5.55 5.70041e+06 5.78186e+06 5.70055e+06 -5.11319e-12 -4.44693e-10 2.17055 1.49177e+07 4.96193e+06 1.54098e+07 3.73542e-09 1.02149e+07
173 2 0 9.25 -5.55 5.34143e+06 -3.84207e+07 5.34176e+06 -2.7952e-10 -1.77877e-10 6.01174 6.84508e+06 1.35884e+06 3.05169e+08 6.99487e-09 -4.84431e+07
174 2 3.7 7.4 -7.4 5.63112e+06 5.69923e+06 5.69923e+06 6.04201e-12 6.05073e-14 13340.3 1.52746e+07 4.96193e+06 1.58222e+07 -3.58706e-10 1.01283e+07
175 2 5.55 9.25 -7.4 5.22204e+06 -3.84619e+07 5.28475e+06 -15.7876 48.4639 -1297.72 7.43992e+06 1.39189e+06 3.05343e+08 170.88 -4.8305e+07
176 2 5.55 7.4 -5.55 5.70055e+06 5.78185e+06 5.70055e+06 -2.17055 4.44373e-06 2.17055 1.49086e+07 4.96593e+06 1.54098e+07 -8.9587 1.02148e+07
177 2 3.7 9.25 -5.55 5.34143e+06 -3.84207e+07 5.34176e+06 -0.000623515 -4.44693e-11 6.01174 6.8451e+06 1.35884e+06 3.05169e+08 0.0137283 -4.84431e+07
178 2 7.4 7.4 -7.4 5.61659e+06 5.61659e+06 5.61659e+06 -13336.5 13336.5 13336.5 1.59533e+07 5.44736e+06 1.62341e+07 62285 1.04762e+07
179 2 9.25 9.25 -7.4 -3.66682e+07 -3.66682e+07 3.66581e+06 471738 -38056.8 -38056.8 3.26453e+08 1.07683e+06 3.02583e+08 7.59562e+06 -4.84049e+07
180 2 9.25 7.4 -5.55 -3.84619e+07 5.28475e+06 5.22204e+06 1297.72 15.7876 48.4639 3.31412e+08 1.60126e+06 7.76767e+06 85186.8 -112512
181 2 7.4 9.25 -5.55 5.28475e+06 -3.84619e+07 5.22204e+06 1297.72 48.4639 15.7876 7.60774e+06 1.60142e+06 3.05343e+08 -43018.5 -4.81115e+07
182 2 -9.25 -9.25 -3.7 -3.66055e+07 -3.66055e+07 3.72206e+06 457093 -0.282097 -0.282097 3.26158e+08 1.04469e+06 3.02302e+08 7.81697e+06 -4.85179e+07
183 2 -5.55 -9.25 -3.7 5.34176e+06 -3.84207e+07 5.34143e+06 -6.01174 2.11826e-11 -0.000623515 6.82853e+06 1.36402e+06 3.05169e+08 34.6656 -4.84431e+07
184 2 -7.4 -9.25 -1.85 5.28485e+06 -3.84618e+07 5.22175e+06 1307.66 -1.55643e-10 -8.89387e-10 7.60768e+06 1.60139e+06 3.05343e+08 -43155.1 -4.81117e+07
185 2 -1.85 -9.25 -3.7 5.34145e+06 -3.84207e+07 5.34145e+06 -6.1902e-10 2.22306e-11 -0.000623515 6.84505e+06 1.35884e+06 3.05169e+08 1.28377e-08 -4.84431e+07
186 2 -3.7 -9.25 -1.85 5.34145e+06 -3.84207e+07 5.34145e+06 -0.000623515 -8.16069e-18 -7.55979e-10 6.84507e+06 1.35883e+06 3.05169e+08 0.0137283 -4.84431e+07
187 2 1.85 -9.25 -3.7 5.34145e+06 -3.84207e+07 5.34145e+06 -6.41664e-10 8.89388e-11 -0.000623515 6.84505e+06 1.35884e+06 3.05169e+08 1.06971e-08 -4.84431e+07
188 2 0 -9.25 -1.85 5.34145e+06 -3.84207e+07 5.34145e+06 1.58202e-10 4.51381e-10 -1.20067e-09 6.84505e+06 1.35884e+06 3.05169e+08 -4.88001e-09 -4.84431e+07
189 2 5.55 -9.25 -3.7 5.34176e+06 -3.84207e+07 5.34143e+06 6.01174 -4.2246e-10 -0.000623515 6.82853e+06 1.36402e+06 3.05169e+08 -34.6656 -4.84431e+07
190 2 3.7 -9.25 -1.85 5.34145e+06 -3.84207e+07 5.34145e+06 0.000623515 1.55642e-10 -7.55979e-10 6.84507e+06 1.35883e+06 3.05169e+08 -0.0137283 -4.84431e+07
191 2 9.25 -9.25 -3.7 -3.66055e+07 -3.66055e+07 3.72206e+06 -457093 0.282097 -0.282097 3.26198e+08 1.04469e+06 3.02302e+08 -7.81697e+06 -4.84776e+07
192 2 7.4 -9.25 -1.85 5.28485e+06 -3.84618e+07 5.22175e+06 -1307.66 -6.46195e-11 -1.06726e-09 7.60273e+06 1.60139e+06 3.05343e+08 43155.1 -4.81276e+07
193 2 -9.25 -5.55 -3.7 -3.84207e+07 5.34176e+06 5.34143e+06 -6.01174 -0.000623515 2.22389e-11 3.31221e+08 1.36815e+06 7.03913e+06 105.181 -330228
194 2 -9.25 -7.4 -1.85 -3.84618e+07 5.28485e+06 5.22175e+06 1307.66 -1.04503e-09 4.44693e-11 3.31412e+08 1.60124e+06 7.76762e+06 84980.4 -112636
195 2 -7.4 -7.4 -3.7 5.69923e+06 5.69923e+06 5.63112e+06 -13340.3 -1.58909e-10 -8.89387e-11 1.55291e+07 5.44757e+06 1.58222e+07 62562.6 1.0563e+07
196 2 -5.55 -5.55 -3.7 5.76984e+06 5.76984e+06 5.7697e+06 -4.44363e-06 1.26377e-15 1.06202e-15 1.45518e+07 4.55504e+06 1.49552e+07 1.66586e-05 9.95052e+06
197 2 -5.55 -7.4 -1.85 5.70055e+06 5.78186e+06 5.70041e+06 -2.17055 -8.55263e-11 -8.89387e-11 1.49086e+07 4.96593e+06 1.54098e+07 -8.9587 1.02148e+07
198 2 -7.4 -5.55 -1.85 5.78186e+06 5.70055e+06 5.70041e+06 -2.17055 -0 1.80157e-10 1.51033e+07 4.97526e+06 1.52881e+07 -8.96135 1.02297e+07
199 2 -3.7 -7.4 -3.7 5.70042e+06 5.78186e+06 5.70042e+06 -1.11453e-13 1.77878e-10 1.17202e-17 1.49177e+07 4.96193e+06 1.54098e+07 -3.55755e-10 1.02149e+07
200 2 -1.85 -5.55 -3.7 5.7697e+06 5.76984e+06 5.7697e+06 8.37839e-11 -1.20084e-15 8.62113e-11 1.45609e+07 4.55104e+06 1.49552e+07 -2.17951e-09 9.95053e+06
201 2 -1.85 -7.4 -1.85 5.70042e+06 5.78186e+06 5.70042e+06 -6.02208e-12 -1.80691e-10 -8.89387e-11 1.49177e+07 4.96193e+06 1.54098e+07 -1.23378e-09 1.02149e+07
202 2 -3.7 -5.55 -1.85 5.7697e+06 5.76984e+06 5.7697e+06 8.48776e-11 -0 1.74198e-10 1.45609e+07 4.55104e+06 1.49552e+07 -5.28432e-10 9.95053e+06