ITEM: TIMESTEP
0
ITEM: NUMBER OF ATOMS
2
ITEM: BOX BOUNDS xy xz yz pp pp pp
0.0000000000000000e+00 5.0000000000000000e+01 0.0000000000000000e+00
0.0000000000000000e+00 5.0000000000000000e+01 0.0000000000000000e+00
0.0000000000000000e+00 5.0000000000000000e+01 0.0000000000000000e+00
ITEM: ATOMS id type x y z c_1[1] c_1[2] c_1[3] c_1[4] c_1[5] c_1[6] c_1[7] c_1[22]
1 2 0.378614 0.321535 0 -1.99547e+08 -1.43915e+08 -0 -1.69463e+08 -0 -0 1.04896e+08 7.56518e+07
2 2 0 0 0 -1.99547e+08 -1.43915e+08 -0 -1.69463e+08 -0 -0 1.04896e+08 7.56518e+07
ITEM: TIMESTEP
1
ITEM: NUMBER OF ATOMS
2
ITEM: BOX BOUNDS xy xz yz pp pp pp
0.0000000000000000e+00 5.0500000000000000e+01 5.0000000000000000e-01
0.0000000000000000e+00 5.0000000000000000e+01 0.0000000000000000e+00
0.0000000000000000e+00 5.0000000000000000e+01 0.0000000000000000e+00
ITEM: ATOMS id type x y z c_1[1] c_1[2] c_1[3] c_1[4] c_1[5] c_1[6] c_1[7] c_1[22]
1 2 0.381829 0.321535 0 -1.99547e+08 -1.43915e+08 -0 -1.69463e+08 -0 -0 1.04896e+08 7.56518e+07
2 2 0 0 0 -1.99547e+08 -1.43915e+08 -0 -1.69463e+08 -0 -0 1.04896e+08 7.56518e+07
ITEM: TIMESTEP
2
ITEM: NUMBER OF ATOMS
2
ITEM: BOX BOUNDS xy xz yz pp pp pp
0.0000000000000000e+00 5.1000000000000000e+01 1.0000000000000000e+00
0.0000000000000000e+00 5.0000000000000000e+01 0.0000000000000000e+00
0.0000000000000000e+00 5.0000000000000000e+01 0.0000000000000000e+00
ITEM: ATOMS id type x y z c_1[1] c_1[2] c_1[3] c_1[4] c_1[5] c_1[6] c_1[7] c_1[22]
1 2 0.385045 0.321535 0 -2.00449e+08 -1.42142e+08 -0 -1.68796e+08 -0 -0 -8.06533e+08 -5.71925e+08
2 2 0 0 0 -2.00449e+08 -1.42142e+08 -0 -1.68796e+08 -0 -0 -8.06533e+08 -5.71925e+08
ITEM: TIMESTEP
3
ITEM: NUMBER OF ATOMS
2
ITEM: BOX BOUNDS xy xz yz pp pp pp
0.0000000000000000e+00 5.1500000000000000e+01 1.5000000000000000e+00
0.0000000000000000e+00 5.0000000000000000e+01 0.0000000000000000e+00
0.0000000000000000e+00 5.0000000000000000e+01 0.0000000000000000e+00
ITEM: ATOMS id type x y z c_1[1] c_1[2] c_1[3] c_1[4] c_1[5] c_1[6] c_1[7] c_1[22]
1 2 0.38826 0.321535 0 -2.01323e+08 -1.40387e+08 -0 -1.68116e+08 -0 -0 -8.04452e+08 -5.60962e+08
2 2 0 0 0 -2.01323e+08 -1.40387e+08 -0 -1.68116e+08 -0 -0 -8.04452e+08 -5.60962e+08
ITEM: TIMESTEP
4
ITEM: NUMBER OF ATOMS
2
ITEM: BOX BOUNDS xy xz yz pp pp pp
0.0000000000000000e+00 5.2000000000000000e+01 2.0000000000000000e+00
0.0000000000000000e+00 5.0000000000000000e+01 0.0000000000000000e+00
0.0000000000000000e+00 5.0000000000000000e+01 0.0000000000000000e+00
ITEM: ATOMS id type x y z c_1[1] c_1[2] c_1[3] c_1[4] c_1[5] c_1[6] c_1[7] c_1[22]
1 2 0.391475 0.321535 0 -2.02168e+08 -1.38651e+08 -0 -1.67424e+08 -0 -0 -2.12139e+12 -1.45489e+12
2 2 0 0 0 -2.02168e+08 -1.38651e+08 -0 -1.67424e+08 -0 -0 -2.12139e+12 -1.45489e+12
ITEM: TIMESTEP
5
ITEM: NUMBER OF ATOMS
2
ITEM: BOX BOUNDS xy xz yz pp pp pp
0.0000000000000000e+00 5.2500000000000000e+01 2.5000000000000000e+00
0.0000000000000000e+00 5.0000000000000000e+01 0.0000000000000000e+00
0.0000000000000000e+00 5.0000000000000000e+01 0.0000000000000000e+00
ITEM: ATOMS id type x y z c_1[1] c_1[2] c_1[3] c_1[4] c_1[5] c_1[6] c_1[7] c_1[22]
1 2 0.394691 0.321535 0 -2.02985e+08 -1.36934e+08 -0 -1.6672e+08 -0 -0 -2.0624e+12 -1.39129e+12
2 2 0 0 0 -2.02985e+08 -1.36934e+08 -0 -1.6672e+08 -0 -0 -2.0624e+12 -1.39129e+12
ITEM: TIMESTEP
6
ITEM: NUMBER OF ATOMS
2
ITEM: BOX BOUNDS xy xz yz pp pp pp
0.0000000000000000e+00 5.3000000000000000e+01 3.0000000000000000e+00
0.0000000000000000e+00 5.0000000000000000e+01 0.0000000000000000e+00
0.0000000000000000e+00 5.0000000000000000e+01 0.0000000000000000e+00
ITEM: ATOMS id type x y z c_1[1] c_1[2] c_1[3] c_1[4] c_1[5] c_1[6] c_1[7] c_1[22]
1 2 0.397906 0.321535 0 -2.03774e+08 -1.35235e+08 -0 -1.66004e+08 -0 -0 -4.63174e+15 -3.07387e+15
2 2 0 0 0 -2.03774e+08 -1.35235e+08 -0 -1.66004e+08 -0 -0 -4.63174e+15 -3.07387e+15
ITEM: TIMESTEP
7
ITEM: NUMBER OF ATOMS
2
ITEM: BOX BOUNDS xy xz yz pp pp pp
0.0000000000000000e+00 5.3500000000000000e+01 3.5000000000000000e+00
0.0000000000000000e+00 5.0000000000000000e+01 0.0000000000000000e+00
0.0000000000000000e+00 5.0000000000000000e+01 0.0000000000000000e+00
ITEM: ATOMS id type x y z c_1[1] c_1[2] c_1[3] c_1[4] c_1[5] c_1[6] c_1[7] c_1[22]
1 2 0.401121 0.321535 0 -2.04534e+08 -1.33555e+08 -0 -1.65277e+08 -0 -0 -4.37089e+15 -2.85407e+15
2 2 0 0 0 -2.04534e+08 -1.33555e+08 -0 -1.65277e+08 -0 -0 -4.37089e+15 -2.85407e+15
ITEM: TIMESTEP
8
ITEM: NUMBER OF ATOMS
2
ITEM: BOX BOUNDS xy xz yz pp pp pp
0.0000000000000000e+00 5.4000000000000000e+01 4.0000000000000000e+00
0.0000000000000000e+00 5.0000000000000000e+01 0.0000000000000000e+00
0.0000000000000000e+00 5.0000000000000000e+01 0.0000000000000000e+00
ITEM: ATOMS id type x y z c_1[1] c_1[2] c_1[3] c_1[4] c_1[5] c_1[6] c_1[7] c_1[22]
1 2 0.404337 0.321535 0 -2.05267e+08 -1.31894e+08 -0 -1.6454e+08 -0 -0 -9.52826e+18 -6.12234e+18
2 2 0 0 0 -2.05267e+08 -1.31894e+08 -0 -1.6454e+08 -0 -0 -9.52826e+18 -6.12234e+18
ITEM: TIMESTEP
9
ITEM: NUMBER OF ATOMS
2
ITEM: BOX BOUNDS xy xz yz pp pp pp
0.0000000000000000e+00 5.4500000000000000e+01 4.5000000000000000e+00
0.0000000000000000e+00 5.0000000000000000e+01 0.0000000000000000e+00
0.0000000000000000e+00 5.0000000000000000e+01 0.0000000000000000e+00
ITEM: ATOMS id type x y z c_1[1] c_1[2] c_1[3] c_1[4] c_1[5] c_1[6] c_1[7] c_1[22]
1 2 0.407552 0.321535 0 -2.05973e+08 -1.3025e+08 -0 -1.63793e+08 -0 -0 -8.72894e+18 -5.51989e+18
2 2 0 0 0 -2.05973e+08 -1.3025e+08 -0 -1.63793e+08 -0 -0 -8.72894e+18 -5.51989e+18
ITEM: TIMESTEP
10
ITEM: NUMBER OF ATOMS
2
ITEM: BOX BOUNDS xy xz yz pp pp pp
0.0000000000000000e+00 5.5000000000000000e+01 5.0000000000000000e+00
0.0000000000000000e+00 5.0000000000000000e+01 0.0000000000000000e+00
0.0000000000000000e+00 5.0000000000000000e+01 0.0000000000000000e+00
ITEM: ATOMS id type x y z c_1[1] c_1[2] c_1[3] c_1[4] c_1[5] c_1[6] c_1[7] c_1[22]
1 2 0.410767 0.321535 0 -2.06651e+08 -1.28626e+08 -0 -1.63036e+08 -0 -0 -1.84736e+22 -1.14985e+22
2 2 0 0 0 -2.06651e+08 -1.28626e+08 -0 -1.63036e+08 -0 -0 -1.84736e+22 -1.14985e+22
ITEM: TIMESTEP
11
ITEM: NUMBER OF ATOMS
2
ITEM: BOX BOUNDS xy xz yz pp pp pp
0.0000000000000000e+00 5.5500000000000000e+01 5.5000000000000000e+00
0.0000000000000000e+00 5.0000000000000000e+01 0.0000000000000000e+00
0.0000000000000000e+00 5.0000000000000000e+01 0.0000000000000000e+00
ITEM: ATOMS id type x y z c_1[1] c_1[2] c_1[3] c_1[4] c_1[5] c_1[6] c_1[7] c_1[22]
1 2 0.413983 0.321535 0 -2.07302e+08 -1.27019e+08 -0 -1.62269e+08 -0 -0 -1.64314e+22 -1.00679e+22
2 2 0 0 0 -2.07302e+08 -1.27019e+08 -0 -1.62269e+08 -0 -0 -1.64314e+22 -1.00679e+22
ITEM: TIMESTEP
12
ITEM: NUMBER OF ATOMS
2
ITEM: BOX BOUNDS xy xz yz pp pp pp
0.0000000000000000e+00 5.6000000000000000e+01 6.0000000000000000e+00
0.0000000000000000e+00 5.0000000000000000e+01 0.0000000000000000e+00
0.0000000000000000e+00 5.0000000000000000e+01 0.0000000000000000e+00
ITEM: ATOMS id type x y z c_1[1] c_1[2] c_1[3] c_1[4] c_1[5] c_1[6] c_1[7] c_1[22]
1 2 0.417198 0.321535 0 -2.07927e+08 -1.2543e+08 -0 -1.61494e+08 -0 -0 -3.37648e+25 -2.03683e+25
2 2 0 0 0 -2.07927e+08 -1.2543e+08 -0 -1.61494e+08 -0 -0 -3.37648e+25 -2.03683e+25
ITEM: TIMESTEP
13
ITEM: NUMBER OF ATOMS
2
ITEM: BOX BOUNDS xy xz yz pp pp pp
0.0000000000000000e+00 5.6500000000000000e+01 6.5000000000000000e+00
0.0000000000000000e+00 5.0000000000000000e+01 0.0000000000000000e+00
0.0000000000000000e+00 5.0000000000000000e+01 0.0000000000000000e+00
ITEM: ATOMS id type x y z c_1[1] c_1[2] c_1[3] c_1[4] c_1[5] c_1[6] c_1[7] c_1[22]
1 2 0.420414 0.321535 0 -2.08525e+08 -1.23859e+08 -0 -1.6071e+08 -0 -0 -2.91616e+25 -1.73214e+25
2 2 0 0 0 -2.08525e+08 -1.23859e+08 -0 -1.6071e+08 -0 -0 -2.91616e+25 -1.73214e+25
ITEM: TIMESTEP
14
ITEM: NUMBER OF ATOMS
2
ITEM: BOX BOUNDS xy xz yz pp pp pp
0.0000000000000000e+00 5.7000000000000000e+01 7.0000000000000000e+00
0.0000000000000000e+00 5.0000000000000000e+01 0.0000000000000000e+00
0.0000000000000000e+00 5.0000000000000000e+01 0.0000000000000000e+00
ITEM: ATOMS id type x y z c_1[1] c_1[2] c_1[3] c_1[4] c_1[5] c_1[6] c_1[7] c_1[22]
1 2 0.423629 0.321535 0 -2.09096e+08 -1.22306e+08 -0 -1.59918e+08 -0 -0 -5.81908e+28 -3.40374e+28
2 2 0 0 0 -2.09096e+08 -1.22306e+08 -0 -1.59918e+08 -0 -0 -5.81908e+28 -3.40374e+28
ITEM: TIMESTEP
15
ITEM: NUMBER OF ATOMS
2
ITEM: BOX BOUNDS xy xz yz pp pp pp
0.0000000000000000e+00 5.7500000000000000e+01 7.5000000000000000e+00
0.0000000000000000e+00 5.0000000000000000e+01 0.0000000000000000e+00
0.0000000000000000e+00 5.0000000000000000e+01 0.0000000000000000e+00
ITEM: ATOMS id type x y z c_1[1] c_1[2] c_1[3] c_1[4] c_1[5] c_1[6] c_1[7] c_1[22]
1 2 0.426844 0.321535 0 -2.09642e+08 -1.20771e+08 -0 -1.59118e+08 -0 -0 -4.8807e+28 -2.81169e+28
2 2 0 0 0 -2.09642e+08 -1.20771e+08 -0 -1.59118e+08 -0 -0 -4.8807e+28 -2.81169e+28
ITEM: TIMESTEP
16
ITEM: NUMBER OF ATOMS
2
ITEM: BOX BOUNDS xy xz yz pp pp pp
0.0000000000000000e+00 5.8000000000000000e+01 8.0000000000000000e+00
0.0000000000000000e+00 5.0000000000000000e+01 0.0000000000000000e+00
0.0000000000000000e+00 5.0000000000000000e+01 0.0000000000000000e+00
ITEM: ATOMS id type x y z c_1[1] c_1[2] c_1[3] c_1[4] c_1[5] c_1[6] c_1[7] c_1[22]
1 2 0.43006 0.321535 0 -2.10161e+08 -1.19253e+08 -0 -1.58311e+08 -0 -0 -9.45877e+31 -5.36724e+31
2 2 0 0 0 -2.10161e+08 -1.19253e+08 -0 -1.58311e+08 -0 -0 -9.45877e+31 -5.36724e+31
ITEM: TIMESTEP
17
ITEM: NUMBER OF ATOMS
2
ITEM: BOX BOUNDS xy xz yz pp pp pp
0.0000000000000000e+00 5.8500000000000000e+01 8.5000000000000000e+00
0.0000000000000000e+00 5.0000000000000000e+01 0.0000000000000000e+00
0.0000000000000000e+00 5.0000000000000000e+01 0.0000000000000000e+00
ITEM: ATOMS id type x y z c_1[1] c_1[2] c_1[3] c_1[4] c_1[5] c_1[6] c_1[7] c_1[22]
1 2 0.433275 0.321535 0 -2.10655e+08 -1.17753e+08 -0 -1.57497e+08 -0 -0 -7.70547e+31 -4.30723e+31
2 2 0 0 0 -2.10655e+08 -1.17753e+08 -0 -1.57497e+08 -0 -0 -7.70547e+31 -4.30723e+31
ITEM: TIMESTEP
18
ITEM: NUMBER OF ATOMS
2
ITEM: BOX BOUNDS xy xz yz pp pp pp
0.0000000000000000e+00 5.9000000000000000e+01 9.0000000000000000e+00
0.0000000000000000e+00 5.0000000000000000e+01 0.0000000000000000e+00
0.0000000000000000e+00 5.0000000000000000e+01 0.0000000000000000e+00
ITEM: ATOMS id type x y z c_1[1] c_1[2] c_1[3] c_1[4] c_1[5] c_1[6] c_1[7] c_1[22]
1 2 0.43649 0.321535 0 -2.11124e+08 -1.1627e+08 -0 -1.56676e+08 -0 -0 -1.4505e+35 -7.98813e+34
2 2 0 0 0 -2.11124e+08 -1.1627e+08 -0 -1.56676e+08 -0 -0 -1.4505e+35 -7.98813e+34
ITEM: TIMESTEP
19
ITEM: NUMBER OF ATOMS
2
ITEM: BOX BOUNDS xy xz yz pp pp pp
0.0000000000000000e+00 5.9500000000000000e+01 9.5000000000000000e+00
0.0000000000000000e+00 5.0000000000000000e+01 0.0000000000000000e+00
0.0000000000000000e+00 5.0000000000000000e+01 0.0000000000000000e+00
ITEM: ATOMS id type x y z c_1[1] c_1[2] c_1[3] c_1[4] c_1[5] c_1[6] c_1[7] c_1[22]
1 2 0.439706 0.321535 0 -2.11568e+08 -1.14804e+08 -0 -1.55849e+08 -0 -0 -1.14783e+35 -6.22848e+34
2 2 0 0 0 -2.11568e+08 -1.14804e+08 -0 -1.55849e+08 -0 -0 -1.14783e+35 -6.22848e+34
ITEM: TIMESTEP
20
ITEM: NUMBER OF ATOMS
2
ITEM: BOX BOUNDS xy xz yz pp pp pp
0.0000000000000000e+00 6.0000000000000000e+01 1.0000000000000000e+01
0.0000000000000000e+00 5.0000000000000000e+01 0.0000000000000000e+00
0.0000000000000000e+00 5.0000000000000000e+01 0.0000000000000000e+00
ITEM: ATOMS id type x y z c_1[1] c_1[2] c_1[3] c_1[4] c_1[5] c_1[6] c_1[7] c_1[22]
1 2 0.442921 0.321535 0 -2.11987e+08 -1.13355e+08 -0 -1.55016e+08 -0 -0 -2.09902e+38 -1.1224e+38
2 2 0 0 0 -2.11987e+08 -1.13355e+08 -0 -1.55016e+08 -0 -0 -2.09902e+38 -1.1224e+38
ITEM: TIMESTEP
21
ITEM: NUMBER OF ATOMS
2
ITEM: BOX BOUNDS xy xz yz pp pp pp
0.0000000000000000e+00 6.0500000000000000e+01 1.0500000000000000e+01
0.0000000000000000e+00 5.0000000000000000e+01 0.0000000000000000e+00
0.0000000000000000e+00 5.0000000000000000e+01 0.0000000000000000e+00
ITEM: ATOMS id type x y z c_1[1] c_1[2] c_1[3] c_1[4] c_1[5] c_1[6] c_1[7] c_1[22]
1 2 0.446136 0.321535 0 -2.12382e+08 -1.11923e+08 -0 -1.54177e+08 -0 -0 -1.61372e+38 -8.50417e+37
2 2 0 0 0 -2.12382e+08 -1.11923e+08 -0 -1.54177e+08 -0 -0 -1.61372e+38 -8.50417e+37
ITEM: TIMESTEP
22
ITEM: NUMBER OF ATOMS
2
ITEM: BOX BOUNDS xy xz yz pp pp pp
0.0000000000000000e+00 6.1000000000000000e+01 1.1000000000000000e+01
0.0000000000000000e+00 5.0000000000000000e+01 0.0000000000000000e+00
0.0000000000000000e+00 5.0000000000000000e+01 0.0000000000000000e+00
ITEM: ATOMS id type x y z c_1[1] c_1[2] c_1[3] c_1[4] c_1[5] c_1[6] c_1[7] c_1[22]
1 2 0.449352 0.321535 0 -2.12752e+08 -1.10508e+08 -0 -1.53333e+08 -0 -0 -2.86717e+41 -1.48927e+41
2 2 0 0 0 -2.12752e+08 -1.10508e+08 -0 -1.53333e+08 -0 -0 -2.86717e+41 -1.48927e+41
ITEM: TIMESTEP
23
ITEM: NUMBER OF ATOMS
2
ITEM: BOX BOUNDS xy xz yz pp pp pp
0.0000000000000000e+00 6.1500000000000000e+01 1.1500000000000000e+01
0.0000000000000000e+00 5.0000000000000000e+01 0.0000000000000000e+00
0.0000000000000000e+00 5.0000000000000000e+01 0.0000000000000000e+00
ITEM: ATOMS id type x y z c_1[1] c_1[2] c_1[3] c_1[4] c_1[5] c_1[6] c_1[7] c_1[22]
1 2 0.452567 0.321535 0 -2.13099e+08 -1.0911e+08 -0 -1.52484e+08 -0 -0 -2.1418e+41 -1.09663e+41
2 2 0 0 0 -2.13099e+08 -1.0911e+08 -0 -1.52484e+08 -0 -0 -2.1418e+41 -1.09663e+41
ITEM: TIMESTEP
24
ITEM: NUMBER OF ATOMS
2
ITEM: BOX BOUNDS xy xz yz pp pp pp
0.0000000000000000e+00 6.2000000000000000e+01 1.2000000000000000e+01
0.0000000000000000e+00 5.0000000000000000e+01 0.0000000000000000e+00
0.0000000000000000e+00 5.0000000000000000e+01 0.0000000000000000e+00
ITEM: ATOMS id type x y z c_1[1] c_1[2] c_1[3] c_1[4] c_1[5] c_1[6] c_1[7] c_1[22]
1 2 0.455782 0.321535 0 -2.13422e+08 -1.07728e+08 -0 -1.5163e+08 -0 -0 -3.69782e+44 -1.86653e+44
2 2 0 0 0 -2.13422e+08 -1.07728e+08 -0 -1.5163e+08 -0 -0 -3.69782e+44 -1.86653e+44
ITEM: TIMESTEP
25
ITEM: NUMBER OF ATOMS
2
ITEM: BOX BOUNDS xy xz yz pp pp pp
0.0000000000000000e+00 6.2500000000000000e+01 1.2500000000000000e+01
0.0000000000000000e+00 5.0000000000000000e+01 0.0000000000000000e+00
0.0000000000000000e+00 5.0000000000000000e+01 0.0000000000000000e+00
ITEM: ATOMS id type x y z c_1[1] c_1[2] c_1[3] c_1[4] c_1[5] c_1[6] c_1[7] c_1[22]
1 2 0.458998 0.321535 0 -2.13721e+08 -1.06363e+08 -0 -1.50771e+08 -0 -0 -2.68439e+44 -1.33594e+44
2 2 0 0 0 -2.13721e+08 -1.06363e+08 -0 -1.50771e+08 -0 -0 -2.68439e+44 -1.33594e+44
ITEM: TIMESTEP
26
ITEM: NUMBER OF ATOMS
2
ITEM: BOX BOUNDS xy xz yz pp pp pp
0.0000000000000000e+00 6.3000000000000000e+01 1.3000000000000000e+01
0.0000000000000000e+00 5.0000000000000000e+01 0.0000000000000000e+00
0.0000000000000000e+00 5.0000000000000000e+01 0.0000000000000000e+00
ITEM: ATOMS id type x y z c_1[1] c_1[2] c_1[3] c_1[4] c_1[5] c_1[6] c_1[7] c_1[22]
1 2 0.462213 0.321535 0 -2.13998e+08 -1.05013e+08 -0 -1.49909e+08 -0 -0 -4.5042e+47 -2.2103e+47
2 2 0 0 0 -2.13998e+08 -1.05013e+08 -0 -1.49909e+08 -0 -0 -4.5042e+47 -2.2103e+47
ITEM: TIMESTEP
27
ITEM: NUMBER OF ATOMS
2
ITEM: BOX BOUNDS xy xz yz pp pp pp
0.0000000000000000e+00 6.3500000000000000e+01 1.3500000000000000e+01
0.0000000000000000e+00 5.0000000000000000e+01 0.0000000000000000e+00
0.0000000000000000e+00 5.0000000000000000e+01 0.0000000000000000e+00
ITEM: ATOMS id type x y z c_1[1] c_1[2] c_1[3] c_1[4] c_1[5] c_1[6] c_1[7] c_1[22]
1 2 0.465428 0.321535 0 -2.14251e+08 -1.0368e+08 -0 -1.49042e+08 -0 -0 -3.17799e+47 -1.53789e+47
2 2 0 0 0 -2.14251e+08 -1.0368e+08 -0 -1.49042e+08 -0 -0 -3.17799e+47 -1.53789e+47
ITEM: TIMESTEP
28
ITEM: NUMBER OF ATOMS
2
ITEM: BOX BOUNDS xy xz yz pp pp pp
0.0000000000000000e+00 6.4000000000000000e+01 1.4000000000000000e+01
0.0000000000000000e+00 5.0000000000000000e+01 0.0000000000000000e+00
0.0000000000000000e+00 5.0000000000000000e+01 0.0000000000000000e+00
ITEM: ATOMS id type x y z c_1[1] c_1[2] c_1[3] c_1[4] c_1[5] c_1[6] c_1[7] c_1[22]
1 2 0.468644 0.321535 0 -2.14482e+08 -1.02363e+08 -0 -1.48172e+08 -0 -0 -5.18314e+50 -2.47368e+50
2 2 0 0 0 -2.14482e+08 -1.02363e+08 -0 -1.48172e+08 -0 -0 -5.18314e+50 -2.47368e+50
ITEM: TIMESTEP
29
ITEM: NUMBER OF ATOMS
2
ITEM: BOX BOUNDS xy xz yz pp pp pp
0.0000000000000000e+00 6.4500000000000000e+01 1.4500000000000000e+01
0.0000000000000000e+00 5.0000000000000000e+01 0.0000000000000000e+00
0.0000000000000000e+00 5.0000000000000000e+01 0.0000000000000000e+00
ITEM: ATOMS id type x y z c_1[1] c_1[2] c_1[3] c_1[4] c_1[5] c_1[6] c_1[7] c_1[22]
1 2 0.471859 0.321535 0 -2.14691e+08 -1.01061e+08 -0 -1.47299e+08 -0 -0 -3.5549e+50 -1.67339e+50
2 2 0 0 0 -2.14691e+08 -1.01061e+08 -0 -1.47299e+08 -0 -0 -3.5549e+50 -1.67339e+50
ITEM: TIMESTEP
30
ITEM: NUMBER OF ATOMS
2
ITEM: BOX BOUNDS xy xz yz pp pp pp
0.0000000000000000e+00 6.5000000000000000e+01 1.5000000000000000e+01
0.0000000000000000e+00 5.0000000000000000e+01 0.0000000000000000e+00
0.0000000000000000e+00 5.0000000000000000e+01 0.0000000000000000e+00
ITEM: ATOMS id type x y z c_1[1] c_1[2] c_1[3] c_1[4] c_1[5] c_1[6] c_1[7] c_1[22]
1 2 0.475074 0.321535 0 -2.14878e+08 -9.97753e+07 -0 -1.46422e+08 -0 -0 -5.63634e+53 -2.61715e+53
2 2 0 0 0 -2.14878e+08 -9.97753e+07 -0 -1.46422e+08 -0 -0 -5.63634e+53 -2.61715e+53
ITEM: TIMESTEP
31
ITEM: NUMBER OF ATOMS
2
ITEM: BOX BOUNDS xy xz yz pp pp pp
0.0000000000000000e+00 6.5500000000000000e+01 1.5500000000000000e+01
0.0000000000000000e+00 5.0000000000000000e+01 0.0000000000000000e+00
0.0000000000000000e+00 5.0000000000000000e+01 0.0000000000000000e+00
ITEM: ATOMS id type x y z c_1[1] c_1[2] c_1[3] c_1[4] c_1[5] c_1[6] c_1[7] c_1[22]
1 2 0.47829 0.321535 0 -2.15043e+08 -9.8505e+07 -0 -1.45543e+08 -0 -0 -3.75832e+53 -1.72158e+53
2 2 0 0 0 -2.15043e+08 -9.8505e+07 -0 -1.45543e+08 -0 -0 -3.75832e+53 -1.72158e+53
ITEM: TIMESTEP
32
ITEM: NUMBER OF ATOMS
2
ITEM: BOX BOUNDS xy xz yz pp pp pp
0.0000000000000000e+00 6.6000000000000000e+01 1.6000000000000000e+01
0.0000000000000000e+00 5.0000000000000000e+01 0.0000000000000000e+00
0.0000000000000000e+00 5.0000000000000000e+01 0.0000000000000000e+00
ITEM: ATOMS id type x y z c_1[1] c_1[2] c_1[3] c_1[4] c_1[5] c_1[6] c_1[7] c_1[22]
1 2 0.481505 0.321535 0 -2.15187e+08 -9.725e+07 -0 -1.44661e+08 -0 -0 -5.79374e+56 -2.61838e+56
2 2 0 0 0 -2.15187e+08 -9.725e+07 -0 -1.44661e+08 -0 -0 -5.79374e+56 -2.61838e+56
ITEM: TIMESTEP
33
ITEM: NUMBER OF ATOMS
2
ITEM: BOX BOUNDS xy xz yz pp pp pp
0.0000000000000000e+00 6.6500000000000000e+01 1.6500000000000000e+01
0.0000000000000000e+00 5.0000000000000000e+01 0.0000000000000000e+00
0.0000000000000000e+00 5.0000000000000000e+01 0.0000000000000000e+00
ITEM: ATOMS id type x y z c_1[1] c_1[2] c_1[3] c_1[4] c_1[5] c_1[6] c_1[7] c_1[22]
1 2 0.48472 0.321535 0 -2.1531e+08 -9.60102e+07 -0 -1.43777e+08 -0 -0 -3.75649e+56 -1.67508e+56
2 2 0 0 0 -2.1531e+08 -9.60102e+07 -0 -1.43777e+08 -0 -0 -3.75649e+56 -1.67508e+56
ITEM: TIMESTEP
34
ITEM: NUMBER OF ATOMS
2
ITEM: BOX BOUNDS xy xz yz pp pp pp
0.0000000000000000e+00 6.7000000000000000e+01 1.7000000000000000e+01
0.0000000000000000e+00 5.0000000000000000e+01 0.0000000000000000e+00
0.0000000000000000e+00 5.0000000000000000e+01 0.0000000000000000e+00
ITEM: ATOMS id type x y z c_1[1] c_1[2] c_1[3] c_1[4] c_1[5] c_1[6] c_1[7] c_1[22]
1 2 0.487936 0.321535 0 -2.15412e+08 -9.47855e+07 -0 -1.42891e+08 -0 -0 -5.63127e+59 -2.47787e+59
2 2 0 0 0 -2.15412e+08 -9.47855e+07 -0 -1.42891e+08 -0 -0 -5.63127e+59 -2.47787e+59
ITEM: TIMESTEP
35
ITEM: NUMBER OF ATOMS
2
ITEM: BOX BOUNDS xy xz yz pp pp pp
0.0000000000000000e+00 6.7500000000000000e+01 1.7500000000000000e+01
0.0000000000000000e+00 5.0000000000000000e+01 0.0000000000000000e+00
0.0000000000000000e+00 5.0000000000000000e+01 0.0000000000000000e+00
ITEM: ATOMS id type x y z c_1[1] c_1[2] c_1[3] c_1[4] c_1[5] c_1[6] c_1[7] c_1[22]
1 2 0.491151 0.321535 0 -2.15493e+08 -9.35757e+07 -0 -1.42003e+08 -0 -0 -3.55076e+59 -1.54188e+59
2 2 0 0 0 -2.15493e+08 -9.35757e+07 -0 -1.42003e+08 -0 -0 -3.55076e+59 -1.54188e+59
ITEM: TIMESTEP
36
ITEM: NUMBER OF ATOMS
2
ITEM: BOX BOUNDS xy xz yz pp pp pp
0.0000000000000000e+00 6.8000000000000000e+01 1.8000000000000000e+01
0.0000000000000000e+00 5.0000000000000000e+01 0.0000000000000000e+00
0.0000000000000000e+00 5.0000000000000000e+01 0.0000000000000000e+00
ITEM: ATOMS id type x y z c_1[1] c_1[2] c_1[3] c_1[4] c_1[5] c_1[6] c_1[7] c_1[22]
1 2 0.494366 0.321535 0 -2.15554e+08 -9.23806e+07 -0 -1.41113e+08 -0 -0 -5.17689e+62 -2.21868e+62
2 2 0 0 0 -2.15554e+08 -9.23806e+07 -0 -1.41113e+08 -0 -0 -5.17689e+62 -2.21868e+62
ITEM: TIMESTEP
37
ITEM: NUMBER OF ATOMS
2
ITEM: BOX BOUNDS xy xz yz pp pp pp
0.0000000000000000e+00 6.8500000000000000e+01 1.8500000000000000e+01
0.0000000000000000e+00 5.0000000000000000e+01 0.0000000000000000e+00
0.0000000000000000e+00 5.0000000000000000e+01 0.0000000000000000e+00
ITEM: ATOMS id type x y z c_1[1] c_1[2] c_1[3] c_1[4] c_1[5] c_1[6] c_1[7] c_1[22]
1 2 0.497582 0.321535 0 -2.15595e+08 -9.12002e+07 -0 -1.40222e+08 -0 -0 -3.17498e+62 -1.34307e+62
2 2 0 0 0 -2.15595e+08 -9.12002e+07 -0 -1.40222e+08 -0 -0 -3.17498e+62 -1.34307e+62
ITEM: TIMESTEP
38
ITEM: NUMBER OF ATOMS
2
ITEM: BOX BOUNDS xy xz yz pp pp pp
0.0000000000000000e+00 6.9000000000000000e+01 1.9000000000000000e+01
0.0000000000000000e+00 5.0000000000000000e+01 0.0000000000000000e+00
0.0000000000000000e+00 5.0000000000000000e+01 0.0000000000000000e+00
ITEM: ATOMS id type x y z c_1[1] c_1[2] c_1[3] c_1[4] c_1[5] c_1[6] c_1[7] c_1[22]
1 2 0.500797 0.321535 0 -2.15616e+08 -9.00342e+07 -0 -1.3933e+08 -0 -0 -4.50276e+65 -1.8802e+65
2 2 0 0 0 -2.15616e+08 -9.00342e+07 -0 -1.3933e+08 -0 -0 -4.50276e+65 -1.8802e+65
ITEM: TIMESTEP
39
ITEM: NUMBER OF ATOMS
2
ITEM: BOX BOUNDS xy xz yz pp pp pp
0.0000000000000000e+00 6.9500000000000000e+01 1.9500000000000000e+01
0.0000000000000000e+00 5.0000000000000000e+01 0.0000000000000000e+00
0.0000000000000000e+00 5.0000000000000000e+01 0.0000000000000000e+00
ITEM: ATOMS id type x y z c_1[1] c_1[2] c_1[3] c_1[4] c_1[5] c_1[6] c_1[7] c_1[22]
1 2 0.504013 0.321535 0 -2.15618e+08 -8.88826e+07 -0 -1.38437e+08 -0 -0 -2.68641e+65 -1.1074e+65
2 2 0 0 0 -2.15618e+08 -8.88826e+07 -0 -1.38437e+08 -0 -0 -2.68641e+65 -1.1074e+65
ITEM: TIMESTEP
40
ITEM: NUMBER OF ATOMS
2
ITEM: BOX BOUNDS xy xz yz pp pp pp
0.0000000000000000e+00 7.0000000000000000e+01 2.0000000000000000e+01
0.0000000000000000e+00 5.0000000000000000e+01 0.0000000000000000e+00
0.0000000000000000e+00 5.0000000000000000e+01 0.0000000000000000e+00
ITEM: ATOMS id type x y z c_1[1] c_1[2] c_1[3] c_1[4] c_1[5] c_1[6] c_1[7] c_1[22]
1 2 0.507228 0.321535 0 -2.15601e+08 -8.77451e+07 -0 -1.37542e+08 -0 -0 -3.70652e+68 -1.50848e+68
2 2 0 0 0 -2.15601e+08 -8.77451e+07 -0 -1.37542e+08 -0 -0 -3.70652e+68 -1.50848e+68
ITEM: TIMESTEP
41
ITEM: NUMBER OF ATOMS
2
ITEM: BOX BOUNDS xy xz yz pp pp pp
0.0000000000000000e+00 7.0500000000000000e+01 2.0500000000000000e+01
0.0000000000000000e+00 5.0000000000000000e+01 0.0000000000000000e+00
0.0000000000000000e+00 5.0000000000000000e+01 0.0000000000000000e+00
ITEM: ATOMS id type x y z c_1[1] c_1[2] c_1[3] c_1[4] c_1[5] c_1[6] c_1[7] c_1[22]
1 2 0.510443 0.321535 0 -2.15565e+08 -8.66217e+07 -0 -1.36648e+08 -0 -0 -2.15154e+68 -8.64567e+67
2 2 0 0 0 -2.15565e+08 -8.66217e+07 -0 -1.36648e+08 -0 -0 -2.15154e+68 -8.64567e+67
ITEM: TIMESTEP
42
ITEM: NUMBER OF ATOMS
2
ITEM: BOX BOUNDS xy xz yz pp pp pp
0.0000000000000000e+00 7.1000000000000000e+01 2.1000000000000000e+01
0.0000000000000000e+00 5.0000000000000000e+01 0.0000000000000000e+00
0.0000000000000000e+00 5.0000000000000000e+01 0.0000000000000000e+00
ITEM: ATOMS id type x y z c_1[1] c_1[2] c_1[3] c_1[4] c_1[5] c_1[6] c_1[7] c_1[22]
1 2 0.513659 0.321535 0 -2.1551e+08 -8.55122e+07 -0 -1.35752e+08 -0 -0 -2.88845e+71 -1.14611e+71
2 2 0 0 0 -2.1551e+08 -8.55122e+07 -0 -1.35752e+08 -0 -0 -2.88845e+71 -1.14611e+71
ITEM: TIMESTEP
43
ITEM: NUMBER OF ATOMS
2
ITEM: BOX BOUNDS xy xz yz pp pp pp
0.0000000000000000e+00 7.1500000000000000e+01 2.1500000000000000e+01
0.0000000000000000e+00 5.0000000000000000e+01 0.0000000000000000e+00
0.0000000000000000e+00 5.0000000000000000e+01 0.0000000000000000e+00
ITEM: ATOMS id type x y z c_1[1] c_1[2] c_1[3] c_1[4] c_1[5] c_1[6] c_1[7] c_1[22]
1 2 0.516874 0.321535 0 -2.15437e+08 -8.44163e+07 -0 -1.34857e+08 -0 -0 -1.63156e+71 -6.39308e+70
2 2 0 0 0 -2.15437e+08 -8.44163e+07 -0 -1.34857e+08 -0 -0 -1.63156e+71 -6.39308e+70
ITEM: TIMESTEP
44
ITEM: NUMBER OF ATOMS
2
ITEM: BOX BOUNDS xy xz yz pp pp pp
0.0000000000000000e+00 7.2000000000000000e+01 2.2000000000000000e+01
0.0000000000000000e+00 5.0000000000000000e+01 0.0000000000000000e+00
0.0000000000000000e+00 5.0000000000000000e+01 0.0000000000000000e+00
ITEM: ATOMS id type x y z c_1[1] c_1[2] c_1[3] c_1[4] c_1[5] c_1[6] c_1[7] c_1[22]
1 2 0.520089 0.321535 0 -2.15346e+08 -8.33341e+07 -0 -1.33961e+08 -0 -0 -2.13161e+74 -8.24886e+73
2 2 0 0 0 -2.15346e+08 -8.33341e+07 -0 -1.33961e+08 -0 -0 -2.13161e+74 -8.24886e+73
ITEM: TIMESTEP
45
ITEM: NUMBER OF ATOMS
2
ITEM: BOX BOUNDS xy xz yz pp pp pp
0.0000000000000000e+00 7.2500000000000000e+01 2.2500000000000000e+01
0.0000000000000000e+00 5.0000000000000000e+01 0.0000000000000000e+00
0.0000000000000000e+00 5.0000000000000000e+01 0.0000000000000000e+00
ITEM: ATOMS id type x y z c_1[1] c_1[2] c_1[3] c_1[4] c_1[5] c_1[6] c_1[7] c_1[22]
1 2 0.523305 0.321535 0 -2.15237e+08 -8.22653e+07 -0 -1.33066e+08 -0 -0 -1.17184e+74 -4.47887e+73
2 2 0 0 0 -2.15237e+08 -8.22653e+07 -0 -1.33066e+08 -0 -0 -1.17184e+74 -4.47887e+73
ITEM: TIMESTEP
46
ITEM: NUMBER OF ATOMS
2
ITEM: BOX BOUNDS xy xz yz pp pp pp
0.0000000000000000e+00 7.3000000000000000e+01 2.3000000000000000e+01
0.0000000000000000e+00 5.0000000000000000e+01 0.0000000000000000e+00
0.0000000000000000e+00 5.0000000000000000e+01 0.0000000000000000e+00
ITEM: ATOMS id type x y z c_1[1] c_1[2] c_1[3] c_1[4] c_1[5] c_1[6] c_1[7] c_1[22]
1 2 0.52652 0.321535 0 -2.15111e+08 -8.12098e+07 -0 -1.32171e+08 -0 -0 -1.49014e+77 -5.62567e+76
2 2 0 0 0 -2.15111e+08 -8.12098e+07 -0 -1.32171e+08 -0 -0 -1.49014e+77 -5.62567e+76
ITEM: TIMESTEP
47
ITEM: NUMBER OF ATOMS
2
ITEM: BOX BOUNDS xy xz yz pp pp pp
0.0000000000000000e+00 7.3500000000000000e+01 2.3500000000000000e+01
0.0000000000000000e+00 5.0000000000000000e+01 0.0000000000000000e+00
0.0000000000000000e+00 5.0000000000000000e+01 0.0000000000000000e+00
ITEM: ATOMS id type x y z c_1[1] c_1[2] c_1[3] c_1[4] c_1[5] c_1[6] c_1[7] c_1[22]
1 2 0.529735 0.321535 0 -2.14967e+08 -8.01675e+07 -0 -1.31276e+08 -0 -0 -7.97403e+76 -2.97374e+76
2 2 0 0 0 -2.14967e+08 -8.01675e+07 -0 -1.31276e+08 -0 -0 -7.97403e+76 -2.97374e+76
ITEM: TIMESTEP
48
ITEM: NUMBER OF ATOMS
2
ITEM: BOX BOUNDS xy xz yz pp pp pp
0.0000000000000000e+00 7.4000000000000000e+01 2.4000000000000000e+01
0.0000000000000000e+00 5.0000000000000000e+01 0.0000000000000000e+00
0.0000000000000000e+00 5.0000000000000000e+01 0.0000000000000000e+00
ITEM: ATOMS id type x y z c_1[1] c_1[2] c_1[3] c_1[4] c_1[5] c_1[6] c_1[7] c_1[22]
1 2 0.532951 0.321535 0 -2.14807e+08 -7.91382e+07 -0 -1.30382e+08 -0 -0 -9.87097e+79 -3.63662e+79
2 2 0 0 0 -2.14807e+08 -7.91382e+07 -0 -1.30382e+08 -0 -0 -9.87097e+79 -3.63662e+79
ITEM: TIMESTEP
49
ITEM: NUMBER OF ATOMS
2
ITEM: BOX BOUNDS xy xz yz pp pp pp
0.0000000000000000e+00 7.4500000000000000e+01 2.4500000000000000e+01
0.0000000000000000e+00 5.0000000000000000e+01 0.0000000000000000e+00
0.0000000000000000e+00 5.0000000000000000e+01 0.0000000000000000e+00
ITEM: ATOMS id type x y z c_1[1] c_1[2] c_1[3] c_1[4] c_1[5] c_1[6] c_1[7] c_1[22]
1 2 0.536166 0.321535 0 -2.1463e+08 -7.81217e+07 -0 -1.29488e+08 -0 -0 -5.1424e+79 -1.87175e+79
2 2 0 0 0 -2.1463e+08 -7.81217e+07 -0 -1.29488e+08 -0 -0 -5.1424e+79 -1.87175e+79
ITEM: TIMESTEP
50
ITEM: NUMBER OF ATOMS
2
ITEM: BOX BOUNDS xy xz yz pp pp pp
0.0000000000000000e+00 7.5000000000000000e+01 2.5000000000000000e+01
0.0000000000000000e+00 5.0000000000000000e+01 0.0000000000000000e+00
0.0000000000000000e+00 5.0000000000000000e+01 0.0000000000000000e+00
ITEM: ATOMS id type x y z c_1[1] c_1[2] c_1[3] c_1[4] c_1[5] c_1[6] c_1[7] c_1[22]
1 2 0.539381 0.321535 0 -2.14436e+08 -7.7118e+07 -0 -1.28596e+08 -0 -0 -6.1978e+82 -2.22892e+82
2 2 0 0 0 -2.14436e+08 -7.7118e+07 -0 -1.28596e+08 -0 -0 -6.1978e+82 -2.22892e+82
ITEM: TIMESTEP
51
ITEM: NUMBER OF ATOMS
2
ITEM: BOX BOUNDS xy xz yz pp pp pp
0.0000000000000000e+00 7.5500000000000000e+01 2.5500000000000000e+01
0.0000000000000000e+00 5.0000000000000000e+01 0.0000000000000000e+00
0.0000000000000000e+00 5.0000000000000000e+01 0.0000000000000000e+00
ITEM: ATOMS id type x y z c_1[1] c_1[2] c_1[3] c_1[4] c_1[5] c_1[6] c_1[7] c_1[22]
1 2 0.542597 0.321535 0 -2.14227e+08 -7.61268e+07 -0 -1.27704e+08 -0 -0 -3.14389e+82 -1.1172e+82
2 2 0 0 0 -2.14227e+08 -7.61268e+07 -0 -1.27704e+08 -0 -0 -3.14389e+82 -1.1172e+82
ITEM: TIMESTEP
52
ITEM: NUMBER OF ATOMS
2
ITEM: BOX BOUNDS xy xz yz pp pp pp
-2.4000000000000000e+01 5.0000000000000000e+01 -2.4000000000000000e+01
0.0000000000000000e+00 5.0000000000000000e+01 0.0000000000000000e+00
0.0000000000000000e+00 5.0000000000000000e+01 0.0000000000000000e+00
ITEM: ATOMS id type x y z c_1[1] c_1[2] c_1[3] c_1[4] c_1[5] c_1[6] c_1[7] c_1[22]
1 2 0.545812 0.321535 0 -2.14001e+08 -7.51481e+07 -0 -1.26814e+08 -0 -0 -3.68974e+85 -1.29568e+85
2 2 0 0 0 -2.14001e+08 -7.51481e+07 -0 -1.26814e+08 -0 -0 -3.68974e+85 -1.29568e+85
ITEM: TIMESTEP
53
ITEM: NUMBER OF ATOMS
2
ITEM: BOX BOUNDS xy xz yz pp pp pp
-2.3500000000000000e+01 5.0000000000000000e+01 -2.3500000000000000e+01
0.0000000000000000e+00 5.0000000000000000e+01 0.0000000000000000e+00
0.0000000000000000e+00 5.0000000000000000e+01 0.0000000000000000e+00
ITEM: ATOMS id type x y z c_1[1] c_1[2] c_1[3] c_1[4] c_1[5] c_1[6] c_1[7] c_1[22]
1 2 0.549027 0.321535 0 -2.1376e+08 -7.41817e+07 -0 -1.25925e+08 -0 -0 -1.8227e+85 -6.32535e+84
2 2 0 0 0 -2.1376e+08 -7.41817e+07 -0 -1.25925e+08 -0 -0 -1.8227e+85 -6.32535e+84
ITEM: TIMESTEP
54
ITEM: NUMBER OF ATOMS
2
ITEM: BOX BOUNDS xy xz yz pp pp pp
-2.3000000000000000e+01 5.0000000000000000e+01 -2.3000000000000000e+01
0.0000000000000000e+00 5.0000000000000000e+01 0.0000000000000000e+00
0.0000000000000000e+00 5.0000000000000000e+01 0.0000000000000000e+00
ITEM: ATOMS id type x y z c_1[1] c_1[2] c_1[3] c_1[4] c_1[5] c_1[6] c_1[7] c_1[22]