ITEM: TIMESTEP
0
ITEM: NUMBER OF ATOMS
6400
ITEM: BOX BOUNDS xy xz yz pp pp pp
-4.0000000000000000e+01 4.0000000000000000e+01 0.0000000000000000e+00
-4.0000000000000000e+01 4.0000000000000000e+01 0.0000000000000000e+00
-5.0000000000000000e-01 5.0000000000000000e-01 0.0000000000000000e+00
ITEM: ATOMS id type x y z c_1[1] c_1[2] c_1[3] c_1[4] c_1[5] c_1[6] c_1[7]
1 1 -40 -40 0 -21.0089 -21.0089 -0 -6.66134e-16 -0 -0 423.874
2 1 -39 -40 0 -21.0089 -21.0089 -0 3.46945e-17 -0 -0 423.874
3 1 -38 -40 0 -21.0089 -21.0089 -0 -0 -0 -0 423.874
4 1 -37 -40 0 -21.0089 -21.0089 -0 -0 -0 -0 423.874
5 1 -36 -40 0 -21.0089 -21.0089 -0 -0 -0 -0 423.874
6 1 -35 -40 0 -21.0089 -21.0089 -0 -0 -0 -0 423.874
7 1 -34 -40 0 -21.0089 -21.0089 -0 -0 -0 -0 423.874
8 1 -33 -40 0 -21.0089 -21.0089 -0 -0 -0 -0 423.874
9 1 -32 -40 0 -21.0089 -21.0089 -0 -0 -0 -0 423.874
10 1 -31 -40 0 -21.0089 -21.0089 -0 -0 -0 -0 423.874
11 1 -30 -40 0 -21.0089 -21.0089 -0 -0 -0 -0 423.874
12 1 -29 -40 0 -21.0089 -21.0089 -0 -0 -0 -0 423.874
13 1 -28 -40 0 -21.0089 -21.0089 -0 -0 -0 -0 423.874
14 1 -27 -40 0 -21.0089 -21.0089 -0 -0 -0 -0 423.874
15 1 -26 -40 0 -21.0089 -21.0089 -0 -0 -0 -0 423.874
16 1 -25 -40 0 -21.0089 -21.0089 -0 -0 -0 -0 423.874
17 1 -24 -40 0 -21.0089 -21.0089 -0 -0 -0 -0 423.874
18 1 -23 -40 0 -21.0089 -21.0089 -0 -0 -0 -0 423.874
19 1 -22 -40 0 -21.0089 -21.0089 -0 -0 -0 -0 423.874
20 1 -21 -40 0 -21.0089 -21.0089 -0 -0 -0 -0 423.874
21 1 -20 -40 0 -21.0089 -21.0089 -0 -0 -0 -0 423.874
22 1 -19 -40 0 -21.0089 -21.0089 -0 -0 -0 -0 423.874
23 1 -18 -40 0 -21.0089 -21.0089 -0 2.08167e-17 -0 -0 423.874
24 1 -17 -40 0 -21.0089 -21.0089 -0 -2.08167e-17 -0 -0 423.874
25 1 -16 -40 0 -21.0089 -21.0089 -0 -3.46945e-17 -0 -0 423.874
26 1 -15 -40 0 -21.0089 -21.0089 -0 3.46945e-17 -0 -0 423.874
27 1 -14 -40 0 -21.0089 -21.0089 -0 -0 -0 -0 423.874
28 1 -13 -40 0 -21.0089 -21.0089 -0 2.08167e-17 -0 -0 423.874
29 1 -12 -40 0 -21.0089 -21.0089 -0 -2.08167e-17 -0 -0 423.874
30 1 -11 -40 0 -21.0089 -21.0089 -0 -3.46945e-17 -0 -0 423.874
31 1 -10 -40 0 -21.0089 -21.0089 -0 3.46945e-17 -0 -0 423.874
32 1 -9 -40 0 -21.0089 -21.0089 -0 -0 -0 -0 423.874
33 1 -8 -40 0 -21.0089 -21.0089 -0 -0 -0 -0 423.874
34 1 -7 -40 0 -21.0089 -21.0089 -0 -0 -0 -0 423.874
35 1 -6 -40 0 -21.0089 -21.0089 -0 -0 -0 -0 423.874
36 1 -5 -40 0 -21.0089 -21.0089 -0 -0 -0 -0 423.874
37 1 -4 -40 0 -21.0089 -21.0089 -0 -0 -0 -0 423.874
38 1 -3 -40 0 -21.0089 -21.0089 -0 -0 -0 -0 423.874
39 1 -2 -40 0 -21.0089 -21.0089 -0 -0 -0 -0 423.874
40 1 -1 -40 0 -21.0089 -21.0089 -0 -0 -0 -0 423.874
41 1 0 -40 0 -21.0089 -21.0089 -0 5.55112e-17 -0 -0 423.874
42 1 1 -40 0 -21.0089 -21.0089 -0 -2.77556e-17 -0 -0 423.874
43 1 2 -40 0 -21.0089 -21.0089 -0 8.32667e-17 -0 -0 423.874
44 1 3 -40 0 -21.0089 -21.0089 -0 -0 -0 -0 423.874
45 1 4 -40 0 -21.0089 -21.0089 -0 -0 -0 -0 423.874
46 1 5 -40 0 -21.0089 -21.0089 -0 5.55112e-17 -0 -0 423.874
47 1 6 -40 0 -21.0089 -21.0089 -0 -2.77556e-17 -0 -0 423.874
48 1 7 -40 0 -21.0089 -21.0089 -0 2.77556e-17 -0 -0 423.874
49 1 8 -40 0 -21.0089 -21.0089 -0 8.32667e-17 -0 -0 423.874
50 1 9 -40 0 -21.0089 -21.0089 -0 8.32667e-17 -0 -0 423.874
51 1 10 -40 0 -21.0089 -21.0089 -0 -5.55112e-17 -0 -0 423.874
52 1 11 -40 0 -21.0089 -21.0089 -0 -2.77556e-17 -0 -0 423.874
53 1 12 -40 0 -21.0089 -21.0089 -0 2.77556e-17 -0 -0 423.874
54 1 13 -40 0 -21.0089 -21.0089 -0 8.32667e-17 -0 -0 423.874
55 1 14 -40 0 -21.0089 -21.0089 -0 8.32667e-17 -0 -0 423.874
56 1 15 -40 0 -21.0089 -21.0089 -0 -5.55112e-17 -0 -0 423.874
57 1 16 -40 0 -21.0089 -21.0089 -0 -2.77556e-17 -0 -0 423.874
81 1 -40 -39 0 -21.0089 -21.0089 -0 -6.66134e-16 -0 -0 423.874
82 1 -39 -39 0 -21.0089 -21.0089 -0 -4.16334e-17 -0 -0 423.874
83 1 -38 -39 0 -21.0089 -21.0089 -0 -7.63278e-17 -0 -0 423.874
84 1 -37 -39 0 -21.0089 -21.0089 -0 -7.63278e-17 -0 -0 423.874
85 1 -36 -39 0 -21.0089 -21.0089 -0 -7.63278e-17 -0 -0 423.874
86 1 -35 -39 0 -21.0089 -21.0089 -0 -7.63278e-17 -0 -0 423.874
87 1 -34 -39 0 -21.0089 -21.0089 -0 -7.63278e-17 -0 -0 423.874
88 1 -33 -39 0 -21.0089 -21.0089 -0 -7.63278e-17 -0 -0 423.874
89 1 -32 -39 0 -21.0089 -21.0089 -0 -7.63278e-17 -0 -0 423.874
90 1 -31 -39 0 -21.0089 -21.0089 -0 -7.63278e-17 -0 -0 423.874
91 1 -30 -39 0 -21.0089 -21.0089 -0 -7.63278e-17 -0 -0 423.874
92 1 -29 -39 0 -21.0089 -21.0089 -0 -7.63278e-17 -0 -0 423.874
93 1 -28 -39 0 -21.0089 -21.0089 -0 -7.63278e-17 -0 -0 423.874
94 1 -27 -39 0 -21.0089 -21.0089 -0 -7.63278e-17 -0 -0 423.874
95 1 -26 -39 0 -21.0089 -21.0089 -0 -7.63278e-17 -0 -0 423.874
96 1 -25 -39 0 -21.0089 -21.0089 -0 -7.63278e-17 -0 -0 423.874
97 1 -24 -39 0 -21.0089 -21.0089 -0 -7.63278e-17 -0 -0 423.874
98 1 -23 -39 0 -21.0089 -21.0089 -0 -7.63278e-17 -0 -0 423.874
99 1 -22 -39 0 -21.0089 -21.0089 -0 -7.63278e-17 -0 -0 423.874
100 1 -21 -39 0 -21.0089 -21.0089 -0 -7.63278e-17 -0 -0 423.874
101 1 -20 -39 0 -21.0089 -21.0089 -0 -7.63278e-17 -0 -0 423.874
102 1 -19 -39 0 -21.0089 -21.0089 -0 -0 -0 -0 423.874
103 1 -18 -39 0 -21.0089 -21.0089 -0 -0 -0 -0 423.874
104 1 -17 -39 0 -21.0089 -21.0089 -0 4.16334e-17 -0 -0 423.874
105 1 -16 -39 0 -21.0089 -21.0089 -0 4.16334e-17 -0 -0 423.874
106 1 -15 -39 0 -21.0089 -21.0089 -0 -7.63278e-17 -0 -0 423.874
107 1 -14 -39 0 -21.0089 -21.0089 -0 -0 -0 -0 423.874
108 1 -13 -39 0 -21.0089 -21.0089 -0 -0 -0 -0 423.874
109 1 -12 -39 0 -21.0089 -21.0089 -0 4.16334e-17 -0 -0 423.874
110 1 -11 -39 0 -21.0089 -21.0089 -0 4.16334e-17 -0 -0 423.874
111 1 -10 -39 0 -21.0089 -21.0089 -0 -7.63278e-17 -0 -0 423.874
112 1 -9 -39 0 -21.0089 -21.0089 -0 -7.63278e-17 -0 -0 423.874
113 1 -8 -39 0 -21.0089 -21.0089 -0 -7.63278e-17 -0 -0 423.874
114 1 -7 -39 0 -21.0089 -21.0089 -0 -7.63278e-17 -0 -0 423.874
115 1 -6 -39 0 -21.0089 -21.0089 -0 -7.63278e-17 -0 -0 423.874
116 1 -5 -39 0 -21.0089 -21.0089 -0 -7.63278e-17 -0 -0 423.874
117 1 -4 -39 0 -21.0089 -21.0089 -0 -7.63278e-17 -0 -0 423.874
118 1 -3 -39 0 -21.0089 -21.0089 -0 -7.63278e-17 -0 -0 423.874
119 1 -2 -39 0 -21.0089 -21.0089 -0 -7.63278e-17 -0 -0 423.874
120 1 -1 -39 0 -21.0089 -21.0089 -0 -1.38778e-17 -0 -0 423.874
121 1 0 -39 0 -21.0089 -21.0089 -0 -7.63278e-17 -0 -0 423.874
122 1 1 -39 0 -21.0089 -21.0089 -0 -3.46945e-17 -0 -0 423.874
123 1 2 -39 0 -21.0089 -21.0089 -0 -7.63278e-17 -0 -0 423.874
124 1 3 -39 0 -21.0089 -21.0089 -0 3.46945e-17 -0 -0 423.874
125 1 4 -39 0 -21.0089 -21.0089 -0 -1.38778e-17 -0 -0 423.874
126 1 5 -39 0 -21.0089 -21.0089 -0 -7.63278e-17 -0 -0 423.874
127 1 6 -39 0 -21.0089 -21.0089 -0 3.46945e-17 -0 -0 423.874
128 1 7 -39 0 -21.0089 -21.0089 -0 -7.63278e-17 -0 -0 423.874
129 1 8 -39 0 -21.0089 -21.0089 -0 -3.46945e-17 -0 -0 423.874
130 1 9 -39 0 -21.0089 -21.0089 -0 -1.38778e-17 -0 -0 423.874
131 1 10 -39 0 -21.0089 -21.0089 -0 3.46945e-17 -0 -0 423.874
132 1 11 -39 0 -21.0089 -21.0089 -0 3.46945e-17 -0 -0 423.874
133 1 12 -39 0 -21.0089 -21.0089 -0 -7.63278e-17 -0 -0 423.874
134 1 13 -39 0 -21.0089 -21.0089 -0 -3.46945e-17 -0 -0 423.874
135 1 14 -39 0 -21.0089 -21.0089 -0 -1.38778e-17 -0 -0 423.874
136 1 15 -39 0 -21.0089 -21.0089 -0 -0 -0 -0 423.874
137 1 16 -39 0 -21.0089 -21.0089 -0 -6.93889e-18 -0 -0 423.874
161 1 -40 -38 0 -21.0089 -21.0089 -0 -7.77156e-16 -0 -0 423.874
162 1 -39 -38 0 -21.0089 -21.0089 -0 -1.38778e-17 -0 -0 423.874
163 1 -38 -38 0 -21.0089 -21.0089 -0 -4.16334e-17 -0 -0 423.874
164 1 -37 -38 0 -21.0089 -21.0089 -0 -4.16334e-17 -0 -0 423.874
165 1 -36 -38 0 -21.0089 -21.0089 -0 -4.16334e-17 -0 -0 423.874
166 1 -35 -38 0 -21.0089 -21.0089 -0 -4.16334e-17 -0 -0 423.874
167 1 -34 -38 0 -21.0089 -21.0089 -0 -4.16334e-17 -0 -0 423.874
168 1 -33 -38 0 -21.0089 -21.0089 -0 -4.16334e-17 -0 -0 423.874
169 1 -32 -38 0 -21.0089 -21.0089 -0 -4.16334e-17 -0 -0 423.874
170 1 -31 -38 0 -21.0089 -21.0089 -0 -4.16334e-17 -0 -0 423.874
171 1 -30 -38 0 -21.0089 -21.0089 -0 -4.16334e-17 -0 -0 423.874
172 1 -29 -38 0 -21.0089 -21.0089 -0 -4.16334e-17 -0 -0 423.874
173 1 -28 -38 0 -21.0089 -21.0089 -0 -4.16334e-17 -0 -0 423.874
174 1 -27 -38 0 -21.0089 -21.0089 -0 -4.16334e-17 -0 -0 423.874
175 1 -26 -38 0 -21.0089 -21.0089 -0 -4.16334e-17 -0 -0 423.874
176 1 -25 -38 0 -21.0089 -21.0089 -0 -4.16334e-17 -0 -0 423.874
177 1 -24 -38 0 -21.0089 -21.0089 -0 -4.16334e-17 -0 -0 423.874
178 1 -23 -38 0 -21.0089 -21.0089 -0 -4.16334e-17 -0 -0 423.874
179 1 -22 -38 0 -21.0089 -21.0089 -0 -4.16334e-17 -0 -0 423.874
180 1 -21 -38 0 -21.0089 -21.0089 -0 -4.16334e-17 -0 -0 423.874
181 1 -20 -38 0 -21.0089 -21.0089 -0 -4.16334e-17 -0 -0 423.874
182 1 -19 -38 0 -21.0089 -21.0089 -0 3.46945e-17 -0 -0 423.874
183 1 -18 -38 0 -21.0089 -21.0089 -0 5.55112e-17 -0 -0 423.874
184 1 -17 -38 0 -21.0089 -21.0089 -0 -3.46945e-17 -0 -0 423.874
185 1 -16 -38 0 -21.0089 -21.0089 -0 4.16334e-17 -0 -0 423.874
186 1 -15 -38 0 -21.0089 -21.0089 -0 -4.16334e-17 -0 -0 423.874
187 1 -14 -38 0 -21.0089 -21.0089 -0 3.46945e-17 -0 -0 423.874
188 1 -13 -38 0 -21.0089 -21.0089 -0 5.55112e-17 -0 -0 423.874
189 1 -12 -38 0 -21.0089 -21.0089 -0 -3.46945e-17 -0 -0 423.874
190 1 -11 -38 0 -21.0089 -21.0089 -0 4.16334e-17 -0 -0 423.874
191 1 -10 -38 0 -21.0089 -21.0089 -0 -4.16334e-17 -0 -0 423.874
192 1 -9 -38 0 -21.0089 -21.0089 -0 -4.16334e-17 -0 -0 423.874
193 1 -8 -38 0 -21.0089 -21.0089 -0 -4.16334e-17 -0 -0 423.874
194 1 -7 -38 0 -21.0089 -21.0089 -0 -4.16334e-17 -0 -0 423.874
195 1 -6 -38 0 -21.0089 -21.0089 -0 -4.16334e-17 -0 -0 423.874
196 1 -5 -38 0 -21.0089 -21.0089 -0 -4.16334e-17 -0 -0 423.874
197 1 -4 -38 0 -21.0089 -21.0089 -0 -4.16334e-17 -0 -0 423.874
198 1 -3 -38 0 -21.0089 -21.0089 -0 -4.16334e-17 -0 -0 423.874
199 1 -2 -38 0 -21.0089 -21.0089 -0 -4.16334e-17 -0 -0 423.874
200 1 -1 -38 0 -21.0089 -21.0089 -0 2.08167e-17 -0 -0 423.874
201 1 0 -38 0 -21.0089 -21.0089 -0 1.38778e-17 -0 -0 423.874
202 1 1 -38 0 -21.0089 -21.0089 -0 -8.32667e-17 -0 -0 423.874
203 1 2 -38 0 -21.0089 -21.0089 -0 -4.16334e-17 -0 -0 423.874
204 1 3 -38 0 -21.0089 -21.0089 -0 6.93889e-17 -0 -0 423.874
205 1 4 -38 0 -21.0089 -21.0089 -0 2.08167e-17 -0 -0 423.874
206 1 5 -38 0 -21.0089 -21.0089 -0 1.38778e-17 -0 -0 423.874
207 1 6 -38 0 -21.0089 -21.0089 -0 -1.38778e-17 -0 -0 423.874
208 1 7 -38 0 -21.0089 -21.0089 -0 -9.71445e-17 -0 -0 423.874
209 1 8 -38 0 -21.0089 -21.0089 -0 2.77556e-17 -0 -0 423.874
210 1 9 -38 0 -21.0089 -21.0089 -0 2.08167e-17 -0 -0 423.874
211 1 10 -38 0 -21.0089 -21.0089 -0 1.38778e-17 -0 -0 423.874
212 1 11 -38 0 -21.0089 -21.0089 -0 -1.38778e-17 -0 -0 423.874
213 1 12 -38 0 -21.0089 -21.0089 -0 -9.71445e-17 -0 -0 423.874
214 1 13 -38 0 -21.0089 -21.0089 -0 2.77556e-17 -0 -0 423.874
215 1 14 -38 0 -21.0089 -21.0089 -0 2.08167e-17 -0 -0 423.874
216 1 15 -38 0 -21.0089 -21.0089 -0 -2.08167e-17 -0 -0 423.874
217 1 16 -38 0 -21.0089 -21.0089 -0 -3.46945e-17 -0 -0 423.874
241 1 -40 -37 0 -21.0089 -21.0089 -0 -6.66134e-16 -0 -0 423.874
242 1 -39 -37 0 -21.0089 -21.0089 -0 -4.16334e-17 -0 -0 423.874
243 1 -38 -37 0 -21.0089 -21.0089 -0 -7.63278e-17 -0 -0 423.874
244 1 -37 -37 0 -21.0089 -21.0089 -0 -7.63278e-17 -0 -0 423.874
245 1 -36 -37 0 -21.0089 -21.0089 -0 -7.63278e-17 -0 -0 423.874
246 1 -35 -37 0 -21.0089 -21.0089 -0 -7.63278e-17 -0 -0 423.874
247 1 -34 -37 0 -21.0089 -21.0089 -0 -7.63278e-17 -0 -0 423.874
248 1 -33 -37 0 -21.0089 -21.0089 -0 -7.63278e-17 -0 -0 423.874
249 1 -32 -37 0 -21.0089 -21.0089 -0 -7.63278e-17 -0 -0 423.874
250 1 -31 -37 0 -21.0089 -21.0089 -0 -7.63278e-17 -0 -0 423.874
251 1 -30 -37 0 -21.0089 -21.0089 -0 -7.63278e-17 -0 -0 423.874
252 1 -29 -37 0 -21.0089 -21.0089 -0 -7.63278e-17 -0 -0 423.874
253 1 -28 -37 0 -21.0089 -21.0089 -0 -7.63278e-17 -0 -0 423.874
254 1 -27 -37 0 -21.0089 -21.0089 -0 -7.63278e-17 -0 -0 423.874
255 1 -26 -37 0 -21.0089 -21.0089 -0 -7.63278e-17 -0 -0 423.874
256 1 -25 -37 0 -21.0089 -21.0089 -0 -7.63278e-17 -0 -0 423.874
257 1 -24 -37 0 -21.0089 -21.0089 -0 -7.63278e-17 -0 -0 423.874
258 1 -23 -37 0 -21.0089 -21.0089 -0 -7.63278e-17 -0 -0 423.874
259 1 -22 -37 0 -21.0089 -21.0089 -0 -7.63278e-17 -0 -0 423.874
260 1 -21 -37 0 -21.0089 -21.0089 -0 -7.63278e-17 -0 -0 423.874
261 1 -20 -37 0 -21.0089 -21.0089 -0 -7.63278e-17 -0 -0 423.874
262 1 -19 -37 0 -21.0089 -21.0089 -0 -0 -0 -0 423.874
263 1 -18 -37 0 -21.0089 -21.0089 -0 2.08167e-17 -0 -0 423.874
264 1 -17 -37 0 -21.0089 -21.0089 -0 2.08167e-17 -0 -0 423.874
265 1 -16 -37 0 -21.0089 -21.0089 -0 6.93889e-18 -0 -0 423.874
266 1 -15 -37 0 -21.0089 -21.0089 -0 -4.16334e-17 -0 -0 423.874
267 1 -14 -37 0 -21.0089 -21.0089 -0 -0 -0 -0 423.874
268 1 -13 -37 0 -21.0089 -21.0089 -0 2.08167e-17 -0 -0 423.874
269 1 -12 -37 0 -21.0089 -21.0089 -0 2.08167e-17 -0 -0 423.874
270 1 -11 -37 0 -21.0089 -21.0089 -0 6.93889e-18 -0 -0 423.874
271 1 -10 -37 0 -21.0089 -21.0089 -0 -4.16334e-17 -0 -0 423.874
272 1 -9 -37 0 -21.0089 -21.0089 -0 -7.63278e-17 -0 -0 423.874
273 1 -8 -37 0 -21.0089 -21.0089 -0 -7.63278e-17 -0 -0 423.874
274 1 -7 -37 0 -21.0089 -21.0089 -0 -7.63278e-17 -0 -0 423.874
275 1 -6 -37 0 -21.0089 -21.0089 -0 -7.63278e-17 -0 -0 423.874
276 1 -5 -37 0 -21.0089 -21.0089 -0 -7.63278e-17 -0 -0 423.874
277 1 -4 -37 0 -21.0089 -21.0089 -0 -7.63278e-17 -0 -0 423.874
278 1 -3 -37 0 -21.0089 -21.0089 -0 -7.63278e-17 -0 -0 423.874
279 1 -2 -37 0 -21.0089 -21.0089 -0 -7.63278e-17 -0 -0 423.874
280 1 -1 -37 0 -21.0089 -21.0089 -0 -1.38778e-17 -0 -0 423.874
281 1 0 -37 0 -21.0089 -21.0089 -0 -2.08167e-17 -0 -0 423.874
282 1 1 -37 0 -21.0089 -21.0089 -0 -6.245e-17 -0 -0 423.874
283 1 2 -37 0 -21.0089 -21.0089 -0 6.93889e-18 -0 -0 423.874
284 1 3 -37 0 -21.0089 -21.0089 -0 3.46945e-17 -0 -0 423.874
285 1 4 -37 0 -21.0089 -21.0089 -0 -1.38778e-17 -0 -0 423.874
286 1 5 -37 0 -21.0089 -21.0089 -0 -2.08167e-17 -0 -0 423.874
287 1 6 -37 0 -21.0089 -21.0089 -0 6.93889e-18 -0 -0 423.874
288 1 7 -37 0 -21.0089 -21.0089 -0 -4.85723e-17 -0 -0 423.874
289 1 8 -37 0 -21.0089 -21.0089 -0 4.85723e-17 -0 -0 423.874
290 1 9 -37 0 -21.0089 -21.0089 -0 6.93889e-17 -0 -0 423.874
291 1 10 -37 0 -21.0089 -21.0089 -0 -2.08167e-17 -0 -0 423.874
292 1 11 -37 0 -21.0089 -21.0089 -0 6.93889e-18 -0 -0 423.874
293 1 12 -37 0 -21.0089 -21.0089 -0 -4.85723e-17 -0 -0 423.874
294 1 13 -37 0 -21.0089 -21.0089 -0 4.85723e-17 -0 -0 423.874
295 1 14 -37 0 -21.0089 -21.0089 -0 6.93889e-17 -0 -0 423.874
296 1 15 -37 0 -21.0089 -21.0089 -0 -5.55112e-17 -0 -0 423.874
297 1 16 -37 0 -21.0089 -21.0089 -0 -3.46945e-17 -0 -0 423.874
321 1 -40 -36 0 -21.0089 -21.0089 -0 -6.66134e-16 -0 -0 423.874
322 1 -39 -36 0 -21.0089 -21.0089 -0 -4.16334e-17 -0 -0 423.874
323 1 -38 -36 0 -21.0089 -21.0089 -0 -7.63278e-17 -0 -0 423.874
324 1 -37 -36 0 -21.0089 -21.0089 -0 -7.63278e-17 -0 -0 423.874
325 1 -36 -36 0 -21.0089 -21.0089 -0 -7.63278e-17 -0 -0 423.874
326 1 -35 -36 0 -21.0089 -21.0089 -0 -7.63278e-17 -0 -0 423.874
327 1 -34 -36 0 -21.0089 -21.0089 -0 -7.63278e-17 -0 -0 423.874
328 1 -33 -36 0 -21.0089 -21.0089 -0 -7.63278e-17 -0 -0 423.874
329 1 -32 -36 0 -21.0089 -21.0089 -0 -7.63278e-17 -0 -0 423.874
330 1 -31 -36 0 -21.0089 -21.0089 -0 -7.63278e-17 -0 -0 423.874
331 1 -30 -36 0 -21.0089 -21.0089 -0 -7.63278e-17 -0 -0 423.874
332 1 -29 -36 0 -21.0089 -21.0089 -0 -7.63278e-17 -0 -0 423.874
333 1 -28 -36 0 -21.0089 -21.0089 -0 -7.63278e-17 -0 -0 423.874
334 1 -27 -36 0 -21.0089 -21.0089 -0 -7.63278e-17 -0 -0 423.874
335 1 -26 -36 0 -21.0089 -21.0089 -0 -7.63278e-17 -0 -0 423.874
336 1 -25 -36 0 -21.0089 -21.0089 -0 -7.63278e-17 -0 -0 423.874
337 1 -24 -36 0 -21.0089 -21.0089 -0 -7.63278e-17 -0 -0 423.874
338 1 -23 -36 0 -21.0089 -21.0089 -0 -7.63278e-17 -0 -0 423.874
339 1 -22 -36 0 -21.0089 -21.0089 -0 -7.63278e-17 -0 -0 423.874
340 1 -21 -36 0 -21.0089 -21.0089 -0 -7.63278e-17 -0 -0 423.874
341 1 -20 -36 0 -21.0089 -21.0089 -0 -7.63278e-17 -0 -0 423.874
342 1 -19 -36 0 -21.0089 -21.0089 -0 -0 -0 -0 423.874
343 1 -18 -36 0 -21.0089 -21.0089 -0 2.08167e-17 -0 -0 423.874
344 1 -17 -36 0 -21.0089 -21.0089 -0 2.08167e-17 -0 -0 423.874
345 1 -16 -36 0 -21.0089 -21.0089 -0 6.93889e-18 -0 -0 423.874
346 1 -15 -36 0 -21.0089 -21.0089 -0 -4.16334e-17 -0 -0 423.874
347 1 -14 -36 0 -21.0089 -21.0089 -0 -0 -0 -0 423.874
348 1 -13 -36 0 -21.0089 -21.0089 -0 2.08167e-17 -0 -0 423.874
349 1 -12 -36 0 -21.0089 -21.0089 -0 2.08167e-17 -0 -0 423.874
350 1 -11 -36 0 -21.0089 -21.0089 -0 6.93889e-18 -0 -0 423.874
351 1 -10 -36 0 -21.0089 -21.0089 -0 -4.16334e-17 -0 -0 423.874
352 1 -9 -36 0 -21.0089 -21.0089 -0 -7.63278e-17 -0 -0 423.874
353 1 -8 -36 0 -21.0089 -21.0089 -0 -7.63278e-17 -0 -0 423.874
354 1 -7 -36 0 -21.0089 -21.0089 -0 -7.63278e-17 -0 -0 423.874
355 1 -6 -36 0 -21.0089 -21.0089 -0 -7.63278e-17 -0 -0 423.874
356 1 -5 -36 0 -21.0089 -21.0089 -0 -7.63278e-17 -0 -0 423.874
357 1 -4 -36 0 -21.0089 -21.0089 -0 -7.63278e-17 -0 -0 423.874
358 1 -3 -36 0 -21.0089 -21.0089 -0 -7.63278e-17 -0 -0 423.874
359 1 -2 -36 0 -21.0089 -21.0089 -0 -7.63278e-17 -0 -0 423.874
360 1 -1 -36 0 -21.0089 -21.0089 -0 -1.38778e-17 -0 -0 423.874
361 1 0 -36 0 -21.0089 -21.0089 -0 -2.08167e-17 -0 -0 423.874
362 1 1 -36 0 -21.0089 -21.0089 -0 -6.245e-17 -0 -0 423.874
363 1 2 -36 0 -21.0089 -21.0089 -0 6.93889e-18 -0 -0 423.874
364 1 3 -36 0 -21.0089 -21.0089 -0 3.46945e-17 -0 -0 423.874
365 1 4 -36 0 -21.0089 -21.0089 -0 -1.38778e-17 -0 -0 423.874
366 1 5 -36 0 -21.0089 -21.0089 -0 -2.08167e-17 -0 -0 423.874
367 1 6 -36 0 -21.0089 -21.0089 -0 6.93889e-18 -0 -0 423.874
368 1 7 -36 0 -21.0089 -21.0089 -0 -4.85723e-17 -0 -0 423.874
369 1 8 -36 0 -21.0089 -21.0089 -0 4.85723e-17 -0 -0 423.874
370 1 9 -36 0 -21.0089 -21.0089 -0 6.93889e-17 -0 -0 423.874
371 1 10 -36 0 -21.0089 -21.0089 -0 -2.08167e-17 -0 -0 423.874
372 1 11 -36 0 -21.0089 -21.0089 -0 6.93889e-18 -0 -0 423.874
373 1 12 -36 0 -21.0089 -21.0089 -0 -4.85723e-17 -0 -0 423.874
374 1 13 -36 0 -21.0089 -21.0089 -0 4.85723e-17 -0 -0 423.874
375 1 14 -36 0 -21.0089 -21.0089 -0 6.93889e-17 -0 -0 423.874
376 1 15 -36 0 -21.0089 -21.0089 -0 -5.55112e-17 -0 -0 423.874
377 1 16 -36 0 -21.0089 -21.0089 -0 -3.46945e-17 -0 -0 423.874
401 1 -40 -35 0 -21.0089 -21.0089 -0 -7.77156e-16 -0 -0 423.874
402 1 -39 -35 0 -21.0089 -21.0089 -0 -1.38778e-17 -0 -0 423.874
403 1 -38 -35 0 -21.0089 -21.0089 -0 -4.16334e-17 -0 -0 423.874
404 1 -37 -35 0 -21.0089 -21.0089 -0 -4.16334e-17 -0 -0 423.874
405 1 -36 -35 0 -21.0089 -21.0089 -0 -4.16334e-17 -0 -0 423.874
406 1 -35 -35 0 -21.0089 -21.0089 -0 -4.16334e-17 -0 -0 423.874
407 1 -34 -35 0 -21.0089 -21.0089 -0 -4.16334e-17 -0 -0 423.874
408 1 -33 -35 0 -21.0089 -21.0089 -0 -4.16334e-17 -0 -0 423.874
409 1 -32 -35 0 -21.0089 -21.0089 -0 -4.16334e-17 -0 -0 423.874
410 1 -31 -35 0 -21.0089 -21.0089 -0 -4.16334e-17 -0 -0 423.874
411 1 -30 -35 0 -21.0089 -21.0089 -0 -4.16334e-17 -0 -0 423.874
412 1 -29 -35 0 -21.0089 -21.0089 -0 -4.16334e-17 -0 -0 423.874
413 1 -28 -35 0 -21.0089 -21.0089 -0 -4.16334e-17 -0 -0 423.874
414 1 -27 -35 0 -21.0089 -21.0089 -0 -4.16334e-17 -0 -0 423.874
415 1 -26 -35 0 -21.0089 -21.0089 -0 -4.16334e-17 -0 -0 423.874
416 1 -25 -35 0 -21.0089 -21.0089 -0 -4.16334e-17 -0 -0 423.874
417 1 -24 -35 0 -21.0089 -21.0089 -0 -4.16334e-17 -0 -0 423.874
418 1 -23 -35 0 -21.0089 -21.0089 -0 -4.16334e-17 -0 -0 423.874
419 1 -22 -35 0 -21.0089 -21.0089 -0 -4.16334e-17 -0 -0 423.874
420 1 -21 -35 0 -21.0089 -21.0089 -0 -4.16334e-17 -0 -0 423.874
421 1 -20 -35 0 -21.0089 -21.0089 -0 -4.16334e-17 -0 -0 423.874
422 1 -19 -35 0 -21.0089 -21.0089 -0 3.46945e-17 -0 -0 423.874
423 1 -18 -35 0 -21.0089 -21.0089 -0 5.55112e-17 -0 -0 423.874
424 1 -17 -35 0 -21.0089 -21.0089 -0 -3.46945e-17 -0 -0 423.874
425 1 -16 -35 0 -21.0089 -21.0089 -0 4.16334e-17 -0 -0 423.874
426 1 -15 -35 0 -21.0089 -21.0089 -0 -4.16334e-17 -0 -0 423.874
427 1 -14 -35 0 -21.0089 -21.0089 -0 3.46945e-17 -0 -0 423.874
428 1 -13 -35 0 -21.0089 -21.0089 -0 5.55112e-17 -0 -0 423.874
429 1 -12 -35 0 -21.0089 -21.0089 -0 -3.46945e-17 -0 -0 423.874
430 1 -11 -35 0 -21.0089 -21.0089 -0 4.16334e-17 -0 -0 423.874
431 1 -10 -35 0 -21.0089 -21.0089 -0 -4.16334e-17 -0 -0 423.874
432 1 -9 -35 0 -21.0089 -21.0089 -0 -4.16334e-17 -0 -0 423.874
433 1 -8 -35 0 -21.0089 -21.0089 -0 -4.16334e-17 -0 -0 423.874
434 1 -7 -35 0 -21.0089 -21.0089 -0 -4.16334e-17 -0 -0 423.874
435 1 -6 -35 0 -21.0089 -21.0089 -0 -4.16334e-17 -0 -0 423.874
436 1 -5 -35 0 -21.0089 -21.0089 -0 -4.16334e-17 -0 -0 423.874
437 1 -4 -35 0 -21.0089 -21.0089 -0 -4.16334e-17 -0 -0 423.874
438 1 -3 -35 0 -21.0089 -21.0089 -0 -4.16334e-17 -0 -0 423.874
439 1 -2 -35 0 -21.0089 -21.0089 -0 -4.16334e-17 -0 -0 423.874
440 1 -1 -35 0 -21.0089 -21.0089 -0 2.08167e-17 -0 -0 423.874
441 1 0 -35 0 -21.0089 -21.0089 -0 1.38778e-17 -0 -0 423.874
442 1 1 -35 0 -21.0089 -21.0089 -0 -8.32667e-17 -0 -0 423.874
443 1 2 -35 0 -21.0089 -21.0089 -0 -4.16334e-17 -0 -0 423.874
444 1 3 -35 0 -21.0089 -21.0089 -0 6.93889e-17 -0 -0 423.874
445 1 4 -35 0 -21.0089 -21.0089 -0 2.08167e-17 -0 -0 423.874
446 1 5 -35 0 -21.0089 -21.0089 -0 1.38778e-17 -0 -0 423.874
447 1 6 -35 0 -21.0089 -21.0089 -0 -1.38778e-17 -0 -0 423.874
448 1 7 -35 0 -21.0089 -21.0089 -0 -9.71445e-17 -0 -0 423.874
449 1 8 -35 0 -21.0089 -21.0089 -0 2.77556e-17 -0 -0 423.874
450 1 9 -35 0 -21.0089 -21.0089 -0 2.08167e-17 -0 -0 423.874
451 1 10 -35 0 -21.0089 -21.0089 -0 1.38778e-17 -0 -0 423.874
452 1 11 -35 0 -21.0089 -21.0089 -0 -1.38778e-17 -0 -0 423.874
453 1 12 -35 0 -21.0089 -21.0089 -0 -9.71445e-17 -0 -0 423.874
454 1 13 -35 0 -21.0089 -21.0089 -0 2.77556e-17 -0 -0 423.874
455 1 14 -35 0 -21.0089 -21.0089 -0 2.08167e-17 -0 -0 423.874
456 1 15 -35 0 -21.0089 -21.0089 -0 -2.08167e-17 -0 -0 423.874
457 1 16 -35 0 -21.0089 -21.0089 -0 -3.46945e-17 -0 -0 423.874
481 1 -40 -34 0 -21.0089 -21.0089 -0 -6.66134e-16 -0 -0 423.874
482 1 -39 -34 0 -21.0089 -21.0089 -0 -4.16334e-17 -0 -0 423.874
483 1 -38 -34 0 -21.0089 -21.0089 -0 -7.63278e-17 -0 -0 423.874
484 1 -37 -34 0 -21.0089 -21.0089 -0 -7.63278e-17 -0 -0 423.874
485 1 -36 -34 0 -21.0089 -21.0089 -0 -7.63278e-17 -0 -0 423.874
486 1 -35 -34 0 -21.0089 -21.0089 -0 -7.63278e-17 -0 -0 423.874
487 1 -34 -34 0 -21.0089 -21.0089 -0 -7.63278e-17 -0 -0 423.874
488 1 -33 -34 0 -21.0089 -21.0089 -0 -7.63278e-17 -0 -0 423.874
489 1 -32 -34 0 -21.0089 -21.0089 -0 -7.63278e-17 -0 -0 423.874
490 1 -31 -34 0 -21.0089 -21.0089 -0 -7.63278e-17 -0 -0 423.874
491 1 -30 -34 0 -21.0089 -21.0089 -0 -7.63278e-17 -0 -0 423.874
492 1 -29 -34 0 -21.0089 -21.0089 -0 -7.63278e-17 -0 -0 423.874
493 1 -28 -34 0 -21.0089 -21.0089 -0 -7.63278e-17 -0 -0 423.874
494 1 -27 -34 0 -21.0089 -21.0089 -0 -7.63278e-17 -0 -0 423.874
495 1 -26 -34 0 -21.0089 -21.0089 -0 -7.63278e-17 -0 -0 423.874
496 1 -25 -34 0 -21.0089 -21.0089 -0 -7.63278e-17 -0 -0 423.874
497 1 -24 -34 0 -21.0089 -21.0089 -0 -7.63278e-17 -0 -0 423.874
498 1 -23 -34 0 -21.0089 -21.0089 -0 -7.63278e-17 -0 -0 423.874
499 1 -22 -34 0 -21.0089 -21.0089 -0 -7.63278e-17 -0 -0 423.874
500 1 -21 -34 0 -21.0089 -21.0089 -0 -7.63278e-17 -0 -0 423.874
501 1 -20 -34 0 -21.0089 -21.0089 -0 -7.63278e-17 -0 -0 423.874
502 1 -19 -34 0 -21.0089 -21.0089 -0 -0 -0 -0 423.874
503 1 -18 -34 0 -21.0089 -21.0089 -0 2.08167e-17 -0 -0 423.874
504 1 -17 -34 0 -21.0089 -21.0089 -0 2.08167e-17 -0 -0 423.874
505 1 -16 -34 0 -21.0089 -21.0089 -0 6.93889e-18 -0 -0 423.874
506 1 -15 -34 0 -21.0089 -21.0089 -0 -4.16334e-17 -0 -0 423.874
507 1 -14 -34 0 -21.0089 -21.0089 -0 -0 -0 -0 423.874
508 1 -13 -34 0 -21.0089 -21.0089 -0 2.08167e-17 -0 -0 423.874
509 1 -12 -34 0 -21.0089 -21.0089 -0 2.08167e-17 -0 -0 423.874
510 1 -11 -34 0 -21.0089 -21.0089 -0 6.93889e-18 -0 -0 423.874
511 1 -10 -34 0 -21.0089 -21.0089 -0 -4.16334e-17 -0 -0 423.874
512 1 -9 -34 0 -21.0089 -21.0089 -0 -7.63278e-17 -0 -0 423.874
513 1 -8 -34 0 -21.0089 -21.0089 -0 -7.63278e-17 -0 -0 423.874
514 1 -7 -34 0 -21.0089 -21.0089 -0 -7.63278e-17 -0 -0 423.874
515 1 -6 -34 0 -21.0089 -21.0089 -0 -7.63278e-17 -0 -0 423.874
516 1 -5 -34 0 -21.0089 -21.0089 -0 -7.63278e-17 -0 -0 423.874
517 1 -4 -34 0 -21.0089 -21.0089 -0 -7.63278e-17 -0 -0 423.874
518 1 -3 -34 0 -21.0089 -21.0089 -0 -7.63278e-17 -0 -0 423.874
519 1 -2 -34 0 -21.0089 -21.0089 -0 -7.63278e-17 -0 -0 423.874
520 1 -1 -34 0 -21.0089 -21.0089 -0 -1.38778e-17 -0 -0 423.874
521 1 0 -34 0 -21.0089 -21.0089 -0 -2.08167e-17 -0 -0 423.874
522 1 1 -34 0 -21.0089 -21.0089 -0 -6.245e-17 -0 -0 423.874
523 1 2 -34 0 -21.0089 -21.0089 -0 6.93889e-18 -0 -0 423.874
524 1 3 -34 0 -21.0089 -21.0089 -0 3.46945e-17 -0 -0 423.874
525 1 4 -34 0 -21.0089 -21.0089 -0 -1.38778e-17 -0 -0 423.874
526 1 5 -34 0 -21.0089 -21.0089 -0 -2.08167e-17 -0 -0 423.874
527 1 6 -34 0 -21.0089 -21.0089 -0 6.93889e-18 -0 -0 423.874
528 1 7 -34 0 -21.0089 -21.0089 -0 -4.85723e-17 -0 -0 423.874
529 1 8 -34 0 -21.0089 -21.0089 -0 4.85723e-17 -0 -0 423.874
530 1 9 -34 0 -21.0089 -21.0089 -0 6.93889e-17 -0 -0 423.874
531 1 10 -34 0 -21.0089 -21.0089 -0 -2.08167e-17 -0 -0 423.874
532 1 11 -34 0 -21.0089 -21.0089 -0 6.93889e-18 -0 -0 423.874
533 1 12 -34 0 -21.0089 -21.0089 -0 -4.85723e-17 -0 -0 423.874
534 1 13 -34 0 -21.0089 -21.0089 -0 4.85723e-17 -0 -0 423.874
535 1 14 -34 0 -21.0089 -21.0089 -0 6.93889e-17 -0 -0 423.874
536 1 15 -34 0 -21.0089 -21.0089 -0 -5.55112e-17 -0 -0 423.874
537 1 16 -34 0 -21.0089 -21.0089 -0 -3.46945e-17 -0 -0 423.874
561 1 -40 -33 0 -21.0089 -21.0089 -0 -6.66134e-16 -0 -0 423.874
562 1 -39 -33 0 -21.0089 -21.0089 -0 -4.16334e-17 -0 -0 423.874
563 1 -38 -33 0 -21.0089 -21.0089 -0 -7.63278e-17 -0 -0 423.874
564 1 -37 -33 0 -21.0089 -21.0089 -0 -7.63278e-17 -0 -0 423.874
565 1 -36 -33 0 -21.0089 -21.0089 -0 -7.63278e-17 -0 -0 423.874
566 1 -35 -33 0 -21.0089 -21.0089 -0 -7.63278e-17 -0 -0 423.874
567 1 -34 -33 0 -21.0089 -21.0089 -0 -7.63278e-17 -0 -0 423.874
568 1 -33 -33 0 -21.0089 -21.0089 -0 -7.63278e-17 -0 -0 423.874
569 1 -32 -33 0 -21.0089 -21.0089 -0 -7.63278e-17 -0 -0 423.874
570 1 -31 -33 0 -21.0089 -21.0089 -0 -7.63278e-17 -0 -0 423.874
571 1 -30 -33 0 -21.0089 -21.0089 -0 -7.63278e-17 -0 -0 423.874
572 1 -29 -33 0 -21.0089 -21.0089 -0 -7.63278e-17 -0 -0 423.874
573 1 -28 -33 0 -21.0089 -21.0089 -0 -7.63278e-17 -0 -0 423.874
574 1 -27 -33 0 -21.0089 -21.0089 -0 -7.63278e-17 -0 -0 423.874
575 1 -26 -33 0 -21.0089 -21.0089 -0 -7.63278e-17 -0 -0 423.874
576 1 -25 -33 0 -21.0089 -21.0089 -0 -7.63278e-17 -0 -0 423.874
577 1 -24 -33 0 -21.0089 -21.0089 -0 -7.63278e-17 -0 -0 423.874
578 1 -23 -33 0 -21.0089 -21.0089 -0 -7.63278e-17 -0 -0 423.874
579 1 -22 -33 0 -21.0089 -21.0089 -0 -7.63278e-17 -0 -0 423.874
580 1 -21 -33 0 -21.0089 -21.0089 -0 -7.63278e-17 -0 -0 423.874
581 1 -20 -33 0 -21.0089 -21.0089 -0 -7.63278e-17 -0 -0 423.874
582 1 -19 -33 0 -21.0089 -21.0089 -0 -0 -0 -0 423.874
583 1 -18 -33 0 -21.0089 -21.0089 -0 2.08167e-17 -0 -0 423.874
584 1 -17 -33 0 -21.0089 -21.0089 -0 2.08167e-17 -0 -0 423.874
585 1 -16 -33 0 -21.0089 -21.0089 -0 6.93889e-18 -0 -0 423.874
586 1 -15 -33 0 -21.0089 -21.0089 -0 -4.16334e-17 -0 -0 423.874
587 1 -14 -33 0 -21.0089 -21.0089 -0 -0 -0 -0 423.874
588 1 -13 -33 0 -21.0089 -21.0089 -0 2.08167e-17 -0 -0 423.874
589 1 -12 -33 0 -21.0089 -21.0089 -0 2.08167e-17 -0 -0 423.874
590 1 -11 -33 0 -21.0089 -21.0089 -0 6.93889e-18 -0 -0 423.874
591 1 -10 -33 0 -21.0089 -21.0089 -0 -4.16334e-17 -0 -0 423.874
592 1 -9 -33 0 -21.0089 -21.0089 -0 -7.63278e-17 -0 -0 423.874
593 1 -8 -33 0 -21.0089 -21.0089 -0 -7.63278e-17 -0 -0 423.874
594 1 -7 -33 0 -21.0089 -21.0089 -0 -7.63278e-17 -0 -0 423.874
595 1 -6 -33 0 -21.0089 -21.0089 -0 -7.63278e-17 -0 -0 423.874
596 1 -5 -33 0 -21.0089 -21.0089 -0 -7.63278e-17 -0 -0 423.874
597 1 -4 -33 0 -21.0089 -21.0089 -0 -7.63278e-17 -0 -0 423.874
598 1 -3 -33 0 -21.0089 -21.0089 -0 -7.63278e-17 -0 -0 423.874
599 1 -2 -33 0 -21.0089 -21.0089 -0 -7.63278e-17 -0 -0 423.874
600 1 -1 -33 0 -21.0089 -21.0089 -0 -1.38778e-17 -0 -0 423.874
601 1 0 -33 0 -21.0089 -21.0089 -0 -2.08167e-17 -0 -0 423.874
602 1 1 -33 0 -21.0089 -21.0089 -0 -6.245e-17 -0 -0 423.874
603 1 2 -33 0 -21.0089 -21.0089 -0 6.93889e-18 -0 -0 423.874
604 1 3 -33 0 -21.0089 -21.0089 -0 3.46945e-17 -0 -0 423.874
605 1 4 -33 0 -21.0089 -21.0089 -0 -1.38778e-17 -0 -0 423.874
606 1 5 -33 0 -21.0089 -21.0089 -0 -2.08167e-17 -0 -0 423.874
607 1 6 -33 0 -21.0089 -21.0089 -0 6.93889e-18 -0 -0 423.874
608 1 7 -33 0 -21.0089 -21.0089 -0 -4.85723e-17 -0 -0 423.874
609 1 8 -33 0 -21.0089 -21.0089 -0 4.85723e-17 -0 -0 423.874
610 1 9 -33 0 -21.0089 -21.0089 -0 6.93889e-17 -0 -0 423.874
611 1 10 -33 0 -21.0089 -21.0089 -0 -2.08167e-17 -0 -0 423.874
612 1 11 -33 0 -21.0089 -21.0089 -0 6.93889e-18 -0 -0 423.874
613 1 12 -33 0 -21.0089 -21.0089 -0 -4.85723e-17 -0 -0 423.874
614 1 13 -33 0 -21.0089 -21.0089 -0 4.85723e-17 -0 -0 423.874
615 1 14 -33 0 -21.0089 -21.0089 -0 6.93889e-17 -0 -0 423.874
616 1 15 -33 0 -21.0089 -21.0089 -0 -5.55112e-17 -0 -0 423.874
617 1 16 -33 0 -21.0089 -21.0089 -0 -3.46945e-17 -0 -0 423.874
641 1 -40 -32 0 -21.0089 -21.0089 -0 -6.66134e-16 -0 -0 423.874
642 1 -39 -32 0 -21.0089 -21.0089 -0 -4.16334e-17 -0 -0 423.874
643 1 -38 -32 0 -21.0089 -21.0089 -0 -7.63278e-17 -0 -0 423.874
644 1 -37 -32 0 -21.0089 -21.0089 -0 -7.63278e-17 -0 -0 423.874
645 1 -36 -32 0 -21.0089 -21.0089 -0 -7.63278e-17 -0 -0 423.874
646 1 -35 -32 0 -21.0089 -21.0089 -0 -7.63278e-17 -0 -0 423.874
647 1 -34 -32 0 -21.0089 -21.0089 -0 -7.63278e-17 -0 -0 423.874
648 1 -33 -32 0 -21.0089 -21.0089 -0 -7.63278e-17 -0 -0 423.874
649 1 -32 -32 0 -21.0089 -21.0089 -0 -7.63278e-17 -0 -0 423.874
650 1 -31 -32 0 -21.0089 -21.0089 -0 -7.63278e-17 -0 -0 423.874
651 1 -30 -32 0 -21.0089 -21.0089 -0 -7.63278e-17 -0 -0 423.874
652 1 -29 -32 0 -21.0089 -21.0089 -0 -7.63278e-17 -0 -0 423.874
653 1 -28 -32 0 -21.0089 -21.0089 -0 -7.63278e-17 -0 -0 423.874
654 1 -27 -32 0 -21.0089 -21.0089 -0 -7.63278e-17 -0 -0 423.874
655 1 -26 -32 0 -21.0089 -21.0089 -0 -7.63278e-17 -0 -0 423.874
656 1 -25 -32 0 -21.0089 -21.0089 -0 -7.63278e-17 -0 -0 423.874
657 1 -24 -32 0 -21.0089 -21.0089 -0 -7.63278e-17 -0 -0 423.874
658 1 -23 -32 0 -21.0089 -21.0089 -0 -7.63278e-17 -0 -0 423.874
659 1 -22 -32 0 -21.0089 -21.0089 -0 -7.63278e-17 -0 -0 423.874
660 1 -21 -32 0 -21.0089 -21.0089 -0 -7.63278e-17 -0 -0 423.874
661 1 -20 -32 0 -21.0089 -21.0089 -0 -7.63278e-17 -0 -0 423.874