ITEM: TIMESTEP
0
ITEM: NUMBER OF ATOMS
665
ITEM: BOX BOUNDS xy xz yz pp pp pp
-1.0000000000000000e+01 1.0000000000000000e+01 0.0000000000000000e+00
-1.0000000000000000e+01 1.0000000000000000e+01 0.0000000000000000e+00
-1.0000000000000000e+01 1.0000000000000000e+01 0.0000000000000000e+00
ITEM: ATOMS id type x y z c_1[1] c_1[2] c_1[3] c_1[4] c_1[5] c_1[6] c_1[7] c_1[22]
1 2 -7.4 -9.25 -9.25 1.12266e+11 1.64817e+10 1.64817e+10 -1.68551e+09 -1.68551e+09 1.07214e+09 7.78805e+10 3.12516e+10
2 2 -3.7 -9.25 -9.25 1.38522e+11 3.10234e+10 3.10234e+10 7.60004e+09 7.60004e+09 2.51656e+08 4.34138e+11 6.24791e+10
3 2 0 -9.25 -9.25 6.88708e+10 3.29645e+10 3.29645e+10 -3.24454e-05 -3.30786e-05 -3.4107e+08 2.78925e+11 5.10813e+10
4 2 3.7 -9.25 -9.25 1.38522e+11 3.10234e+10 3.10234e+10 -7.60004e+09 -7.60004e+09 2.51656e+08 3.38946e+11 6.24791e+10
5 2 7.4 -9.25 -9.25 1.12266e+11 1.64817e+10 1.64817e+10 1.68551e+09 1.68551e+09 1.07214e+09 -1.73109e+10 3.12516e+10
6 2 -9.25 -7.4 -9.25 1.64817e+10 1.12266e+11 1.64817e+10 -1.68551e+09 1.07214e+09 -1.68551e+09 7.44353e+10 3.70933e+10
7 2 -5.55 -7.4 -9.25 5.20845e+10 4.07131e+10 6.59325e+09 7.94492e+09 3.53797e+09 -4.82573e+09 2.14826e+11 5.65294e+10
8 2 -7.4 -5.55 -9.25 4.07131e+10 5.20845e+10 6.59325e+09 7.94492e+09 -4.82573e+09 3.53797e+09 1.0285e+11 7.12288e+10
9 2 -1.85 -7.4 -9.25 1.19807e+10 3.7007e+10 9.58504e+09 -1.0929e-06 9.30747e-06 -5.93328e+09 1.51683e+11 3.63771e+10
10 2 -3.7 -5.55 -9.25 4.45404e+10 5.39219e+10 1.64593e+10 7.64336e-07 2.21475e+09 1.57743e+09 2.0072e+11 5.11035e+10
11 2 1.85 -7.4 -9.25 1.19807e+10 3.7007e+10 9.58504e+09 -1.65609e-05 1.47852e-05 -5.93328e+09 1.51683e+11 3.63771e+10
12 2 0 -5.55 -9.25 2.41931e+10 5.39219e+10 1.70309e+10 -7.47272e-07 -3.10903e-05 1.57743e+09 1.57789e+11 5.11035e+10
13 2 5.55 -7.4 -9.25 5.20845e+10 4.07131e+10 6.59325e+09 -7.94492e+09 -3.53797e+09 -4.82573e+09 1.63456e+11 5.65294e+10
14 2 3.7 -5.55 -9.25 4.45404e+10 5.39219e+10 1.64593e+10 1.27999e-07 -2.21475e+09 1.57743e+09 1.53125e+11 5.11035e+10
15 2 9.25 -7.4 -9.25 1.64817e+10 1.12266e+11 1.64817e+10 1.68551e+09 -1.07214e+09 -1.68551e+09 2.30654e+10 3.70933e+10
16 2 7.4 -5.55 -9.25 4.07131e+10 5.20845e+10 6.59325e+09 -7.94492e+09 4.82573e+09 3.53797e+09 5.52543e+10 7.12288e+10
17 2 -9.25 -3.7 -9.25 3.10234e+10 1.38522e+11 3.10234e+10 7.60004e+09 2.51656e+08 7.60004e+09 8.79973e+10 1.01482e+11
18 2 -5.55 -3.7 -9.25 5.39219e+10 4.45404e+10 1.64593e+10 2.16819e-07 1.57743e+09 2.21475e+09 2.06246e+11 7.31104e+10
19 2 -7.4 -1.85 -9.25 3.7007e+10 1.19807e+10 9.58504e+09 -9.10732e-07 -5.93328e+09 6.55879e-06 1.01392e+11 7.5483e+10
20 2 -1.85 -3.7 -9.25 2.41931e+10 4.45404e+10 1.89779e+10 6.31912e-07 7.95014e-06 2.21475e+09 1.57789e+11 6.48644e+10
21 2 -3.7 -1.85 -9.25 4.45404e+10 2.41931e+10 1.89779e+10 8.16279e-07 2.21475e+09 6.1945e-06 2.0072e+11 6.48644e+10
22 2 1.85 -3.7 -9.25 2.41931e+10 4.45404e+10 1.89779e+10 3.23885e-07 1.82208e-05 2.21475e+09 1.57789e+11 6.48644e+10
23 2 0 -1.85 -9.25 2.41931e+10 2.41931e+10 1.95496e+10 1.01134e-06 -3.00242e-05 6.55879e-06 1.57789e+11 6.48644e+10
24 2 5.55 -3.7 -9.25 5.39219e+10 4.45404e+10 1.64593e+10 -2.82722e-08 -1.57743e+09 2.21475e+09 1.58047e+11 7.31104e+10
25 2 3.7 -1.85 -9.25 4.45404e+10 2.41931e+10 1.89779e+10 7.99617e-07 -2.21475e+09 8.38026e-06 1.53125e+11 6.48644e+10
26 2 9.25 -3.7 -9.25 3.10234e+10 1.38522e+11 3.10234e+10 -7.60004e+09 -2.51656e+08 7.60004e+09 3.97987e+10 1.01482e+11
27 2 7.4 -1.85 -9.25 3.7007e+10 1.19807e+10 9.58504e+09 -2.50736e-07 5.93328e+09 5.83021e-06 5.37962e+10 7.5483e+10
28 2 -9.25 0 -9.25 3.29645e+10 6.88708e+10 3.29645e+10 -3.20578e-05 -3.4107e+08 -3.30714e-05 8.76816e+10 9.61007e+10
29 2 -5.55 0 -9.25 5.39219e+10 2.41931e+10 1.70309e+10 -5.08822e-07 1.57743e+09 -3.2753e-05 2.06246e+11 7.31104e+10
30 2 -7.4 1.85 -9.25 3.7007e+10 1.19807e+10 9.58504e+09 -1.45717e-05 -5.93328e+09 1.52181e-05 1.01392e+11 7.5483e+10
31 2 -1.85 0 -9.25 2.41931e+10 2.41931e+10 1.95496e+10 -3.8943e-07 8.00374e-06 -3.059e-05 1.57789e+11 6.48644e+10
32 2 -3.7 1.85 -9.25 4.45404e+10 2.41931e+10 1.89779e+10 -1.77877e-10 2.21475e+09 1.79047e-05 2.0072e+11 6.48644e+10
33 2 1.85 0 -9.25 2.41931e+10 2.41931e+10 1.95496e+10 1.53356e-07 1.75375e-05 -3.12913e-05 1.57789e+11 6.48644e+10
34 2 0 1.85 -9.25 2.41931e+10 2.41931e+10 1.95496e+10 5.11215e-09 -2.87194e-05 1.97262e-05 1.57789e+11 6.48644e+10
35 2 5.55 0 -9.25 5.39219e+10 2.41931e+10 1.70309e+10 1.18233e-06 -1.57743e+09 -3.14199e-05 1.58047e+11 7.31104e+10
36 2 3.7 1.85 -9.25 4.45404e+10 2.41931e+10 1.89779e+10 -2.41855e-07 -2.21475e+09 2.00905e-05 1.53125e+11 6.48644e+10
37 2 9.25 0 -9.25 3.29645e+10 6.88708e+10 3.29645e+10 3.06006e-05 3.4107e+08 -3.00631e-05 3.94831e+10 9.61007e+10
38 2 7.4 1.85 -9.25 3.7007e+10 1.19807e+10 9.58504e+09 1.55735e-05 5.93328e+09 1.71761e-05 5.37962e+10 7.5483e+10
39 2 -9.25 3.7 -9.25 3.10234e+10 1.38522e+11 3.10234e+10 -7.60004e+09 2.51656e+08 -7.60004e+09 8.76354e+10 9.53691e+10
40 2 -5.55 3.7 -9.25 5.39219e+10 4.45404e+10 1.64593e+10 -3.79388e-07 1.57743e+09 -2.21475e+09 2.06246e+11 7.31104e+10
41 2 -7.4 5.55 -9.25 4.07131e+10 5.20845e+10 6.59325e+09 -7.94492e+09 -4.82573e+09 -3.53797e+09 1.01149e+11 7.56384e+10
42 2 -1.85 3.7 -9.25 2.41931e+10 4.45404e+10 1.89779e+10 2.76591e-07 9.07553e-06 -2.21475e+09 1.57789e+11 6.48644e+10
43 2 -3.7 5.55 -9.25 4.45404e+10 5.39219e+10 1.64593e+10 -1.82146e-07 2.21475e+09 -1.57743e+09 2.0072e+11 6.68615e+10
44 2 1.85 3.7 -9.25 2.41931e+10 4.45404e+10 1.89779e+10 -1.48503e-06 1.90091e-05 -2.21475e+09 1.57789e+11 6.48644e+10
45 2 0 5.55 -9.25 2.41931e+10 5.39219e+10 1.70309e+10 1.98913e-06 -2.81724e-05 -1.57743e+09 1.57789e+11 6.68615e+10
46 2 5.55 3.7 -9.25 5.39219e+10 4.45404e+10 1.64593e+10 1.33451e-06 -1.57743e+09 -2.21475e+09 1.58047e+11 7.31104e+10
47 2 3.7 5.55 -9.25 4.45404e+10 5.39219e+10 1.64593e+10 1.3195e-06 -2.21475e+09 -1.57743e+09 1.53125e+11 6.68615e+10
48 2 9.25 3.7 -9.25 3.10234e+10 1.38522e+11 3.10234e+10 7.60004e+09 -2.51656e+08 -7.60004e+09 3.94369e+10 9.53691e+10
49 2 7.4 5.55 -9.25 4.07131e+10 5.20845e+10 6.59325e+09 7.94492e+09 4.82573e+09 -3.53797e+09 5.35536e+10 7.56384e+10
50 2 -9.25 7.4 -9.25 1.64817e+10 1.12266e+11 1.64817e+10 1.68551e+09 1.07214e+09 1.68551e+09 8.50911e+10 4.19982e+10
51 2 -5.55 7.4 -9.25 5.20845e+10 4.07131e+10 6.59325e+09 -7.94492e+09 3.53797e+09 4.82573e+09 2.08648e+11 5.03517e+10
52 2 -7.4 9.25 -9.25 1.12266e+11 1.64817e+10 1.64817e+10 1.68551e+09 -1.68551e+09 -1.07214e+09 1.68745e+11 6.42708e+10
53 2 -1.85 7.4 -9.25 1.19807e+10 3.7007e+10 9.58504e+09 1.13841e-06 7.37769e-06 5.93328e+09 1.59251e+11 4.39449e+10
54 2 -3.7 9.25 -9.25 1.38522e+11 3.10234e+10 3.10234e+10 -7.60004e+09 7.60004e+09 -2.51656e+08 3.65171e+11 7.32263e+10
55 2 1.85 7.4 -9.25 1.19807e+10 3.7007e+10 9.58504e+09 1.42074e-05 1.60833e-05 5.93328e+09 1.59251e+11 4.39449e+10
56 2 0 9.25 -9.25 6.88708e+10 3.29645e+10 3.29645e+10 3.34758e-05 -3.35324e-05 3.4107e+08 2.86493e+11 7.4407e+10
57 2 5.55 7.4 -9.25 5.20845e+10 4.07131e+10 6.59325e+09 7.94492e+09 -3.53797e+09 4.82573e+09 1.57278e+11 5.03517e+10
58 2 3.7 9.25 -9.25 1.38522e+11 3.10234e+10 3.10234e+10 7.60004e+09 -7.60004e+09 -2.51656e+08 2.6998e+11 7.32263e+10
59 2 9.25 7.4 -9.25 1.64817e+10 1.12266e+11 1.64817e+10 -1.68551e+09 -1.07214e+09 1.68551e+09 3.37212e+10 4.19982e+10
60 2 7.4 9.25 -9.25 1.12266e+11 1.64817e+10 1.64817e+10 -1.68551e+09 1.68551e+09 -1.07214e+09 7.35532e+10 6.42708e+10
61 2 -9.25 -9.25 -7.4 1.64817e+10 1.64817e+10 1.12266e+11 1.07214e+09 -1.68551e+09 -1.68551e+09 9.36265e+10 4.10896e+10
62 2 -5.55 -9.25 -7.4 5.20845e+10 6.59325e+09 4.07131e+10 3.53797e+09 7.94492e+09 -4.82573e+09 2.0658e+11 2.99342e+10
63 2 -7.4 -9.25 -5.55 4.07131e+10 6.59325e+09 5.20845e+10 -4.82573e+09 7.94492e+09 3.53797e+09 9.33897e+10 2.17847e+10
64 2 -1.85 -9.25 -7.4 1.19807e+10 9.58504e+09 3.7007e+10 8.28766e-06 3.69985e-09 -5.93328e+09 1.51683e+11 2.61684e+10
65 2 -3.7 -9.25 -5.55 4.45404e+10 1.64593e+10 5.39219e+10 2.21475e+09 -1.10187e-06 1.57743e+09 2.0072e+11 3.04445e+10
66 2 1.85 -9.25 -7.4 1.19807e+10 9.58504e+09 3.7007e+10 1.52092e-05 -1.51181e-05 -5.93328e+09 1.51683e+11 2.61684e+10
67 2 0 -9.25 -5.55 2.41931e+10 1.70309e+10 5.39219e+10 -3.05006e-05 9.77986e-07 1.57743e+09 1.57789e+11 2.72998e+10
68 2 5.55 -9.25 -7.4 5.20845e+10 6.59325e+09 4.07131e+10 -3.53797e+09 -7.94492e+09 -4.82573e+09 1.5521e+11 2.99342e+10
69 2 3.7 -9.25 -5.55 4.45404e+10 1.64593e+10 5.39219e+10 -2.21475e+09 8.03183e-08 1.57743e+09 1.53125e+11 3.04445e+10
70 2 9.25 -9.25 -7.4 1.64817e+10 1.64817e+10 1.12266e+11 -1.07214e+09 1.68551e+09 -1.68551e+09 4.22567e+10 4.10896e+10
71 2 7.4 -9.25 -5.55 4.07131e+10 6.59325e+09 5.20845e+10 4.82573e+09 -7.94492e+09 3.53797e+09 4.5794e+10 2.17847e+10
72 2 -9.25 -5.55 -7.4 6.59325e+09 5.20845e+10 4.07131e+10 3.53797e+09 -4.82573e+09 7.94492e+09 7.30429e+10 6.76851e+10
73 2 -9.25 -7.4 -5.55 6.59325e+09 4.07131e+10 5.20845e+10 -4.82573e+09 3.53797e+09 7.94492e+09 7.58576e+10 4.16346e+10
74 2 -7.4 -7.4 -7.4 4.11544e+09 4.11544e+09 4.11544e+09 5.98937e+09 5.98937e+09 5.98937e+09 9.03924e+10 3.44863e+10
75 2 -5.55 -5.55 -7.4 8.74576e+09 8.74576e+09 7.87241e+09 -5.22342e-08 2.46428e+09 2.46428e+09 1.00652e+11 2.80795e+10
76 2 -5.55 -7.4 -5.55 8.74576e+09 7.87241e+09 8.74576e+09 2.46428e+09 -1.11823e-07 2.46428e+09 1.00652e+11 2.53781e+10
77 2 -7.4 -5.55 -5.55 7.87241e+09 8.74576e+09 8.74576e+09 2.46428e+09 2.46428e+09 -1.46654e-07 6.55359e+10 3.36773e+10
78 2 -3.7 -7.4 -7.4 -5.09253e+09 4.47418e+09 4.47418e+09 1.62681e-06 2.00361e-06 4.67801e+09 9.48483e+10 1.53972e+10
79 2 -1.85 -5.55 -7.4 -5.51431e+09 8.74576e+09 6.73095e+09 6.45811e-07 -5.46439e-07 2.46428e+09 8.571e+10 2.80795e+10
80 2 -1.85 -7.4 -5.55 -5.51431e+09 6.73095e+09 8.74576e+09 -1.82146e-07 5.88179e-07 2.46428e+09 8.571e+10 2.19418e+10
81 2 -3.7 -5.55 -5.55 5.95015e+09 1.10576e+10 1.10576e+10 -7.12384e-09 1.80508e-08 -1.13808e-07 1.0037e+11 3.08402e+10
82 2 0 -7.4 -7.4 -1.10356e+10 4.47418e+09 4.47418e+09 3.11518e-07 3.8298e-08 4.67801e+09 8.29493e+10 1.53972e+10
83 2 1.85 -5.55 -7.4 -5.51431e+09 8.74576e+09 6.73095e+09 -1.52666e-08 -6.28405e-06 2.46428e+09 8.571e+10 2.80795e+10
84 2 1.85 -7.4 -5.55 -5.51431e+09 6.73095e+09 8.74576e+09 -6.28405e-06 -9.12202e-08 2.46428e+09 8.571e+10 2.19418e+10
85 2 0 -5.55 -5.55 7.03291e+06 1.10576e+10 1.10576e+10 2.29693e-07 2.54867e-07 -1.63876e-07 8.84707e+10 3.08402e+10
86 2 3.7 -7.4 -7.4 -5.09253e+09 4.47418e+09 4.47418e+09 -4.2936e-06 -4.55366e-06 4.67801e+09 7.10504e+10 1.53972e+10
87 2 5.55 -5.55 -7.4 8.74576e+09 8.74576e+09 7.87241e+09 1.25249e-08 -2.46428e+09 2.46428e+09 7.19262e+10 2.23651e+10
88 2 5.55 -7.4 -5.55 8.74576e+09 7.87241e+09 8.74576e+09 -2.46428e+09 -7.85483e-08 2.46428e+09 7.19262e+10 2.53781e+10
89 2 3.7 -5.55 -5.55 5.95015e+09 1.10576e+10 1.10576e+10 -7.37248e-07 -7.2463e-07 -1.38795e-07 7.65717e+10 3.08402e+10
90 2 7.4 -7.4 -7.4 4.11544e+09 4.11544e+09 4.11544e+09 -5.98937e+09 -5.98937e+09 5.98937e+09 3.26858e+10 1.75319e+10
91 2 9.25 -5.55 -7.4 6.59325e+09 5.20845e+10 4.07131e+10 -3.53797e+09 4.82573e+09 7.94492e+09 3.87913e+10 5.64451e+10
92 2 9.25 -7.4 -5.55 6.59325e+09 4.07131e+10 5.20845e+10 4.82573e+09 -3.53797e+09 7.94492e+09 4.1606e+10 4.16346e+10
93 2 7.4 -5.55 -5.55 7.87241e+09 8.74576e+09 8.74576e+09 -2.46428e+09 -2.46428e+09 -1.71524e-07 4.1738e+10 3.36773e+10
94 2 -9.25 -1.85 -7.4 9.58504e+09 1.19807e+10 3.7007e+10 1.02002e-05 -5.93328e+09 -1.09288e-06 7.39801e+10 7.51831e+10
95 2 -9.25 -3.7 -5.55 1.64593e+10 4.45404e+10 5.39219e+10 2.21475e+09 1.57743e+09 -2.62116e-07 8.00815e+10 7.02955e+10
96 2 -7.4 -3.7 -7.4 4.47418e+09 -5.09253e+09 4.47418e+09 1.91254e-06 4.67801e+09 2.82327e-06 8.81127e+10 4.62263e+10
97 2 -5.55 -1.85 -7.4 8.74576e+09 -5.51431e+09 6.73095e+09 4.9924e-07 2.46428e+09 -3.64293e-07 1.00652e+11 3.3828e+10
98 2 -5.55 -3.7 -5.55 1.10576e+10 5.95015e+09 1.10576e+10 -4.43842e-08 -9.5845e-08 -6.41285e-08 9.91837e+10 3.65887e+10
99 2 -7.4 -1.85 -5.55 6.73095e+09 -5.51431e+09 8.74576e+09 -2.7322e-07 2.46428e+09 4.9516e-07 6.51107e+10 3.65887e+10
100 2 -3.7 -3.7 -7.4 4.28808e+08 4.28808e+08 5.58948e+09 1.26293e-08 2.00361e-06 2.91434e-06 9.76089e+10 3.3828e+10
101 2 -1.85 -1.85 -7.4 -5.51431e+09 -5.51431e+09 5.58948e+09 -3.54626e-07 -2.7322e-07 -3.64293e-07 8.571e+10 3.3828e+10
102 2 -1.85 -3.7 -5.55 7.03291e+06 5.95015e+09 1.10576e+10 5.00762e-08 5.29688e-07 -6.41594e-08 8.84707e+10 3.65887e+10
103 2 -3.7 -1.85 -5.55 5.95015e+09 7.03291e+06 1.10576e+10 8.76935e-08 9.64947e-08 4.15974e-07 1.0037e+11 3.65887e+10
104 2 0 -3.7 -7.4 -5.51431e+09 4.28808e+08 5.58948e+09 -3.76173e-08 1.01505e-06 2.82327e-06 8.571e+10 3.3828e+10
105 2 1.85 -1.85 -7.4 -5.51431e+09 -5.51431e+09 5.58948e+09 1.49109e-08 -6.28405e-06 -3.64293e-07 8.571e+10 3.3828e+10
106 2 1.85 -3.7 -5.55 7.03291e+06 5.95015e+09 1.10576e+10 8.95575e-08 -8.14678e-08 -8.92092e-08 8.84707e+10 3.65887e+10
107 2 0 -1.85 -5.55 7.03291e+06 7.03291e+06 1.10576e+10 -2.19187e-07 2.86707e-07 4.94448e-07 8.84707e+10 3.65887e+10
108 2 3.7 -3.7 -7.4 4.28808e+08 4.28808e+08 5.58948e+09 -2.6786e-08 -3.91615e-06 2.82327e-06 7.38111e+10 3.3828e+10
109 2 5.55 -1.85 -7.4 8.74576e+09 -5.51431e+09 6.73095e+09 7.85483e-08 -2.46428e+09 -3.64293e-07 7.19262e+10 2.81136e+10
110 2 5.55 -3.7 -5.55 1.10576e+10 5.95015e+09 1.10576e+10 -0 -7.85483e-08 -6.41594e-08 7.20433e+10 3.65887e+10
111 2 3.7 -1.85 -5.55 5.95015e+09 7.03291e+06 1.10576e+10 6.03004e-08 -7.62235e-07 5.069e-07 7.65717e+10 3.65887e+10
112 2 7.4 -3.7 -7.4 4.47418e+09 -5.09253e+09 4.47418e+09 -2.27722e-06 -4.67801e+09 2.82327e-06 3.07868e+10 2.92719e+10
113 2 9.25 -1.85 -7.4 9.58504e+09 1.19807e+10 3.7007e+10 -1.02002e-05 5.93328e+09 -1.91254e-06 3.97285e+10 6.39431e+10
114 2 9.25 -3.7 -5.55 1.64593e+10 4.45404e+10 5.39219e+10 -2.21475e+09 -1.57743e+09 -1.07359e-06 4.77963e+10 7.02955e+10
115 2 7.4 -1.85 -5.55 6.73095e+09 -5.51431e+09 8.74576e+09 -2.23775e-06 -2.46428e+09 5.73782e-07 4.13129e+10 3.65887e+10
116 2 -9.25 1.85 -7.4 9.58504e+09 1.19807e+10 3.7007e+10 2.1129e-05 -5.93328e+09 -1.32019e-05 7.39801e+10 7.51831e+10
117 2 -9.25 0 -5.55 1.70309e+10 2.41931e+10 5.39219e+10 -3.27863e-05 1.57743e+09 6.52115e-07 7.99911e+10 6.87673e+10
118 2 -7.4 0 -7.4 4.47418e+09 -1.10356e+10 4.47418e+09 -1.46383e-09 4.67801e+09 -1.70362e-07 8.81127e+10 4.62263e+10
119 2 -5.55 1.85 -7.4 8.74576e+09 -5.51431e+09 6.73095e+09 3.66427e-08 2.46428e+09 -6.19298e-06 1.00652e+11 3.3828e+10
120 2 -5.55 0 -5.55 1.10576e+10 7.03291e+06 1.10576e+10 1.60026e-07 1.12063e-08 3.03113e-07 9.91837e+10 3.65887e+10
121 2 -7.4 1.85 -5.55 6.73095e+09 -5.51431e+09 8.74576e+09 -5.73761e-06 2.46428e+09 -8.90857e-08 6.51107e+10 3.65887e+10
122 2 -3.7 0 -7.4 4.28808e+08 -5.51431e+09 5.58948e+09 1.37062e-10 2.7322e-06 1.19574e-06 9.76089e+10 3.3828e+10
123 2 -1.85 1.85 -7.4 -5.51431e+09 -5.51431e+09 5.58948e+09 -7.6843e-08 -2.60695e-07 -6.19298e-06 8.571e+10 3.3828e+10
124 2 -1.85 0 -5.55 7.03291e+06 7.03291e+06 1.10576e+10 -1.65238e-07 4.19435e-07 3.03082e-07 8.84707e+10 3.65887e+10
125 2 -3.7 1.85 -5.55 5.95015e+09 7.03291e+06 1.10576e+10 1.77877e-10 9.64947e-08 -3.41524e-08 1.0037e+11 3.65887e+10
126 2 0 0 -7.4 -5.51431e+09 -5.51431e+09 5.58948e+09 -2.29356e-07 6.63285e-07 1.1972e-06 8.571e+10 3.3828e+10
127 2 1.85 1.85 -7.4 -5.51431e+09 -5.51431e+09 5.58948e+09 5.22959e-08 -6.29658e-06 -6.19298e-06 8.571e+10 3.3828e+10
128 2 1.85 0 -5.55 7.03291e+06 7.03291e+06 1.10576e+10 9.11875e-08 3.55755e-10 2.65507e-07 8.84707e+10 3.65887e+10
129 2 0 1.85 -5.55 7.03291e+06 7.03291e+06 1.10576e+10 -2.41677e-09 2.73974e-07 -5.69207e-09 8.84707e+10 3.65887e+10
130 2 3.7 0 -7.4 4.28808e+08 -5.51431e+09 5.58948e+09 1.52621e-07 -3.91615e-06 1.1972e-06 7.38111e+10 3.3828e+10
131 2 5.55 1.85 -7.4 8.74576e+09 -5.51431e+09 6.73095e+09 -1.03598e-07 -2.46428e+09 -6.19298e-06 7.19262e+10 2.81136e+10
132 2 5.55 0 -5.55 1.10576e+10 7.03291e+06 1.10576e+10 -1.43108e-07 -0 3.15429e-07 7.20433e+10 3.65887e+10
133 2 3.7 1.85 -5.55 5.95015e+09 7.03291e+06 1.10576e+10 -1.02457e-07 -7.62235e-07 6.93722e-09 7.65717e+10 3.65887e+10
134 2 7.4 0 -7.4 4.47418e+09 -1.10356e+10 4.47418e+09 1.53545e-07 -4.67801e+09 -7.78251e-08 3.07868e+10 2.92719e+10
135 2 9.25 1.85 -7.4 9.58504e+09 1.19807e+10 3.7007e+10 -1.45717e-05 5.93328e+09 -1.5752e-05 3.97285e+10 6.39431e+10
136 2 9.25 0 -5.55 1.70309e+10 2.41931e+10 5.39219e+10 3.13292e-05 -1.57743e+09 8.23079e-07 4.77058e+10 6.87673e+10
137 2 7.4 1.85 -5.55 6.73095e+09 -5.51431e+09 8.74576e+09 5.52823e-06 -2.46428e+09 -1.06726e-08 4.13129e+10 3.65887e+10
138 2 -9.25 5.55 -7.4 6.59325e+09 5.20845e+10 4.07131e+10 -3.53797e+09 -4.82573e+09 -7.94492e+09 7.50988e+10 8.36172e+10
139 2 -9.25 3.7 -5.55 1.64593e+10 4.45404e+10 5.39219e+10 -2.21475e+09 1.57743e+09 1.05408e-06 7.99006e+10 6.72391e+10
140 2 -7.4 3.7 -7.4 4.47418e+09 -5.09253e+09 4.47418e+09 -3.65545e-06 4.67801e+09 -4.38404e-06 8.81127e+10 4.62263e+10
141 2 -5.55 5.55 -7.4 8.74576e+09 8.74576e+09 7.87241e+09 -1.03598e-07 2.46428e+09 -2.46428e+09 1.00652e+11 3.95765e+10
142 2 -5.55 3.7 -5.55 1.10576e+10 5.95015e+09 1.10576e+10 -7.05044e-07 -1.38744e-08 -6.39353e-07 9.91837e+10 3.65887e+10
143 2 -7.4 5.55 -5.55 7.87241e+09 8.74576e+09 8.74576e+09 -2.46428e+09 2.46428e+09 9.10732e-08 6.46855e+10 3.95e+10
144 2 -3.7 3.7 -7.4 4.28808e+08 4.28808e+08 5.58948e+09 1.0436e-10 2.7322e-06 -3.8376e-06 9.76089e+10 3.3828e+10
145 2 -1.85 5.55 -7.4 -5.51431e+09 8.74576e+09 6.73095e+09 1.94671e-07 -3.51768e-07 -2.46428e+09 8.571e+10 3.95765e+10
146 2 -1.85 3.7 -5.55 7.03291e+06 5.95015e+09 1.10576e+10 1.0453e-07 4.19435e-07 -6.39279e-07 8.84707e+10 3.65887e+10
147 2 -3.7 5.55 -5.55 5.95015e+09 1.10576e+10 1.10576e+10 -0 1.08946e-07 1.16123e-07 1.0037e+11 4.23371e+10
148 2 0 3.7 -7.4 -5.51431e+09 4.28808e+08 5.58948e+09 1.00041e-07 1.02758e-06 -3.55185e-06 8.571e+10 3.3828e+10
149 2 1.85 5.55 -7.4 -5.51431e+09 8.74576e+09 6.73095e+09 1.82146e-07 -6.29658e-06 -2.46428e+09 8.571e+10 3.95765e+10
150 2 1.85 3.7 -5.55 7.03291e+06 5.95015e+09 1.10576e+10 -1.77877e-10 1.2985e-08 -6.76854e-07 8.84707e+10 3.65887e+10
151 2 0 5.55 -5.55 7.03291e+06 1.10576e+10 1.10576e+10 9.26361e-08 2.86603e-07 -0 8.84707e+10 4.23371e+10
152 2 3.7 3.7 -7.4 4.28808e+08 4.28808e+08 5.58948e+09 -2.29771e-08 -3.91615e-06 -3.55185e-06 7.38111e+10 3.3828e+10
153 2 5.55 5.55 -7.4 8.74576e+09 8.74576e+09 7.87241e+09 -1.82146e-07 -2.46428e+09 -2.46428e+09 7.19262e+10 3.38621e+10
154 2 5.55 3.7 -5.55 1.10576e+10 5.95015e+09 1.10576e+10 3.37182e-07 -0 -6.26932e-07 7.20433e+10 3.65887e+10
155 2 3.7 5.55 -5.55 5.95015e+09 1.10576e+10 1.10576e+10 4.27485e-07 -7.49784e-07 -9.10732e-08 7.65717e+10 4.23371e+10
156 2 7.4 3.7 -7.4 4.47418e+09 -5.09253e+09 4.47418e+09 4.16897e-06 -4.67801e+09 -4.18937e-06 3.07868e+10 2.92719e+10
157 2 9.25 5.55 -7.4 6.59325e+09 5.20845e+10 4.07131e+10 3.53797e+09 4.82573e+09 -7.94492e+09 4.08472e+10 7.23772e+10
158 2 9.25 3.7 -5.55 1.64593e+10 4.45404e+10 5.39219e+10 2.21475e+09 -1.57743e+09 -5.2242e-07 4.76154e+10 6.72391e+10
159 2 7.4 5.55 -5.55 7.87241e+09 8.74576e+09 8.74576e+09 2.46428e+09 -2.46428e+09 9.10732e-08 4.08877e+10 3.95e+10
160 2 -9.25 9.25 -7.4 1.64817e+10 1.64817e+10 1.12266e+11 -1.07214e+09 -1.68551e+09 1.68551e+09 1.36009e+11 6.36494e+10
161 2 -9.25 7.4 -5.55 6.59325e+09 4.07131e+10 5.20845e+10 4.82573e+09 3.53797e+09 -7.94492e+09 8.20543e+10 4.49558e+10
162 2 -7.4 7.4 -7.4 4.11544e+09 4.11544e+09 4.11544e+09 -5.98937e+09 5.98937e+09 -5.98937e+09 9.31531e+10 3.88493e+10
163 2 -5.55 9.25 -7.4 5.20845e+10 6.59325e+09 4.07131e+10 -3.53797e+09 7.94492e+09 4.82573e+09 1.74729e+11 4.32784e+10
164 2 -5.55 7.4 -5.55 8.74576e+09 7.87241e+09 8.74576e+09 -2.46428e+09 -6.26128e-08 -2.46428e+09 9.93008e+10 2.40267e+10
165 2 -7.4 9.25 -5.55 4.07131e+10 6.59325e+09 5.20845e+10 4.82573e+09 7.94492e+09 -3.53797e+09 1.39917e+11 4.46101e+10
166 2 -3.7 7.4 -7.4 -5.09253e+09 4.47418e+09 4.47418e+09 -2.52504e-06 2.3679e-06 -4.67801e+09 9.76089e+10 2.09186e+10
167 2 -1.85 9.25 -7.4 1.19807e+10 9.58504e+09 3.7007e+10 -8.92517e-06 -1.54824e-06 5.93328e+09 1.54443e+11 4.0426e+10
168 2 -1.85 7.4 -5.55 -5.51431e+09 6.73095e+09 8.74576e+09 -1.09288e-06 4.52876e-07 -2.46428e+09 9.12313e+10 2.74631e+10
169 2 -3.7 9.25 -5.55 4.45404e+10 1.64593e+10 5.39219e+10 -2.21475e+09 -5.53649e-07 -1.57743e+09 1.67975e+11 4.39341e+10
170 2 0 7.4 -7.4 -1.10356e+10 4.47418e+09 4.47418e+09 5.67937e-07 1.13314e-07 -4.67801e+09 8.571e+10 2.09186e+10
171 2 1.85 9.25 -7.4 1.19807e+10 9.58504e+09 3.7007e+10 -1.612e-05 -1.4936e-05 5.93328e+09 1.54443e+11 4.0426e+10
172 2 1.85 7.4 -5.55 -5.51431e+09 6.73095e+09 8.74576e+09 5.84053e-06 -3.771e-08 -2.46428e+09 9.12313e+10 2.74631e+10
173 2 0 9.25 -5.55 2.41931e+10 1.70309e+10 5.39219e+10 2.91405e-05 7.21398e-07 -1.57743e+09 1.6331e+11 4.70788e+10
174 2 3.7 7.4 -7.4 -5.09253e+09 4.47418e+09 4.47418e+09 4.46685e-06 -4.43134e-06 -4.67801e+09 7.38111e+10 2.09186e+10
175 2 5.55 9.25 -7.4 5.20845e+10 6.59325e+09 4.07131e+10 3.53797e+09 -7.94492e+09 4.82573e+09 1.17644e+11 3.7564e+10
176 2 5.55 7.4 -5.55 8.74576e+09 7.87241e+09 8.74576e+09 2.46428e+09 9.10732e-08 -2.46428e+09 7.05748e+10 2.40267e+10
177 2 3.7 9.25 -5.55 4.45404e+10 1.64593e+10 5.39219e+10 2.21475e+09 8.74682e-08 -1.57743e+09 1.20379e+11 4.39341e+10
178 2 7.4 7.4 -7.4 4.11544e+09 4.11544e+09 4.11544e+09 5.98937e+09 -5.98937e+09 -5.98937e+09 2.66982e+10 1.31467e+10
179 2 9.25 9.25 -7.4 1.64817e+10 1.64817e+10 1.12266e+11 1.07214e+09 1.68551e+09 1.68551e+09 6.74116e+10 4.64219e+10
180 2 9.25 7.4 -5.55 6.59325e+09 4.07131e+10 5.20845e+10 -4.82573e+09 -3.53797e+09 -7.94492e+09 4.78026e+10 4.49558e+10
181 2 7.4 9.25 -5.55 4.07131e+10 6.59325e+09 5.20845e+10 -4.82573e+09 -7.94492e+09 -3.53797e+09 9.23216e+10 4.46101e+10
182 2 -9.25 -9.25 -3.7 3.10234e+10 3.10234e+10 1.38522e+11 2.51656e+08 7.60004e+09 7.60004e+09 1.08518e+11 4.91253e+10
183 2 -5.55 -9.25 -3.7 5.39219e+10 1.64593e+10 4.45404e+10 1.57743e+09 6.37512e-07 2.21475e+09 1.98e+11 3.12876e+10
184 2 -7.4 -9.25 -1.85 3.7007e+10 9.58504e+09 1.19807e+10 -5.93328e+09 1.45717e-06 1.02002e-05 9.19316e+10 2.18219e+10
185 2 -1.85 -9.25 -3.7 2.41931e+10 1.89779e+10 4.45404e+10 9.58359e-06 -1.67276e-06 2.21475e+09 1.57789e+11 3.10272e+10
186 2 -3.7 -9.25 -1.85 4.45404e+10 1.89779e+10 2.41931e+10 2.21475e+09 6.1306e-07 8.74303e-06 2.0072e+11 3.14112e+10
187 2 1.85 -9.25 -3.7 2.41931e+10 1.89779e+10 4.45404e+10 1.96653e-05 5.6889e-07 2.21475e+09 1.57789e+11 3.10272e+10
188 2 0 -9.25 -1.85 2.41931e+10 1.95496e+10 2.41931e+10 -3.10966e-05 -2.83934e-08 1.16574e-05 1.57789e+11 2.82665e+10
189 2 5.55 -9.25 -3.7 5.39219e+10 1.64593e+10 4.45404e+10 -1.57743e+09 8.19659e-07 2.21475e+09 1.49801e+11 3.12876e+10
190 2 3.7 -9.25 -1.85 4.45404e+10 1.89779e+10 2.41931e+10 -2.21475e+09 -1.8631e-07 7.28586e-06 1.53125e+11 3.14112e+10
191 2 9.25 -9.25 -3.7 3.10234e+10 3.10234e+10 1.38522e+11 -2.51656e+08 -7.60004e+09 7.60004e+09 6.03196e+10 4.91253e+10
192 2 7.4 -9.25 -1.85 3.7007e+10 9.58504e+09 1.19807e+10 5.93328e+09 -2.18576e-06 7.28586e-06 4.43359e+10 2.18219e+10
193 2 -9.25 -5.55 -3.7 1.64593e+10 5.39219e+10 4.45404e+10 1.57743e+09 2.21475e+09 4.55366e-07 7.99984e+10 7.06051e+10
194 2 -9.25 -7.4 -1.85 9.58504e+09 3.7007e+10 1.19807e+10 -5.93328e+09 1.02002e-05 -0 7.67117e+10 4.05705e+10
195 2 -7.4 -7.4 -3.7 4.47418e+09 4.47418e+09 -5.09253e+09 4.67801e+09 1.73039e-06 1.63932e-06 8.81127e+10 3.52872e+10
196 2 -5.55 -5.55 -3.7 1.10576e+10 1.10576e+10 5.95015e+09 -5.22342e-08 -6.57294e-08 5.79458e-08 9.91837e+10 3.08402e+10
197 2 -5.55 -7.4 -1.85 8.74576e+09 6.73095e+09 -5.51431e+09 2.46428e+09 3.87595e-07 -0 1.00652e+11 2.53781e+10
198 2 -7.4 -5.55 -1.85 6.73095e+09 8.74576e+09 -5.51431e+09 2.46428e+09 2.7322e-07 4.04796e-07 6.51107e+10 3.36773e+10
199 2 -3.7 -7.4 -3.7 4.28808e+08 5.58948e+09 4.28808e+08 1.99045e-06 1.24514e-08 1.54824e-06 9.76089e+10 1.91811e+10
200 2 -1.85 -5.55 -3.7 7.03291e+06 1.10576e+10 5.95015e+09 6.45811e-07 5.02541e-08 5.79885e-08 8.84707e+10 3.08402e+10
201 2 -1.85 -7.4 -1.85 -5.51431e+09 5.58948e+09 -5.51431e+09 -2.55906e-07 -3.0506e-07 -0 8.571e+10 2.19418e+10
202 2 -3.7 -5.55 -1.85 5.95015e+09 1.10576e+10 7.03291e+06 9.64947e-08 8.76935e-08 3.58339e-07 1.0037e+11 3.08402e+10
203 2 0 -7.4 -3.7 -5.51431e+09 5.58948e+09 4.28808e+08 1.01505e-06 -3.77952e-08 1.54824e-06 8.571e+10 1.91811e+10
204 2 1.85 -5.55 -3.7 7.03291e+06 1.10576e+10 5.95015e+09 -1.52666e-08 8.99132e-08 3.29386e-08 8.84707e+10 3.08402e+10
205 2 1.85 -7.4 -1.85 -5.51431e+09 5.58948e+09 -5.51431e+09 -6.64774e-06 6.54589e-08 -0 8.571e+10 2.19418e+10
206 2 0 -5.55 -1.85 7.03291e+06 1.10576e+10 7.03291e+06 3.7775e-07 -2.18832e-07 3.20891e-07 8.84707e+10 3.08402e+10
207 2 3.7 -7.4 -3.7 4.28808e+08 5.58948e+09 4.28808e+08 -3.56436e-06 -2.68595e-08 1.54824e-06 7.38111e+10 1.91811e+10
208 2 5.55 -5.55 -3.7 1.10576e+10 1.10576e+10 5.95015e+09 -7.85483e-08 -0 7.06178e-08 7.20433e+10 2.51258e+10
209 2 5.55 -7.4 -1.85 8.74576e+09 6.73095e+09 -5.51431e+09 -2.46428e+09 -0 -0 7.19262e+10 2.53781e+10
210 2 3.7 -5.55 -1.85 5.95015e+09 1.10576e+10 7.03291e+06 -6.58711e-07 6.03004e-08 3.33342e-07 7.65717e+10 3.08402e+10
211 2 7.4 -7.4 -3.7 4.47418e+09 4.47418e+09 -5.09253e+09 -4.67801e+09 -2.65404e-06 1.54824e-06 3.07868e+10 1.87136e+10
212 2 9.25 -5.55 -3.7 1.64593e+10 5.39219e+10 4.45404e+10 -1.57743e+09 -2.21475e+09 1.27502e-06 4.77132e+10 5.97459e+10
213 2 9.25 -7.4 -1.85 9.58504e+09 3.7007e+10 1.19807e+10 5.93328e+09 -8.74303e-06 -1.45717e-06 4.24601e+10 4.05705e+10
214 2 7.4 -5.55 -1.85 6.73095e+09 8.74576e+09 -5.51431e+09 -2.46428e+09 -1.50916e-06 4.45938e-07 4.13129e+10 3.36773e+10
215 2 -9.25 -1.85 -3.7 1.89779e+10 2.41931e+10 4.45404e+10 9.47161e-06 2.21475e+09 -2.74489e-07 8.10367e+10 7.90305e+10
216 2 -9.25 -3.7 -1.85 1.89779e+10 4.45404e+10 2.41931e+10 2.21475e+09 7.28586e-06 3.16266e-07 8.10367e+10 6.96994e+10
217 2 -7.4 -3.7 -3.7 5.58948e+09 4.28808e+08 4.28808e+08 1.91254e-06 1.73039e-06 -1.89261e-07 8.6404e+10 4.74479e+10
218 2 -5.55 -1.85 -3.7 1.10576e+10 7.03291e+06 5.95015e+09 4.08167e-07 -1.22192e-08 -5.14917e-08 9.91837e+10 3.65887e+10
219 2 -5.55 -3.7 -1.85 1.10576e+10 5.95015e+09 7.03291e+06 2.42765e-08 3.7867e-07 8.85829e-08 9.91837e+10 3.65887e+10
220 2 -7.4 -1.85 -1.85 5.58948e+09 -5.51431e+09 -5.51431e+09 -5.29784e-07 -2.7322e-07 -3.17689e-07 6.46855e+10 3.65887e+10
221 2 -3.7 -3.7 -3.7 5.95015e+09 5.95015e+09 5.95015e+09 1.26293e-08 1.24514e-08 -1.89261e-07 1.0037e+11 3.65887e+10
222 2 -1.85 -1.85 -3.7 7.03291e+06 7.03291e+06 5.95015e+09 -2.54481e-07 5.01071e-08 -5.14917e-08 8.84707e+10 3.65887e+10
223 2 -1.85 -3.7 -1.85 7.03291e+06 5.95015e+09 7.03291e+06 4.98983e-08 -2.54867e-07 8.85829e-08 8.84707e+10 3.65887e+10
224 2 -3.7 -1.85 -1.85 5.95015e+09 7.03291e+06 7.03291e+06 -1.24514e-08 -1.24514e-08 -2.55076e-07 1.0037e+11 3.65887e+10
225 2 0 -3.7 -3.7 7.03291e+06 5.95015e+09 5.95015e+09 -3.75865e-08 -3.77643e-08 -1.89617e-07 8.84707e+10 3.65887e+10
226 2 1.85 -1.85 -3.7 7.03291e+06 7.03291e+06 5.95015e+09 1.49109e-08 8.97045e-08 -5.18475e-08 8.84707e+10 3.65887e+10
227 2 1.85 -3.7 -1.85 7.03291e+06 5.95015e+09 7.03291e+06 8.97353e-08 1.52666e-08 8.8405e-08 8.84707e+10 3.65887e+10
228 2 0 -1.85 -1.85 7.03291e+06 7.03291e+06 7.03291e+06 -1.19085e-07 -1.19012e-07 -2.55076e-07 8.84707e+10 3.65887e+10
229 2 3.7 -3.7 -3.7 5.95015e+09 5.95015e+09 5.95015e+09 -3.94152e-08 -3.94888e-08 -1.89617e-07 7.65717e+10 3.65887e+10
230 2 5.55 -1.85 -3.7 1.10576e+10 7.03291e+06 5.95015e+09 7.85483e-08 9.10732e-08 -5.14917e-08 7.20433e+10 3.08743e+10
231 2 5.55 -3.7 -1.85 1.10576e+10 5.95015e+09 7.03291e+06 -1.25249e-08 -0 8.8405e-08 7.20433e+10 3.65887e+10
232 2 3.7 -1.85 -1.85 5.95015e+09 7.03291e+06 7.03291e+06 6.05518e-08 6.06562e-08 -2.55076e-07 7.65717e+10 3.65887e+10
233 2 7.4 -3.7 -3.7 5.58948e+09 4.28808e+08 4.28808e+08 -1.93794e-06 -2.31475e-06 -1.89617e-07 2.94589e+10 3.08743e+10
234 2 9.25 -1.85 -3.7 1.89779e+10 2.41931e+10 4.45404e+10 -8.74303e-06 -2.21475e+09 4.26526e-07 4.87515e+10 6.81712e+10
235 2 9.25 -3.7 -1.85 1.89779e+10 4.45404e+10 2.41931e+10 -2.21475e+09 -8.74303e-06 1.45717e-06 4.87515e+10 6.96994e+10
236 2 7.4 -1.85 -1.85 5.58948e+09 -5.51431e+09 -5.51431e+09 -1.82405e-06 -1.53417e-06 -3.17689e-07 4.08877e+10 3.65887e+10
237 2 -9.25 1.85 -3.7 1.89779e+10 2.41931e+10 4.45404e+10 2.40433e-05 2.21475e+09 1.40455e-06 8.10367e+10 7.90305e+10
238 2 -9.25 0 -1.85 1.95496e+10 2.41931e+10 2.41931e+10 -3.20578e-05 1.02002e-05 -1.58753e-06 8.09462e+10 6.81712e+10
239 2 -7.4 0 -3.7 5.58948e+09 -5.51431e+09 4.28808e+08 7.02072e-07 2.00361e-06 4.86432e-08 8.6404e+10 4.74479e+10
240 2 -5.55 1.85 -3.7 1.10576e+10 7.03291e+06 5.95015e+09 3.66427e-08 -1.22927e-08 -1.07653e-08 9.91837e+10 3.65887e+10
241 2 -5.55 0 -1.85 1.10576e+10 7.03291e+06 7.03291e+06 1.872e-07 2.58989e-07 -3.19469e-07 9.91837e+10 3.65887e+10
242 2 -7.4 1.85 -1.85 5.58948e+09 -5.51431e+09 -5.51431e+09 -5.91916e-06 -9.10732e-08 7.75545e-08 6.46855e+10 3.65887e+10
243 2 -3.7 0 -3.7 5.95015e+09 7.03291e+06 5.95015e+09 1.67905e-10 -8.75156e-08 6.18062e-08 1.0037e+11 3.65887e+10
244 2 -1.85 1.85 -3.7 7.03291e+06 7.03291e+06 5.95015e+09 -5.17623e-08 5.01806e-08 -1.07653e-08 8.84707e+10 3.65887e+10
245 2 -1.85 0 -1.85 7.03291e+06 7.03291e+06 7.03291e+06 -1.65322e-07 -2.54187e-07 -3.19469e-07 8.84707e+10 3.65887e+10
246 2 -3.7 1.85 -1.85 5.95015e+09 7.03291e+06 7.03291e+06 -1.77877e-10 8.75156e-08 1.47638e-08 1.0037e+11 3.65887e+10
247 2 0 0 -3.7 7.03291e+06 7.03291e+06 5.95015e+09 -1.79132e-07 6.24541e-08 6.18161e-08 8.84707e+10 3.65887e+10
248 2 1.85 1.85 -3.7 7.03291e+06 7.03291e+06 5.95015e+09 5.22959e-08 8.9631e-08 -1.07653e-08 8.84707e+10 3.65887e+10
249 2 1.85 0 -1.85 7.03291e+06 7.03291e+06 7.03291e+06 9.16803e-08 1.44081e-08 -3.19365e-07 8.84707e+10 3.65887e+10
250 2 0 1.85 -1.85 7.03291e+06 7.03291e+06 7.03291e+06 -2.03017e-09 -2.18905e-07 1.42302e-08 8.84707e+10 3.65887e+10
251 2 3.7 0 -3.7 5.95015e+09 7.03291e+06 5.95015e+09 1.402e-07 -3.98445e-08 6.18161e-08 7.65717e+10 3.65887e+10
252 2 5.55 1.85 -3.7 1.10576e+10 7.03291e+06 5.95015e+09 -1.03598e-07 9.10732e-08 -1.07653e-08 7.20433e+10 3.08743e+10