ITEM: TIMESTEP
0
ITEM: NUMBER OF ATOMS
665
ITEM: BOX BOUNDS xy xz yz pp pp pp
-1.0000000000000000e+01 1.0000000000000000e+01 0.0000000000000000e+00
-1.0000000000000000e+01 1.0000000000000000e+01 0.0000000000000000e+00
-1.0000000000000000e+01 1.0000000000000000e+01 0.0000000000000000e+00
ITEM: ATOMS id type x y z c_1[1] c_1[2] c_1[3] c_1[4] c_1[5] c_1[6] c_1[7] c_1[8] c_1[13] c_1[15] c_1[22]
1 2 -7.4 -9.25 -9.25 4.00561e+06 -3.37762e+07 -3.37762e+07 285.505 285.505 733492 4.97358e+06 1.09317e+06 2.165e+08 318.565 -3.30671e+07
2 2 -3.7 -9.25 -9.25 4.01698e+06 -3.37763e+07 -3.37763e+07 -0 -0 733490 4.7083e+06 1.09238e+06 2.165e+08 -0 -3.30679e+07
3 2 0 -9.25 -9.25 4.01698e+06 -3.37763e+07 -3.37763e+07 1.97504e-10 2.09006e-09 733490 4.7083e+06 1.09238e+06 2.165e+08 -1.35685e-08 -3.30679e+07
4 2 3.7 -9.25 -9.25 4.01698e+06 -3.37763e+07 -3.37763e+07 5.65773e-12 -7.46403e-14 733490 4.7083e+06 1.09238e+06 2.165e+08 1.37625e-11 -3.30679e+07
5 2 7.4 -9.25 -9.25 4.00561e+06 -3.37762e+07 -3.37762e+07 -285.505 -285.505 733492 4.97358e+06 1.09317e+06 2.165e+08 -318.565 -3.30671e+07
6 2 -9.25 -7.4 -9.25 -3.37762e+07 4.00561e+06 -3.37762e+07 285.505 733492 285.505 2.165e+08 1.09317e+06 4.97358e+06 1938.29 4.79502e+06
7 2 -5.55 -7.4 -9.25 5.75577e+06 5.75403e+06 -3.32225e+07 -0 7.55979e-10 4.62549 7.19693e+06 1.54419e+06 7.23818e+06 -0 6.99783e+06
8 2 -7.4 -5.55 -9.25 5.75403e+06 5.75577e+06 -3.32225e+07 -0 4.62549 7.40862e-10 7.23818e+06 1.54419e+06 7.19693e+06 -0 6.99874e+06
9 2 -1.85 -7.4 -9.25 5.75577e+06 5.75403e+06 -3.32225e+07 -0 -7.55979e-10 4.62549 7.19693e+06 1.54419e+06 7.23818e+06 -0 6.99783e+06
10 2 -3.7 -5.55 -9.25 5.75577e+06 5.75577e+06 -3.32225e+07 -0 -0 2.51826e-10 7.19693e+06 1.54419e+06 7.19693e+06 -0 6.99874e+06
11 2 1.85 -7.4 -9.25 5.75577e+06 5.75403e+06 -3.32225e+07 -0 -1.33408e-09 4.62549 7.19693e+06 1.54419e+06 7.23818e+06 -0 6.99783e+06
12 2 0 -5.55 -9.25 5.75577e+06 5.75577e+06 -3.32225e+07 2.44581e-10 1.27849e-09 6.74289e-10 7.19693e+06 1.54419e+06 7.19693e+06 -5.44749e-09 6.99874e+06
13 2 5.55 -7.4 -9.25 5.75577e+06 5.75403e+06 -3.32225e+07 -0 -1.42302e-09 4.62549 7.19693e+06 1.54419e+06 7.23818e+06 -0 6.99783e+06
14 2 3.7 -5.55 -9.25 5.75577e+06 5.75577e+06 -3.32225e+07 -0 -0 7.40862e-10 7.19693e+06 1.54419e+06 7.19693e+06 -0 6.99874e+06
15 2 9.25 -7.4 -9.25 -3.37762e+07 4.00561e+06 -3.37762e+07 -285.505 -733492 285.505 2.165e+08 1.09317e+06 4.97358e+06 -1938.29 4.79502e+06
16 2 7.4 -5.55 -9.25 5.75403e+06 5.75577e+06 -3.32225e+07 -3.77989e-10 -4.62549 3.1843e-10 7.23818e+06 1.54419e+06 7.19693e+06 -6.62593e-09 6.99874e+06
17 2 -9.25 -3.7 -9.25 -3.37763e+07 4.01698e+06 -3.37763e+07 1.30281e-13 733490 -5.30014e-12 2.165e+08 1.09238e+06 4.7083e+06 6.94833e-13 4.8014e+06
18 2 -5.55 -3.7 -9.25 5.75577e+06 5.75577e+06 -3.32225e+07 -0 2.44581e-10 7.23875e-12 7.19693e+06 1.54419e+06 7.19693e+06 -0 6.99874e+06
19 2 -7.4 -1.85 -9.25 5.75403e+06 5.75577e+06 -3.32225e+07 -0 4.62549 -7.71087e-10 7.23818e+06 1.54419e+06 7.19693e+06 -0 6.99874e+06
20 2 -1.85 -3.7 -9.25 5.75577e+06 5.75577e+06 -3.32225e+07 -0 -2.44581e-10 7.23875e-12 7.19693e+06 1.54419e+06 7.19693e+06 -0 6.99874e+06
21 2 -3.7 -1.85 -9.25 5.75577e+06 5.75577e+06 -3.32225e+07 -0 -0 -2.59555e-10 7.19693e+06 1.54419e+06 7.19693e+06 -0 6.99874e+06
22 2 1.85 -3.7 -9.25 5.75577e+06 5.75577e+06 -3.32225e+07 -0 -1.22291e-09 7.31068e-12 7.19693e+06 1.54419e+06 7.19693e+06 -0 6.99874e+06
23 2 0 -1.85 -9.25 5.75577e+06 5.75577e+06 -3.32225e+07 -2.44581e-10 1.27849e-09 -6.82011e-10 7.19693e+06 1.54419e+06 7.19693e+06 5.44749e-09 6.99874e+06
24 2 5.55 -3.7 -9.25 5.75577e+06 5.75577e+06 -3.32225e+07 -0 -2.11229e-09 -1.51764e-11 7.19693e+06 1.54419e+06 7.19693e+06 -0 6.99874e+06
25 2 3.7 -1.85 -9.25 5.75577e+06 5.75577e+06 -3.32225e+07 -0 -0 -7.71087e-10 7.19693e+06 1.54419e+06 7.19693e+06 -0 6.99874e+06
26 2 9.25 -3.7 -9.25 -3.37763e+07 4.01698e+06 -3.37763e+07 2.23215e-11 -733490 2.77933e-12 2.165e+08 1.09238e+06 4.7083e+06 6.94833e-13 4.8014e+06
27 2 7.4 -1.85 -9.25 5.75403e+06 5.75577e+06 -3.32225e+07 3.77989e-10 -4.62549 -3.26393e-10 7.23818e+06 1.54419e+06 7.19693e+06 6.62593e-09 6.99874e+06
28 2 -9.25 0 -9.25 -3.37763e+07 4.01698e+06 -3.37763e+07 1.97637e-10 733490 2.08346e-09 2.165e+08 1.09238e+06 4.7083e+06 -1.43942e-08 4.8014e+06
29 2 -5.55 0 -9.25 5.75577e+06 5.75577e+06 -3.32225e+07 2.44581e-10 6.89275e-10 1.27457e-09 7.19693e+06 1.54419e+06 7.19693e+06 -5.09174e-09 6.99874e+06
30 2 -7.4 1.85 -9.25 5.75403e+06 5.75577e+06 -3.32225e+07 -0 4.62549 -1.34908e-09 7.23818e+06 1.54419e+06 7.19693e+06 -0 6.99874e+06
31 2 -1.85 0 -9.25 5.75577e+06 5.75577e+06 -3.32225e+07 -2.44581e-10 -6.89275e-10 1.27457e-09 7.19693e+06 1.54419e+06 7.19693e+06 5.09174e-09 6.99874e+06
32 2 -3.7 1.85 -9.25 5.75577e+06 5.75577e+06 -3.32225e+07 -0 -0 -1.23777e-09 7.19693e+06 1.54419e+06 7.19693e+06 -0 6.99874e+06
33 2 1.85 0 -9.25 5.75577e+06 5.75577e+06 -3.32225e+07 -5.33632e-10 -8.67152e-10 8.52179e-10 7.19693e+06 1.54419e+06 7.19693e+06 -2.69039e-09 6.99874e+06
34 2 0 1.85 -9.25 5.75577e+06 5.75577e+06 -3.32225e+07 -5.33632e-10 8.67152e-10 -8.5979e-10 7.19693e+06 1.54419e+06 7.19693e+06 -2.69039e-09 6.99874e+06
35 2 5.55 0 -9.25 5.75577e+06 5.75577e+06 -3.32225e+07 -6.6704e-11 -1.36743e-09 1.3633e-09 7.19693e+06 1.54419e+06 7.19693e+06 3.3352e-10 6.99874e+06
36 2 3.7 1.85 -9.25 5.75577e+06 5.75577e+06 -3.32225e+07 -0 -0 -1.34909e-09 7.19693e+06 1.54419e+06 7.19693e+06 -0 6.99874e+06
37 2 9.25 0 -9.25 -3.37763e+07 4.01698e+06 -3.37763e+07 -6.86582e-10 -733490 1.69135e-09 2.165e+08 1.09238e+06 4.7083e+06 1.17052e-08 4.8014e+06
38 2 7.4 1.85 -9.25 5.75403e+06 5.75577e+06 -3.32225e+07 -6.00336e-10 -4.62549 -9.04362e-10 7.23818e+06 1.54419e+06 7.19693e+06 -2.35687e-09 6.99874e+06
39 2 -9.25 3.7 -9.25 -3.37763e+07 4.01698e+06 -3.37763e+07 5.73237e-12 733490 8.95616e-12 2.165e+08 1.09238e+06 4.7083e+06 7.99058e-11 4.8014e+06
40 2 -5.55 3.7 -9.25 5.75577e+06 5.75577e+06 -3.32225e+07 -0 7.55979e-10 -3.71437e-12 7.19693e+06 1.54419e+06 7.19693e+06 -0 6.99874e+06
41 2 -7.4 5.55 -9.25 5.75403e+06 5.75577e+06 -3.32225e+07 -0 4.62549 -1.43802e-09 7.23818e+06 1.54419e+06 7.19693e+06 -0 6.99874e+06
42 2 -1.85 3.7 -9.25 5.75577e+06 5.75577e+06 -3.32225e+07 -0 -7.55979e-10 -3.71369e-12 7.19693e+06 1.54419e+06 7.19693e+06 -0 6.99874e+06
43 2 -3.7 5.55 -9.25 5.75577e+06 5.75577e+06 -3.32225e+07 -0 -0 -2.10493e-09 7.19693e+06 1.54419e+06 7.19693e+06 -0 6.99874e+06
44 2 1.85 3.7 -9.25 5.75577e+06 5.75577e+06 -3.32225e+07 -0 -1.33408e-09 -1.47639e-11 7.19693e+06 1.54419e+06 7.19693e+06 -0 6.99874e+06
45 2 0 5.55 -9.25 5.75577e+06 5.75577e+06 -3.32225e+07 -6.6704e-11 1.37855e-09 -1.38229e-09 7.19693e+06 1.54419e+06 7.19693e+06 8.89387e-11 6.99874e+06
46 2 5.55 3.7 -9.25 5.75577e+06 5.75577e+06 -3.32225e+07 -0 -1.42302e-09 -1.49979e-11 7.19693e+06 1.54419e+06 7.19693e+06 -0 6.99874e+06
47 2 3.7 5.55 -9.25 5.75577e+06 5.75577e+06 -3.32225e+07 -0 -0 -1.43802e-09 7.19693e+06 1.54419e+06 7.19693e+06 -0 6.99874e+06
48 2 9.25 3.7 -9.25 -3.37763e+07 4.01698e+06 -3.37763e+07 3.88238e-11 -733490 7.22301e-11 2.165e+08 1.09238e+06 4.7083e+06 -7.9211e-11 4.8014e+06
49 2 7.4 5.55 -9.25 5.75403e+06 5.75577e+06 -3.32225e+07 6.6704e-11 -4.62549 -1.10447e-09 7.23818e+06 1.54419e+06 7.19693e+06 1.51196e-09 6.99874e+06
50 2 -9.25 7.4 -9.25 -3.37762e+07 4.00561e+06 -3.37762e+07 -285.505 733492 -285.505 2.165e+08 1.09317e+06 4.97358e+06 -1938.29 4.79502e+06
51 2 -5.55 7.4 -9.25 5.75577e+06 5.75403e+06 -3.32225e+07 -3.77989e-10 3.3352e-10 -4.62549 7.19693e+06 1.54419e+06 7.23818e+06 -6.29241e-09 6.99783e+06
52 2 -7.4 9.25 -9.25 4.00561e+06 -3.37762e+07 -3.37762e+07 -285.505 285.505 -733492 4.97358e+06 1.09317e+06 2.165e+08 -318.565 -3.30671e+07
53 2 -1.85 7.4 -9.25 5.75577e+06 5.75403e+06 -3.32225e+07 3.77989e-10 -3.3352e-10 -4.62549 7.19693e+06 1.54419e+06 7.23818e+06 6.29241e-09 6.99783e+06
54 2 -3.7 9.25 -9.25 4.01698e+06 -3.37763e+07 -3.37763e+07 5.2981e-12 2.77933e-12 -733490 4.7083e+06 1.09238e+06 2.165e+08 1.03358e-11 -3.30679e+07
55 2 1.85 7.4 -9.25 5.75577e+06 5.75403e+06 -3.32225e+07 -6.00336e-10 -9.11621e-10 -4.62549 7.19693e+06 1.54419e+06 7.23818e+06 -2.60146e-09 6.99783e+06
56 2 0 9.25 -9.25 4.01698e+06 -3.37763e+07 -3.37763e+07 -7.25924e-10 1.62465e-09 -733490 4.7083e+06 1.09238e+06 2.165e+08 1.08883e-08 -3.30679e+07
57 2 5.55 7.4 -9.25 5.75577e+06 5.75403e+06 -3.32225e+07 6.6704e-11 -1.0895e-09 -4.62549 7.19693e+06 1.54419e+06 7.23818e+06 1.75654e-09 6.99783e+06
58 2 3.7 9.25 -9.25 4.01698e+06 -3.37763e+07 -3.37763e+07 -8.95616e-12 5.52542e-12 -733490 4.7083e+06 1.09238e+06 2.165e+08 -2.04067e-11 -3.30679e+07
59 2 9.25 7.4 -9.25 -3.37762e+07 4.00561e+06 -3.37762e+07 285.505 -733492 -285.505 2.165e+08 1.09317e+06 4.97358e+06 1938.29 4.79502e+06
60 2 7.4 9.25 -9.25 4.00561e+06 -3.37762e+07 -3.37762e+07 285.505 -285.505 -733492 4.97358e+06 1.09317e+06 2.165e+08 318.565 -3.30671e+07
61 2 -9.25 -9.25 -7.4 -3.37762e+07 -3.37762e+07 4.00561e+06 733492 285.505 285.505 2.165e+08 2.81401e+06 2.165e+08 1.51241e+06 -3.13462e+07
62 2 -5.55 -9.25 -7.4 5.75577e+06 -3.32225e+07 5.75403e+06 7.55867e-10 6.6704e-11 4.62549 7.19693e+06 926205 2.15109e+08 -5.00299e-09 -3.24934e+07
63 2 -7.4 -9.25 -5.55 5.75403e+06 -3.32225e+07 5.75577e+06 4.62549 -0 7.78213e-10 7.23818e+06 926217 2.15109e+08 4.80425 -3.24934e+07
64 2 -1.85 -9.25 -7.4 5.75577e+06 -3.32225e+07 5.75403e+06 -7.56012e-10 -6.6704e-11 4.62549 7.19693e+06 926205 2.15109e+08 5.00277e-09 -3.24934e+07
65 2 -3.7 -9.25 -5.55 5.75577e+06 -3.32225e+07 5.75577e+06 -3.87858e-12 -0 3.3352e-10 7.19693e+06 926205 2.15109e+08 1.09124e-11 -3.24934e+07
66 2 1.85 -9.25 -7.4 5.75577e+06 -3.32225e+07 5.75403e+06 3.55901e-10 -0 4.62549 7.19693e+06 926205 2.15109e+08 1.4475e-08 -3.24934e+07
67 2 0 -9.25 -5.55 5.75577e+06 -3.32225e+07 5.75577e+06 -3.96408e-12 -1.77877e-10 1.06726e-09 7.19693e+06 926205 2.15109e+08 -1.35524e-08 -3.24934e+07
68 2 5.55 -9.25 -7.4 5.75577e+06 -3.32225e+07 5.75403e+06 -1.42298e-09 -2.22347e-11 4.62549 7.19693e+06 926205 2.15109e+08 1.0139e-08 -3.24934e+07
69 2 3.7 -9.25 -5.55 5.75577e+06 -3.32225e+07 5.75577e+06 -3.71573e-12 -0 7.78213e-10 7.19693e+06 926205 2.15109e+08 1.11519e-11 -3.24934e+07
70 2 9.25 -9.25 -7.4 -3.37762e+07 -3.37762e+07 4.00561e+06 -733492 -285.505 285.505 2.165e+08 2.81401e+06 2.165e+08 -1.51241e+06 -3.13462e+07
71 2 7.4 -9.25 -5.55 5.75403e+06 -3.32225e+07 5.75577e+06 -4.62549 -8.67152e-10 6.22571e-10 7.23818e+06 926217 2.15109e+08 -4.80425 -3.24934e+07
72 2 -9.25 -5.55 -7.4 -3.32225e+07 5.75577e+06 5.75403e+06 7.59865e-10 4.62549 6.6704e-11 2.15109e+08 926205 7.19693e+06 -4.75312e-09 6.38076e+06
73 2 -9.25 -7.4 -5.55 -3.32225e+07 5.75403e+06 5.75577e+06 4.62549 7.55979e-10 -0 2.15109e+08 926217 7.23818e+06 29.2312 6.37986e+06
74 2 -7.4 -7.4 -7.4 7.03256e+06 7.03256e+06 7.03256e+06 -0 -0 -0 8.15349e+06 565011 8.15349e+06 -0 7.59739e+06
75 2 -5.55 -5.55 -7.4 7.03291e+06 7.03291e+06 7.03256e+06 1.77877e-10 -0 -0 8.14475e+06 565011 8.14475e+06 4.00224e-10 7.59756e+06
76 2 -5.55 -7.4 -5.55 7.03291e+06 7.03256e+06 7.03291e+06 -0 1.77877e-10 -0 8.14475e+06 565011 8.15349e+06 -0 7.59739e+06
77 2 -7.4 -5.55 -5.55 7.03256e+06 7.03291e+06 7.03291e+06 -0 -0 1.77877e-10 8.15349e+06 565011 8.14475e+06 -0 7.59756e+06
78 2 -3.7 -7.4 -7.4 7.03291e+06 7.03256e+06 7.03256e+06 -0 -0 -0 8.14475e+06 565011 8.15349e+06 -0 7.59739e+06
79 2 -1.85 -5.55 -7.4 7.03291e+06 7.03291e+06 7.03256e+06 -1.77877e-10 -0 -0 8.14475e+06 565011 8.14475e+06 -4.00224e-10 7.59756e+06
80 2 -1.85 -7.4 -5.55 7.03291e+06 7.03256e+06 7.03291e+06 -0 -1.77877e-10 -0 8.14475e+06 565011 8.15349e+06 -0 7.59739e+06
81 2 -3.7 -5.55 -5.55 7.03291e+06 7.03291e+06 7.03291e+06 -0 -0 1.77877e-10 8.14475e+06 565011 8.14475e+06 -0 7.59756e+06
82 2 0 -7.4 -7.4 7.03291e+06 7.03256e+06 7.03256e+06 -0 -0 -0 8.14475e+06 565011 8.15349e+06 -0 7.59739e+06
83 2 1.85 -5.55 -7.4 7.03291e+06 7.03291e+06 7.03256e+06 -1.77877e-10 -0 -0 8.14475e+06 565011 8.14475e+06 5.31409e-09 7.59756e+06
84 2 1.85 -7.4 -5.55 7.03291e+06 7.03256e+06 7.03291e+06 -0 -1.77877e-10 -0 8.14475e+06 565011 8.15349e+06 -0 7.59739e+06
85 2 0 -5.55 -5.55 7.03291e+06 7.03291e+06 7.03291e+06 1.77877e-10 1.77877e-10 1.77877e-10 8.14475e+06 565011 8.14475e+06 -5.31409e-09 7.59756e+06
86 2 3.7 -7.4 -7.4 7.03291e+06 7.03256e+06 7.03256e+06 -0 -0 -0 8.14475e+06 565011 8.15349e+06 -0 7.59739e+06
87 2 5.55 -5.55 -7.4 7.03291e+06 7.03291e+06 7.03256e+06 1.77877e-10 -0 -0 8.14475e+06 565011 8.14475e+06 2.44581e-10 7.59756e+06
88 2 5.55 -7.4 -5.55 7.03291e+06 7.03256e+06 7.03291e+06 -0 1.77877e-10 -0 8.14475e+06 565011 8.15349e+06 -0 7.59739e+06
89 2 3.7 -5.55 -5.55 7.03291e+06 7.03291e+06 7.03291e+06 -0 -0 1.77877e-10 8.14475e+06 565011 8.14475e+06 -0 7.59756e+06
90 2 7.4 -7.4 -7.4 7.03256e+06 7.03256e+06 7.03256e+06 -0 -0 -0 8.15349e+06 565011 8.15349e+06 -0 7.59739e+06
91 2 9.25 -5.55 -7.4 -3.32225e+07 5.75577e+06 5.75403e+06 -9.37743e-10 -4.62549 6.6704e-11 2.15109e+08 926205 7.19693e+06 1.00672e-08 6.38076e+06
92 2 9.25 -7.4 -5.55 -3.32225e+07 5.75403e+06 5.75577e+06 -4.62549 -9.11621e-10 -0 2.15109e+08 926217 7.23818e+06 -29.2312 6.37986e+06
93 2 7.4 -5.55 -5.55 7.03256e+06 7.03291e+06 7.03291e+06 -0 -0 1.77877e-10 8.15349e+06 565011 8.14475e+06 -5.55867e-09 7.59756e+06
94 2 -9.25 -1.85 -7.4 -3.32225e+07 5.75577e+06 5.75403e+06 -8.29802e-10 4.62549 -6.6704e-11 2.15109e+08 926205 7.19693e+06 4.76443e-09 6.38076e+06
95 2 -9.25 -3.7 -5.55 -3.32225e+07 5.75577e+06 5.75577e+06 -3.87722e-12 2.89051e-10 -0 2.15109e+08 926205 7.19693e+06 -5.23296e-12 6.38076e+06
96 2 -7.4 -3.7 -7.4 7.03256e+06 7.03291e+06 7.03256e+06 -0 -0 -0 8.15349e+06 565011 8.14475e+06 -0 7.59756e+06
97 2 -5.55 -1.85 -7.4 7.03291e+06 7.03291e+06 7.03256e+06 -1.77877e-10 -0 -0 8.14475e+06 565011 8.14475e+06 -4.00224e-10 7.59756e+06
98 2 -5.55 -3.7 -5.55 7.03291e+06 7.03291e+06 7.03291e+06 -0 1.77877e-10 -0 8.14475e+06 565011 8.14475e+06 -0 7.59756e+06
99 2 -7.4 -1.85 -5.55 7.03256e+06 7.03291e+06 7.03291e+06 -0 -0 -1.77877e-10 8.15349e+06 565011 8.14475e+06 -0 7.59756e+06
100 2 -3.7 -3.7 -7.4 7.03291e+06 7.03291e+06 7.03256e+06 -0 -0 -0 8.14475e+06 565011 8.14475e+06 -0 7.59756e+06
101 2 -1.85 -1.85 -7.4 7.03291e+06 7.03291e+06 7.03256e+06 1.77877e-10 -0 -0 8.14475e+06 565011 8.14475e+06 4.00224e-10 7.59756e+06
102 2 -1.85 -3.7 -5.55 7.03291e+06 7.03291e+06 7.03291e+06 -0 -1.77877e-10 -0 8.14475e+06 565011 8.14475e+06 -0 7.59756e+06
103 2 -3.7 -1.85 -5.55 7.03291e+06 7.03291e+06 7.03291e+06 -0 -0 -1.77877e-10 8.14475e+06 565011 8.14475e+06 -0 7.59756e+06
104 2 0 -3.7 -7.4 7.03291e+06 7.03291e+06 7.03256e+06 -0 -0 -0 8.14475e+06 565011 8.14475e+06 -0 7.59756e+06
105 2 1.85 -1.85 -7.4 7.03291e+06 7.03291e+06 7.03256e+06 1.77877e-10 -0 -0 8.14475e+06 565011 8.14475e+06 -5.31409e-09 7.59756e+06
106 2 1.85 -3.7 -5.55 7.03291e+06 7.03291e+06 7.03291e+06 -0 -1.77877e-10 -0 8.14475e+06 565011 8.14475e+06 -0 7.59756e+06
107 2 0 -1.85 -5.55 7.03291e+06 7.03291e+06 7.03291e+06 -1.77877e-10 1.77877e-10 -1.77877e-10 8.14475e+06 565011 8.14475e+06 5.31409e-09 7.59756e+06
108 2 3.7 -3.7 -7.4 7.03291e+06 7.03291e+06 7.03256e+06 -0 -0 -0 8.14475e+06 565011 8.14475e+06 -0 7.59756e+06
109 2 5.55 -1.85 -7.4 7.03291e+06 7.03291e+06 7.03256e+06 -1.77877e-10 -0 -0 8.14475e+06 565011 8.14475e+06 -2.44581e-10 7.59756e+06
110 2 5.55 -3.7 -5.55 7.03291e+06 7.03291e+06 7.03291e+06 -0 1.77877e-10 -0 8.14475e+06 565011 8.14475e+06 -0 7.59756e+06
111 2 3.7 -1.85 -5.55 7.03291e+06 7.03291e+06 7.03291e+06 -0 -0 -1.77877e-10 8.14475e+06 565011 8.14475e+06 -0 7.59756e+06
112 2 7.4 -3.7 -7.4 7.03256e+06 7.03291e+06 7.03256e+06 -0 -0 -0 8.15349e+06 565011 8.14475e+06 -0 7.59756e+06
113 2 9.25 -1.85 -7.4 -3.32225e+07 5.75577e+06 5.75403e+06 9.29858e-10 -4.62549 -0 2.15109e+08 926205 7.19693e+06 -1.00785e-08 6.38076e+06
114 2 9.25 -3.7 -5.55 -3.32225e+07 5.75577e+06 5.75577e+06 4.83479e-11 -4.22459e-10 6.6704e-11 2.15109e+08 926205 7.19693e+06 5.24382e-12 6.38076e+06
115 2 7.4 -1.85 -5.55 7.03256e+06 7.03291e+06 7.03291e+06 -0 -0 -1.77877e-10 8.15349e+06 565011 8.14475e+06 5.55867e-09 7.59756e+06
116 2 -9.25 1.85 -7.4 -3.32225e+07 5.75577e+06 5.75403e+06 2.81968e-10 4.62549 -0 2.15109e+08 926205 7.19693e+06 1.70827e-08 6.38076e+06
117 2 -9.25 0 -5.55 -3.32225e+07 5.75577e+06 5.75577e+06 -3.96136e-12 1.06726e-09 -1.77877e-10 2.15109e+08 926205 7.19693e+06 -1.56147e-08 6.38076e+06
118 2 -7.4 0 -7.4 7.03256e+06 7.03291e+06 7.03256e+06 -0 -0 -0 8.15349e+06 565011 8.14475e+06 -0 7.59756e+06
119 2 -5.55 1.85 -7.4 7.03291e+06 7.03291e+06 7.03256e+06 -1.77877e-10 -0 -0 8.14475e+06 565011 8.14475e+06 5.13621e-09 7.59756e+06
120 2 -5.55 0 -5.55 7.03291e+06 7.03291e+06 7.03291e+06 1.77877e-10 1.77877e-10 1.77877e-10 8.14475e+06 565011 8.14475e+06 -5.13621e-09 7.59756e+06
121 2 -7.4 1.85 -5.55 7.03256e+06 7.03291e+06 7.03291e+06 -0 -0 -1.77877e-10 8.15349e+06 565011 8.14475e+06 -0 7.59756e+06
122 2 -3.7 0 -7.4 7.03291e+06 7.03291e+06 7.03256e+06 -0 -0 -0 8.14475e+06 565011 8.14475e+06 -0 7.59756e+06
123 2 -1.85 1.85 -7.4 7.03291e+06 7.03291e+06 7.03256e+06 1.77877e-10 -0 -0 8.14475e+06 565011 8.14475e+06 -5.13621e-09 7.59756e+06
124 2 -1.85 0 -5.55 7.03291e+06 7.03291e+06 7.03291e+06 -1.77877e-10 -1.77877e-10 1.77877e-10 8.14475e+06 565011 8.14475e+06 5.13621e-09 7.59756e+06
125 2 -3.7 1.85 -5.55 7.03291e+06 7.03291e+06 7.03291e+06 -0 -0 -1.77877e-10 8.14475e+06 565011 8.14475e+06 -0 7.59756e+06
126 2 0 0 -7.4 7.03291e+06 7.03291e+06 7.03256e+06 -0 -0 -0 8.14475e+06 565011 8.14475e+06 3.3352e-10 7.59756e+06
127 2 1.85 1.85 -7.4 7.03291e+06 7.03291e+06 7.03256e+06 -0 -0 -0 8.14475e+06 565011 8.14475e+06 3.3352e-10 7.59756e+06
128 2 1.85 0 -5.55 7.03291e+06 7.03291e+06 7.03291e+06 -0 -1.77877e-10 1.77877e-10 8.14475e+06 565011 8.14475e+06 -3.3352e-10 7.59756e+06
129 2 0 1.85 -5.55 7.03291e+06 7.03291e+06 7.03291e+06 -0 1.77877e-10 -1.77877e-10 8.14475e+06 565011 8.14475e+06 -3.3352e-10 7.59756e+06
130 2 3.7 0 -7.4 7.03291e+06 7.03291e+06 7.03256e+06 -0 -0 -0 8.14475e+06 565011 8.14475e+06 -0 7.59756e+06
131 2 5.55 1.85 -7.4 7.03291e+06 7.03291e+06 7.03256e+06 -0 -0 -0 8.14475e+06 565011 8.14475e+06 -3.3352e-10 7.59756e+06
132 2 5.55 0 -5.55 7.03291e+06 7.03291e+06 7.03291e+06 -0 1.77877e-10 1.77877e-10 8.14475e+06 565011 8.14475e+06 3.3352e-10 7.59756e+06
133 2 3.7 1.85 -5.55 7.03291e+06 7.03291e+06 7.03291e+06 -0 -0 -1.77877e-10 8.14475e+06 565011 8.14475e+06 -0 7.59756e+06
134 2 7.4 0 -7.4 7.03256e+06 7.03291e+06 7.03256e+06 -0 -0 -0 8.15349e+06 565011 8.14475e+06 -0 7.59756e+06
135 2 9.25 1.85 -7.4 -3.32225e+07 5.75577e+06 5.75403e+06 -3.59786e-10 -4.62549 6.6704e-11 2.15109e+08 926205 7.19693e+06 -1.67491e-08 6.38076e+06
136 2 9.25 0 -5.55 -3.32225e+07 5.75577e+06 5.75577e+06 3.73134e-11 -1.26738e-09 -2.22347e-10 2.15109e+08 926205 7.19693e+06 1.52812e-08 6.38076e+06
137 2 7.4 1.85 -5.55 7.03256e+06 7.03291e+06 7.03291e+06 -0 -0 -1.77877e-10 8.15349e+06 565011 8.14475e+06 -0 7.59756e+06
138 2 -9.25 5.55 -7.4 -3.32225e+07 5.75577e+06 5.75403e+06 -1.49695e-09 4.62549 1.55643e-10 2.15109e+08 926205 7.19693e+06 1.01441e-08 6.38076e+06
139 2 -9.25 3.7 -5.55 -3.32225e+07 5.75577e+06 5.75577e+06 -3.71302e-12 7.78213e-10 -0 2.15109e+08 926205 7.19693e+06 -3.81615e-12 6.38076e+06
140 2 -7.4 3.7 -7.4 7.03256e+06 7.03291e+06 7.03256e+06 -0 -0 -0 8.15349e+06 565011 8.14475e+06 -0 7.59756e+06
141 2 -5.55 5.55 -7.4 7.03291e+06 7.03291e+06 7.03256e+06 1.77877e-10 -0 -0 8.14475e+06 565011 8.14475e+06 2.66816e-10 7.59756e+06
142 2 -5.55 3.7 -5.55 7.03291e+06 7.03291e+06 7.03291e+06 -0 1.77877e-10 -0 8.14475e+06 565011 8.14475e+06 -0 7.59756e+06
143 2 -7.4 5.55 -5.55 7.03256e+06 7.03291e+06 7.03291e+06 -0 -0 1.77877e-10 8.15349e+06 565011 8.14475e+06 -0 7.59756e+06
144 2 -3.7 3.7 -7.4 7.03291e+06 7.03291e+06 7.03256e+06 -0 -0 -0 8.14475e+06 565011 8.14475e+06 -0 7.59756e+06
145 2 -1.85 5.55 -7.4 7.03291e+06 7.03291e+06 7.03256e+06 -1.77877e-10 -0 -0 8.14475e+06 565011 8.14475e+06 -2.66816e-10 7.59756e+06
146 2 -1.85 3.7 -5.55 7.03291e+06 7.03291e+06 7.03291e+06 -0 -1.77877e-10 -0 8.14475e+06 565011 8.14475e+06 -0 7.59756e+06
147 2 -3.7 5.55 -5.55 7.03291e+06 7.03291e+06 7.03291e+06 -0 -0 1.77877e-10 8.14475e+06 565011 8.14475e+06 -0 7.59756e+06
148 2 0 3.7 -7.4 7.03291e+06 7.03291e+06 7.03256e+06 -0 -0 -0 8.14475e+06 565011 8.14475e+06 -0 7.59756e+06
149 2 1.85 5.55 -7.4 7.03291e+06 7.03291e+06 7.03256e+06 -0 -0 -0 8.14475e+06 565011 8.14475e+06 -8.89387e-11 7.59756e+06
150 2 1.85 3.7 -5.55 7.03291e+06 7.03291e+06 7.03291e+06 -0 -1.77877e-10 -0 8.14475e+06 565011 8.14475e+06 -0 7.59756e+06
151 2 0 5.55 -5.55 7.03291e+06 7.03291e+06 7.03291e+06 -0 1.77877e-10 1.77877e-10 8.14475e+06 565011 8.14475e+06 8.89387e-11 7.59756e+06
152 2 3.7 3.7 -7.4 7.03291e+06 7.03291e+06 7.03256e+06 -0 -0 -0 8.14475e+06 565011 8.14475e+06 -0 7.59756e+06
153 2 5.55 5.55 -7.4 7.03291e+06 7.03291e+06 7.03256e+06 1.77877e-10 -0 -0 8.14475e+06 565011 8.14475e+06 -1.33408e-10 7.59756e+06
154 2 5.55 3.7 -5.55 7.03291e+06 7.03291e+06 7.03291e+06 -0 1.77877e-10 -0 8.14475e+06 565011 8.14475e+06 -0 7.59756e+06
155 2 3.7 5.55 -5.55 7.03291e+06 7.03291e+06 7.03291e+06 -0 -0 1.77877e-10 8.14475e+06 565011 8.14475e+06 -0 7.59756e+06
156 2 7.4 3.7 -7.4 7.03256e+06 7.03291e+06 7.03256e+06 -0 -0 -0 8.15349e+06 565011 8.14475e+06 -0 7.59756e+06
157 2 9.25 5.55 -7.4 -3.32225e+07 5.75577e+06 5.75403e+06 1.41913e-09 -4.62549 6.6704e-11 2.15109e+08 926205 7.19693e+06 -1.0233e-08 6.38076e+06
158 2 9.25 3.7 -5.55 -3.32225e+07 5.75577e+06 5.75577e+06 -7.40567e-12 -9.33856e-10 -0 2.15109e+08 926205 7.19693e+06 3.81073e-12 6.38076e+06
159 2 7.4 5.55 -5.55 7.03256e+06 7.03291e+06 7.03291e+06 -1.77877e-10 -0 1.77877e-10 8.15349e+06 565011 8.14475e+06 2.22347e-10 7.59756e+06
160 2 -9.25 9.25 -7.4 -3.37762e+07 -3.37762e+07 4.00561e+06 -733492 285.505 -285.505 2.165e+08 2.81401e+06 2.165e+08 -1.51241e+06 -3.13462e+07
161 2 -9.25 7.4 -5.55 -3.32225e+07 5.75403e+06 5.75577e+06 -4.62549 6.22571e-10 -8.67152e-10 2.15109e+08 926217 7.23818e+06 -29.2312 6.37986e+06
162 2 -7.4 7.4 -7.4 7.03256e+06 7.03256e+06 7.03256e+06 -0 -0 -0 8.15349e+06 565011 8.15349e+06 -0 7.59739e+06
163 2 -5.55 9.25 -7.4 5.75577e+06 -3.32225e+07 5.75403e+06 -9.33856e-10 -0 -4.62549 7.19693e+06 926205 2.15109e+08 1.0139e-08 -3.24934e+07
164 2 -5.55 7.4 -5.55 7.03291e+06 7.03256e+06 7.03291e+06 -0 1.77877e-10 -0 8.14475e+06 565011 8.15349e+06 -5.40302e-09 7.59739e+06
165 2 -7.4 9.25 -5.55 5.75403e+06 -3.32225e+07 5.75577e+06 -4.62549 -0 -9.11621e-10 7.23818e+06 926217 2.15109e+08 -4.80425 -3.24934e+07
166 2 -3.7 7.4 -7.4 7.03291e+06 7.03256e+06 7.03256e+06 -0 -0 -0 8.14475e+06 565011 8.15349e+06 -0 7.59739e+06
167 2 -1.85 9.25 -7.4 5.75577e+06 -3.32225e+07 5.75403e+06 9.33856e-10 -0 -4.62549 7.19693e+06 926205 2.15109e+08 -1.0139e-08 -3.24934e+07
168 2 -1.85 7.4 -5.55 7.03291e+06 7.03256e+06 7.03291e+06 -0 -1.77877e-10 -0 8.14475e+06 565011 8.15349e+06 5.40302e-09 7.59739e+06
169 2 -3.7 9.25 -5.55 5.75577e+06 -3.32225e+07 5.75577e+06 3.87722e-12 -0 -4.22459e-10 7.19693e+06 926205 2.15109e+08 -1.09124e-11 -3.24934e+07
170 2 0 7.4 -7.4 7.03291e+06 7.03256e+06 7.03256e+06 -0 -0 -0 8.14475e+06 565011 8.15349e+06 2.44581e-10 7.59739e+06
171 2 1.85 9.25 -7.4 5.75577e+06 -3.32225e+07 5.75403e+06 -3.55755e-10 -0 -4.62549 7.19693e+06 926205 2.15109e+08 -1.41412e-08 -3.24934e+07
172 2 1.85 7.4 -5.55 7.03291e+06 7.03256e+06 7.03291e+06 -0 -1.77877e-10 -0 8.14475e+06 565011 8.15349e+06 -2.44581e-10 7.59739e+06
173 2 0 9.25 -5.55 5.75577e+06 -3.32225e+07 5.75577e+06 4.84307e-11 -2.22347e-10 -1.24514e-09 7.19693e+06 926205 2.15109e+08 1.32188e-08 -3.24934e+07
174 2 3.7 7.4 -7.4 7.03291e+06 7.03256e+06 7.03256e+06 -0 -0 -0 8.14475e+06 565011 8.15349e+06 -0 7.59739e+06
175 2 5.55 9.25 -7.4 5.75577e+06 -3.32225e+07 5.75403e+06 1.42302e-09 -0 -4.62549 7.19693e+06 926205 2.15109e+08 -1.04725e-08 -3.24934e+07
176 2 5.55 7.4 -5.55 7.03291e+06 7.03256e+06 7.03291e+06 -1.77877e-10 1.77877e-10 -0 8.14475e+06 565011 8.15349e+06 4.66928e-10 7.59739e+06
177 2 3.7 9.25 -5.55 5.75577e+06 -3.32225e+07 5.75577e+06 3.71166e-12 -0 -9.11621e-10 7.19693e+06 926205 2.15109e+08 -1.11553e-11 -3.24934e+07
178 2 7.4 7.4 -7.4 7.03256e+06 7.03256e+06 7.03256e+06 1.77877e-10 -0 -0 8.15349e+06 565011 8.15349e+06 -2.22347e-10 7.59739e+06
179 2 9.25 9.25 -7.4 -3.37762e+07 -3.37762e+07 4.00561e+06 733492 -285.505 -285.505 2.165e+08 2.81401e+06 2.165e+08 1.51241e+06 -3.13462e+07
180 2 9.25 7.4 -5.55 -3.32225e+07 5.75403e+06 5.75577e+06 4.62549 -8.22683e-10 -9.11621e-10 2.15109e+08 926217 7.23818e+06 29.2312 6.37986e+06
181 2 7.4 9.25 -5.55 5.75403e+06 -3.32225e+07 5.75577e+06 4.62549 -8.44917e-10 -8.89387e-10 7.23818e+06 926217 2.15109e+08 4.80425 -3.24934e+07
182 2 -9.25 -9.25 -3.7 -3.37763e+07 -3.37763e+07 4.01698e+06 733490 2.22347e-11 2.22347e-11 2.165e+08 2.81401e+06 2.165e+08 1.51241e+06 -3.13463e+07
183 2 -5.55 -9.25 -3.7 5.75577e+06 -3.32225e+07 5.75577e+06 2.44457e-10 -6.6704e-11 6.6704e-11 7.19693e+06 926205 2.15109e+08 -5.71451e-09 -3.24934e+07
184 2 -7.4 -9.25 -1.85 5.75403e+06 -3.32225e+07 5.75577e+06 4.62549 -0 -7.55979e-10 7.23818e+06 926217 2.15109e+08 4.80425 -3.24934e+07
185 2 -1.85 -9.25 -3.7 5.75577e+06 -3.32225e+07 5.75577e+06 -2.44598e-10 6.6704e-11 6.6704e-11 7.19693e+06 926205 2.15109e+08 5.71429e-09 -3.24934e+07
186 2 -3.7 -9.25 -1.85 5.75577e+06 -3.32225e+07 5.75577e+06 -3.87858e-12 -0 -3.55755e-10 7.19693e+06 926205 2.15109e+08 1.09117e-11 -3.24934e+07
187 2 1.85 -9.25 -3.7 5.75577e+06 -3.32225e+07 5.75577e+06 -2.66674e-10 -4.44693e-11 -2.22347e-11 7.19693e+06 926205 2.15109e+08 1.26517e-08 -3.24934e+07
188 2 0 -9.25 -1.85 5.75577e+06 -3.32225e+07 5.75577e+06 -4.84321e-11 2.22347e-10 -1.1562e-09 7.19693e+06 926205 2.15109e+08 -1.35524e-08 -3.24934e+07
189 2 5.55 -9.25 -3.7 5.75577e+06 -3.32225e+07 5.75577e+06 -2.11226e-09 6.6704e-11 -6.6704e-11 7.19693e+06 926205 2.15109e+08 9.16072e-09 -3.24934e+07
190 2 3.7 -9.25 -1.85 5.75577e+06 -3.32225e+07 5.75577e+06 -3.71302e-12 -0 -7.55979e-10 7.19693e+06 926205 2.15109e+08 1.1154e-11 -3.24934e+07
191 2 9.25 -9.25 -3.7 -3.37763e+07 -3.37763e+07 4.01698e+06 -733490 -4.44693e-11 -2.22347e-11 2.165e+08 2.81401e+06 2.165e+08 -1.51241e+06 -3.13463e+07
192 2 7.4 -9.25 -1.85 5.75403e+06 -3.32225e+07 5.75577e+06 -4.62549 8.67152e-10 -8.89387e-10 7.23818e+06 926217 2.15109e+08 -4.80425 -3.24934e+07
193 2 -9.25 -5.55 -3.7 -3.32225e+07 5.75577e+06 5.75577e+06 2.48332e-10 6.6704e-11 -6.6704e-11 2.15109e+08 926205 7.19693e+06 -5.99914e-09 6.38076e+06
194 2 -9.25 -7.4 -1.85 -3.32225e+07 5.75403e+06 5.75577e+06 4.62549 -8.00448e-10 -0 2.15109e+08 926217 7.23818e+06 29.2312 6.37986e+06
195 2 -7.4 -7.4 -3.7 7.03256e+06 7.03256e+06 7.03291e+06 -0 -0 -0 8.15349e+06 565011 8.15349e+06 -0 7.59739e+06
196 2 -5.55 -5.55 -3.7 7.03291e+06 7.03291e+06 7.03291e+06 1.77877e-10 -0 -0 8.14475e+06 565011 8.14475e+06 4.00224e-10 7.59756e+06
197 2 -5.55 -7.4 -1.85 7.03291e+06 7.03256e+06 7.03291e+06 -0 -1.77877e-10 -0 8.14475e+06 565011 8.15349e+06 -0 7.59739e+06
198 2 -7.4 -5.55 -1.85 7.03256e+06 7.03291e+06 7.03291e+06 -0 -0 -1.77877e-10 8.15349e+06 565011 8.14475e+06 -0 7.59756e+06
199 2 -3.7 -7.4 -3.7 7.03291e+06 7.03256e+06 7.03291e+06 -0 -0 -0 8.14475e+06 565011 8.15349e+06 -0 7.59739e+06
200 2 -1.85 -5.55 -3.7 7.03291e+06 7.03291e+06 7.03291e+06 -1.77877e-10 -0 -0 8.14475e+06 565011 8.14475e+06 -4.00224e-10 7.59756e+06
201 2 -1.85 -7.4 -1.85 7.03291e+06 7.03256e+06 7.03291e+06 -0 1.77877e-10 -0 8.14475e+06 565011 8.15349e+06 -0 7.59739e+06
202 2 -3.7 -5.55 -1.85 7.03291e+06 7.03291e+06 7.03291e+06 -0 -0 -1.77877e-10 8.14475e+06 565011 8.14475e+06 -0 7.59756e+06
203 2 0 -7.4 -3.7 7.03291e+06 7.03256e+06 7.03291e+06 -0 -0 -0 8.14475e+06 565011 8.15349e+06 -0 7.59739e+06
204 2 1.85 -5.55 -3.7 7.03291e+06 7.03291e+06 7.03291e+06 -1.77877e-10 -0 -0 8.14475e+06 565011 8.14475e+06 5.31409e-09 7.59756e+06
205 2 1.85 -7.4 -1.85 7.03291e+06 7.03256e+06 7.03291e+06 -0 1.77877e-10 -0 8.14475e+06 565011 8.15349e+06 -0 7.59739e+06
206 2 0 -5.55 -1.85 7.03291e+06 7.03291e+06 7.03291e+06 1.77877e-10 -1.77877e-10 -1.77877e-10 8.14475e+06 565011 8.14475e+06 -5.31409e-09 7.59756e+06
207 2 3.7 -7.4 -3.7 7.03291e+06 7.03256e+06 7.03291e+06 -0 -0 -0 8.14475e+06 565011 8.15349e+06 -0 7.59739e+06
208 2 5.55 -5.55 -3.7 7.03291e+06 7.03291e+06 7.03291e+06 1.77877e-10 -0 -0 8.14475e+06 565011 8.14475e+06 2.44581e-10 7.59756e+06
209 2 5.55 -7.4 -1.85 7.03291e+06 7.03256e+06 7.03291e+06 -0 -1.77877e-10 -0 8.14475e+06 565011 8.15349e+06 -0 7.59739e+06
210 2 3.7 -5.55 -1.85 7.03291e+06 7.03291e+06 7.03291e+06 -0 -0 -1.77877e-10 8.14475e+06 565011 8.14475e+06 -0 7.59756e+06
211 2 7.4 -7.4 -3.7 7.03256e+06 7.03256e+06 7.03291e+06 -0 -0 -0 8.15349e+06 565011 8.15349e+06 -0 7.59739e+06
212 2 9.25 -5.55 -3.7 -3.32225e+07 5.75577e+06 5.75577e+06 -4.26208e-10 -2.22347e-11 -0 2.15109e+08 926205 7.19693e+06 1.13132e-08 6.38076e+06
213 2 9.25 -7.4 -1.85 -3.32225e+07 5.75403e+06 5.75577e+06 -4.62549 9.33856e-10 6.6704e-11 2.15109e+08 926217 7.23818e+06 -29.2312 6.37986e+06
214 2 7.4 -5.55 -1.85 7.03256e+06 7.03291e+06 7.03291e+06 -0 -0 -1.77877e-10 8.15349e+06 565011 8.14475e+06 -5.55867e-09 7.59756e+06
215 2 -9.25 -1.85 -3.7 -3.32225e+07 5.75577e+06 5.75577e+06 -3.18528e-10 4.44693e-11 6.6704e-11 2.15109e+08 926205 7.19693e+06 6.00878e-09 6.38076e+06
216 2 -9.25 -3.7 -1.85 -3.32225e+07 5.75577e+06 5.75577e+06 -0 -3.55755e-10 -0 2.15109e+08 926205 7.19693e+06 -0 6.38076e+06
217 2 -7.4 -3.7 -3.7 7.03256e+06 7.03291e+06 7.03291e+06 -0 -0 -0 8.15349e+06 565011 8.14475e+06 -0 7.59756e+06
218 2 -5.55 -1.85 -3.7 7.03291e+06 7.03291e+06 7.03291e+06 -1.77877e-10 -0 -0 8.14475e+06 565011 8.14475e+06 -4.00224e-10 7.59756e+06
219 2 -5.55 -3.7 -1.85 7.03291e+06 7.03291e+06 7.03291e+06 -0 -1.77877e-10 -0 8.14475e+06 565011 8.14475e+06 -0 7.59756e+06
220 2 -7.4 -1.85 -1.85 7.03256e+06 7.03291e+06 7.03291e+06 -0 -0 1.77877e-10 8.15349e+06 565011 8.14475e+06 -0 7.59756e+06
221 2 -3.7 -3.7 -3.7 7.03291e+06 7.03291e+06 7.03291e+06 -0 -0 -0 8.14475e+06 565011 8.14475e+06 -0 7.59756e+06