ITEM: TIMESTEP
0
ITEM: NUMBER OF ATOMS
3
ITEM: BOX BOUNDS xy xz yz pp pp pp
0.0000000000000000e+00 5.0000000000000000e+01 0.0000000000000000e+00
0.0000000000000000e+00 5.0000000000000000e+01 0.0000000000000000e+00
0.0000000000000000e+00 5.0000000000000000e+01 0.0000000000000000e+00
ITEM: ATOMS id type x y z c_1[1] c_1[2] c_1[3] c_1[4] c_1[5] c_1[6] c_1[7] c_1[22]
1 2 0.378614 0.321535 0 -2.96565e+08 -5.10053e+08 -0 -8.72824e+07 -0 -0 1.25916e+09 -1.66773e+09
2 2 0 0 0 -7.63391e+08 -1.79955e+08 -0 -2.11901e+08 -0 -0 -1.59138e+09 -1.42112e+09
3 2 0.5 0 0 -5.60919e+08 -3.30098e+08 -0 1.24619e+08 -0 -0 -2.92084e+09 -2.46611e+08
ITEM: TIMESTEP
1
ITEM: NUMBER OF ATOMS
3
ITEM: BOX BOUNDS xy xz yz pp pp pp
0.0000000000000000e+00 5.0000000000000000e+01 0.0000000000000000e+00
0.0000000000000000e+00 5.0000000000000000e+01 0.0000000000000000e+00
0.0000000000000000e+00 5.0000000000000000e+01 0.0000000000000000e+00
ITEM: ATOMS id type x y z c_1[1] c_1[2] c_1[3] c_1[4] c_1[5] c_1[6] c_1[7] c_1[22]
1 2 0.357678 0.344674 0 -2.56066e+08 -5.07383e+08 -0 -6.18644e+07 -0 -0 6.78747e+08 -1.06456e+09
2 2 0 0 0 -6.3839e+08 -1.8707e+08 -0 -1.94128e+08 -0 -0 -1.16974e+09 -8.43079e+08
3 2 0.5 0 0 -4.91553e+08 -3.20313e+08 -0 1.32264e+08 -0 -0 -1.92402e+09 -2.21479e+08
ITEM: TIMESTEP
2
ITEM: NUMBER OF ATOMS
3
ITEM: BOX BOUNDS xy xz yz pp pp pp
0.0000000000000000e+00 5.0000000000000000e+01 0.0000000000000000e+00
0.0000000000000000e+00 5.0000000000000000e+01 0.0000000000000000e+00
0.0000000000000000e+00 5.0000000000000000e+01 0.0000000000000000e+00
ITEM: ATOMS id type x y z c_1[1] c_1[2] c_1[3] c_1[4] c_1[5] c_1[6] c_1[7] c_1[22]
1 2 0.33533 0.366452 0 -2.2694e+08 -5.0488e+08 -0 -4.15144e+07 -0 -0 2.86206e+08 -6.20548e+08
2 2 0 0 0 -5.50454e+08 -1.96704e+08 -0 -1.79998e+08 -0 -0 -6.75801e+08 -4.26713e+08
3 2 0.5 0 0 -4.47973e+08 -3.08176e+08 -0 1.38483e+08 -0 -0 -1.04029e+09 -1.93835e+08
ITEM: TIMESTEP
3
ITEM: NUMBER OF ATOMS
3
ITEM: BOX BOUNDS xy xz yz pp pp pp
0.0000000000000000e+00 5.0000000000000000e+01 0.0000000000000000e+00
0.0000000000000000e+00 5.0000000000000000e+01 0.0000000000000000e+00
0.0000000000000000e+00 5.0000000000000000e+01 0.0000000000000000e+00
ITEM: ATOMS id type x y z c_1[1] c_1[2] c_1[3] c_1[4] c_1[5] c_1[6] c_1[7] c_1[22]
1 2 0.311658 0.386785 0 -2.06461e+08 -5.04799e+08 -0 -2.63374e+07 -0 -0 4.68635e+07 -3.1707e+08
2 2 0 0 0 -4.92348e+08 -2.10523e+08 -0 -1.69633e+08 -0 -0 -1.38017e+08 -1.5241e+08
3 2 0.5 0 0 -4.2544e+08 -2.94276e+08 -0 1.43295e+08 -0 -0 -2.62966e+08 -1.6466e+08
ITEM: TIMESTEP
4
ITEM: NUMBER OF ATOMS
3
ITEM: BOX BOUNDS xy xz yz pp pp pp
0.0000000000000000e+00 5.0000000000000000e+01 0.0000000000000000e+00
0.0000000000000000e+00 5.0000000000000000e+01 0.0000000000000000e+00
0.0000000000000000e+00 5.0000000000000000e+01 0.0000000000000000e+00
ITEM: ATOMS id type x y z c_1[1] c_1[2] c_1[3] c_1[4] c_1[5] c_1[6] c_1[7] c_1[22]
1 2 0.286757 0.405591 0 -1.91681e+08 -5.08232e+08 -0 -1.52372e+07 -0 -0 -5.42567e+07 -1.75779e+08
2 2 0 0 0 -4.58077e+08 -2.29114e+08 -0 -1.61986e+08 -0 -0 3.48713e+08 -4.09456e+07
3 2 0.5 0 0 -4.20706e+08 -2.79118e+08 -0 1.46749e+08 -0 -0 3.28427e+08 -1.34833e+08
ITEM: TIMESTEP
5
ITEM: NUMBER OF ATOMS
3
ITEM: BOX BOUNDS xy xz yz pp pp pp
0.0000000000000000e+00 5.0000000000000000e+01 0.0000000000000000e+00
0.0000000000000000e+00 5.0000000000000000e+01 0.0000000000000000e+00
0.0000000000000000e+00 5.0000000000000000e+01 0.0000000000000000e+00
ITEM: ATOMS id type x y z c_1[1] c_1[2] c_1[3] c_1[4] c_1[5] c_1[6] c_1[7] c_1[22]
1 2 0.260724 0.422796 0 -1.7895e+08 -5.12089e+08 -0 -4.60449e+06 -0 -0 -6.28702e+07 -1.81913e+08
2 2 0 0 0 -4.37135e+08 -2.48955e+08 -0 -1.53522e+08 -0 -0 4.9179e+08 -7.6777e+07
3 2 0.5 0 0 -4.26741e+08 -2.63134e+08 -0 1.48918e+08 -0 -0 4.87313e+08 -1.05136e+08
ITEM: TIMESTEP
6
ITEM: NUMBER OF ATOMS
3
ITEM: BOX BOUNDS xy xz yz pp pp pp
0.0000000000000000e+00 5.0000000000000000e+01 0.0000000000000000e+00
0.0000000000000000e+00 5.0000000000000000e+01 0.0000000000000000e+00
0.0000000000000000e+00 5.0000000000000000e+01 0.0000000000000000e+00
ITEM: ATOMS id type x y z c_1[1] c_1[2] c_1[3] c_1[4] c_1[5] c_1[6] c_1[7] c_1[22]
1 2 0.233662 0.438332 0 -1.67118e+08 -5.14283e+08 -0 7.25301e+06 -0 -0 -6.10285e+07 -1.9795e+08
2 2 0 0 0 -4.18502e+08 -2.67588e+08 -0 -1.42643e+08 -0 -0 4.87185e+08 -1.1895e+08
3 2 0.5 0 0 -4.33542e+08 -2.46695e+08 -0 1.49896e+08 -0 -0 4.93759e+08 -7.9e+07
ITEM: TIMESTEP
7
ITEM: NUMBER OF ATOMS
3
ITEM: BOX BOUNDS xy xz yz pp pp pp
0.0000000000000000e+00 5.0000000000000000e+01 0.0000000000000000e+00
0.0000000000000000e+00 5.0000000000000000e+01 0.0000000000000000e+00
0.0000000000000000e+00 5.0000000000000000e+01 0.0000000000000000e+00
ITEM: ATOMS id type x y z c_1[1] c_1[2] c_1[3] c_1[4] c_1[5] c_1[6] c_1[7] c_1[22]
1 2 0.205677 0.452139 0 -1.67339e+08 -5.4058e+08 -0 3.70447e+07 -0 -0 1.10441e+08 -7.50707e+08
2 2 0 0 0 -4.01379e+08 -2.84711e+08 -0 -1.29515e+08 -0 -0 4.87427e+08 -1.62175e+08
3 2 0.5 0 0 -4.50886e+08 -2.55869e+08 -0 1.66559e+08 -0 -0 6.64987e+08 -5.88531e+08
ITEM: TIMESTEP
8
ITEM: NUMBER OF ATOMS
3
ITEM: BOX BOUNDS xy xz yz pp pp pp
0.0000000000000000e+00 5.0000000000000000e+01 0.0000000000000000e+00
0.0000000000000000e+00 5.0000000000000000e+01 0.0000000000000000e+00
0.0000000000000000e+00 5.0000000000000000e+01 0.0000000000000000e+00
ITEM: ATOMS id type x y z c_1[1] c_1[2] c_1[3] c_1[4] c_1[5] c_1[6] c_1[7] c_1[22]
1 2 0.176881 0.464162 0 -2.02685e+08 -6.28387e+08 -0 1.1422e+08 -0 -0 2.95004e+08 -1.39529e+09
2 2 0 0 0 -3.86037e+08 -3.00053e+08 -0 -1.14344e+08 -0 -0 4.91282e+08 -2.04545e+08
3 2 0.5 0 0 -5.01574e+08 -3.28333e+08 -0 2.28564e+08 -0 -0 8.45694e+08 -1.19075e+09
ITEM: TIMESTEP
9
ITEM: NUMBER OF ATOMS
3
ITEM: BOX BOUNDS xy xz yz pp pp pp
0.0000000000000000e+00 5.0000000000000000e+01 0.0000000000000000e+00
0.0000000000000000e+00 5.0000000000000000e+01 0.0000000000000000e+00
0.0000000000000000e+00 5.0000000000000000e+01 0.0000000000000000e+00
ITEM: ATOMS id type x y z c_1[1] c_1[2] c_1[3] c_1[4] c_1[5] c_1[6] c_1[7] c_1[22]
1 2 0.147387 0.474352 0 -2.63457e+08 -7.35401e+08 -0 2.16348e+08 -0 -0 3.58322e+08 -1.56471e+09
2 2 0 0 0 -3.72717e+08 -3.13373e+08 -0 -9.73692e+07 -0 -0 4.97419e+08 -2.44117e+08
3 2 0.5 0 0 -5.75666e+08 -4.22028e+08 -0 3.13717e+08 -0 -0 9.02877e+08 -1.3206e+09
ITEM: TIMESTEP
10
ITEM: NUMBER OF ATOMS
3
ITEM: BOX BOUNDS xy xz yz pp pp pp
0.0000000000000000e+00 5.0000000000000000e+01 0.0000000000000000e+00
0.0000000000000000e+00 5.0000000000000000e+01 0.0000000000000000e+00
0.0000000000000000e+00 5.0000000000000000e+01 0.0000000000000000e+00
ITEM: ATOMS id type x y z c_1[1] c_1[2] c_1[3] c_1[4] c_1[5] c_1[6] c_1[7] c_1[22]
1 2 0.117312 0.482671 0 -3.2432e+08 -8.09894e+08 -0 3.06019e+08 -0 -0 3.25592e+08 -1.18587e+09
2 2 0 0 0 -3.61629e+08 -3.24461e+08 -0 -7.88593e+07 -0 -0 5.04503e+08 -2.79033e+08
3 2 0.5 0 0 -6.47616e+08 -4.85433e+08 -0 3.84879e+08 -0 -0 8.63062e+08 -9.06841e+08
ITEM: TIMESTEP
11
ITEM: NUMBER OF ATOMS
3
ITEM: BOX BOUNDS xy xz yz pp pp pp
0.0000000000000000e+00 5.0000000000000000e+01 0.0000000000000000e+00
0.0000000000000000e+00 5.0000000000000000e+01 0.0000000000000000e+00
0.0000000000000000e+00 5.0000000000000000e+01 0.0000000000000000e+00
ITEM: ATOMS id type x y z c_1[1] c_1[2] c_1[3] c_1[4] c_1[5] c_1[6] c_1[7] c_1[22]
1 2 0.0867732 0.489084 0 -3.60423e+08 -8.23348e+08 -0 3.5507e+08 -0 -0 2.66167e+08 -4.3872e+08
2 2 0 0 0 -3.52949e+08 -3.33141e+08 -0 -5.91057e+07 -0 -0 5.11303e+08 -3.07621e+08
3 2 0.5 0 0 -6.92399e+08 -4.90207e+08 -0 4.14175e+08 -0 -0 7.96837e+08 -1.31099e+08
ITEM: TIMESTEP
12
ITEM: NUMBER OF ATOMS
3
ITEM: BOX BOUNDS xy xz yz pp pp pp
0.0000000000000000e+00 5.0000000000000000e+01 0.0000000000000000e+00
0.0000000000000000e+00 5.0000000000000000e+01 0.0000000000000000e+00
0.0000000000000000e+00 5.0000000000000000e+01 0.0000000000000000e+00
ITEM: ATOMS id type x y z c_1[1] c_1[2] c_1[3] c_1[4] c_1[5] c_1[6] c_1[7] c_1[22]
1 2 0.0558921 0.493568 0 -3.55329e+08 -7.72784e+08 -0 3.51646e+08 -0 -0 2.33136e+08 4.1934e+08
2 2 0 0 0 -3.46814e+08 -3.39276e+08 -0 -3.842e+07 -0 -0 5.16774e+08 -3.28494e+08
3 2 0.5 0 0 -6.93441e+08 -4.33507e+08 -0 3.90066e+08 -0 -0 7.58335e+08 7.47834e+08
ITEM: TIMESTEP
13
ITEM: NUMBER OF ATOMS
3
ITEM: BOX BOUNDS xy xz yz pp pp pp
0.0000000000000000e+00 5.0000000000000000e+01 0.0000000000000000e+00
0.0000000000000000e+00 5.0000000000000000e+01 0.0000000000000000e+00
0.0000000000000000e+00 5.0000000000000000e+01 0.0000000000000000e+00
ITEM: ATOMS id type x y z c_1[1] c_1[2] c_1[3] c_1[4] c_1[5] c_1[6] c_1[7] c_1[22]
1 2 0.0247904 0.496103 0 -3.03053e+08 -6.72126e+08 -0 2.98356e+08 -0 -0 2.40876e+08 1.16954e+09
2 2 0 0 0 -3.43319e+08 -3.42771e+08 -0 -1.71284e+07 -0 -0 5.20136e+08 -3.40628e+08
3 2 0.5 0 0 -6.4466e+08 -3.29355e+08 -0 3.15484e+08 -0 -0 7.62713e+08 1.51017e+09
ITEM: TIMESTEP
14
ITEM: NUMBER OF ATOMS
3
ITEM: BOX BOUNDS xy xz yz pp pp pp
0.0000000000000000e+00 5.0000000000000000e+01 0.0000000000000000e+00
0.0000000000000000e+00 5.0000000000000000e+01 0.0000000000000000e+00
0.0000000000000000e+00 5.0000000000000000e+01 0.0000000000000000e+00
ITEM: ATOMS id type x y z c_1[1] c_1[2] c_1[3] c_1[4] c_1[5] c_1[6] c_1[7] c_1[22]
1 2 -0.00640907 0.496681 0 -2.06503e+08 -5.4216e+08 -0 2.06913e+08 -0 -0 2.69129e+08 1.68105e+09
2 2 0 0 0 -3.4252e+08 -3.4357e+08 -0 4.43336e+06 -0 -0 5.20929e+08 -3.43426e+08
3 2 0.5 0 0 -5.48909e+08 -1.9859e+08 -0 2.0248e+08 -0 -0 7.90172e+08 2.02447e+09
ITEM: TIMESTEP
15
ITEM: NUMBER OF ATOMS
3
ITEM: BOX BOUNDS xy xz yz pp pp pp
0.0000000000000000e+00 5.0000000000000000e+01 0.0000000000000000e+00
0.0000000000000000e+00 5.0000000000000000e+01 0.0000000000000000e+00
0.0000000000000000e+00 5.0000000000000000e+01 0.0000000000000000e+00
ITEM: ATOMS id type x y z c_1[1] c_1[2] c_1[3] c_1[4] c_1[5] c_1[6] c_1[7] c_1[22]
1 2 -0.0375833 0.495298 0 -7.44535e+07 -4.03192e+08 -0 9.27099e+07 -0 -0 2.78801e+08 1.91167e+09
2 2 0 0 0 -3.4443e+08 -3.4166e+08 -0 2.59252e+07 -0 -0 5.19047e+08 -3.3675e+08
3 2 0.5 0 0 -4.14949e+08 -6.15316e+07 -0 6.67847e+07 -0 -0 8.01726e+08 2.24842e+09
ITEM: TIMESTEP
16
ITEM: NUMBER OF ATOMS
3
ITEM: BOX BOUNDS xy xz yz pp pp pp
0.0000000000000000e+00 5.0000000000000000e+01 0.0000000000000000e+00
0.0000000000000000e+00 5.0000000000000000e+01 0.0000000000000000e+00
0.0000000000000000e+00 5.0000000000000000e+01 0.0000000000000000e+00
ITEM: ATOMS id type x y z c_1[1] c_1[2] c_1[3] c_1[4] c_1[5] c_1[6] c_1[7] c_1[22]
1 2 -0.0686092 0.491961 0 -6.55578e+06 -3.37071e+08 -0 4.70081e+07 -0 -0 -6.24183e+06 -3.20929e+08
2 2 0 0 0 -3.49019e+08 -3.37071e+08 -0 4.70081e+07 -0 -0 5.14745e+08 -3.20929e+08
3 2 0.5 0 0 -3.42463e+08 -0 -0 -0 -0 -0 5.20986e+08 -0
ITEM: TIMESTEP
17
ITEM: NUMBER OF ATOMS
3
ITEM: BOX BOUNDS xy xz yz pp pp pp
0.0000000000000000e+00 5.0000000000000000e+01 0.0000000000000000e+00
0.0000000000000000e+00 5.0000000000000000e+01 0.0000000000000000e+00
0.0000000000000000e+00 5.0000000000000000e+01 0.0000000000000000e+00
ITEM: ATOMS id type x y z c_1[1] c_1[2] c_1[3] c_1[4] c_1[5] c_1[6] c_1[7] c_1[22]
1 2 -0.0993643 0.486682 0 -1.37506e+07 -3.29877e+08 -0 6.73498e+07 -0 -0 -1.23694e+07 -2.96742e+08
2 2 0 0 0 -3.56213e+08 -3.29877e+08 -0 6.73498e+07 -0 -0 5.08617e+08 -2.96742e+08
3 2 0.5 0 0 -3.42463e+08 -0 -0 -0 -0 -0 5.20986e+08 -0
ITEM: TIMESTEP
18
ITEM: NUMBER OF ATOMS
3
ITEM: BOX BOUNDS xy xz yz pp pp pp
0.0000000000000000e+00 5.0000000000000000e+01 0.0000000000000000e+00
0.0000000000000000e+00 5.0000000000000000e+01 0.0000000000000000e+00
0.0000000000000000e+00 5.0000000000000000e+01 0.0000000000000000e+00
ITEM: ATOMS id type x y z c_1[1] c_1[2] c_1[3] c_1[4] c_1[5] c_1[6] c_1[7] c_1[22]
1 2 -0.129727 0.479483 0 -2.34381e+07 -3.20189e+08 -0 8.66292e+07 -0 -0 -1.94252e+07 -2.65369e+08
2 2 0 0 0 -3.65901e+08 -3.20189e+08 -0 8.66292e+07 -0 -0 5.01561e+08 -2.65369e+08
3 2 0.5 0 0 -3.42463e+08 -0 -0 -0 -0 -0 5.20986e+08 -0
ITEM: TIMESTEP
19
ITEM: NUMBER OF ATOMS
3
ITEM: BOX BOUNDS xy xz yz pp pp pp
0.0000000000000000e+00 5.0000000000000000e+01 0.0000000000000000e+00
0.0000000000000000e+00 5.0000000000000000e+01 0.0000000000000000e+00
0.0000000000000000e+00 5.0000000000000000e+01 0.0000000000000000e+00
ITEM: ATOMS id type x y z c_1[1] c_1[2] c_1[3] c_1[4] c_1[5] c_1[6] c_1[7] c_1[22]
1 2 -0.159578 0.470391 0 -3.54656e+07 -3.08161e+08 -0 1.04543e+08 -0 -0 -2.62774e+07 -2.28325e+08
2 2 0 0 0 -3.77928e+08 -3.08161e+08 -0 1.04543e+08 -0 -0 4.94709e+08 -2.28325e+08
3 2 0.5 0 0 -3.42463e+08 -0 -0 -0 -0 -0 5.20986e+08 -0
ITEM: TIMESTEP
20
ITEM: NUMBER OF ATOMS
3
ITEM: BOX BOUNDS xy xz yz pp pp pp
0.0000000000000000e+00 5.0000000000000000e+01 0.0000000000000000e+00
0.0000000000000000e+00 5.0000000000000000e+01 0.0000000000000000e+00
0.0000000000000000e+00 5.0000000000000000e+01 0.0000000000000000e+00
ITEM: ATOMS id type x y z c_1[1] c_1[2] c_1[3] c_1[4] c_1[5] c_1[6] c_1[7] c_1[22]
1 2 -0.188799 0.459443 0 -4.96434e+07 -2.93984e+08 -0 1.20807e+08 -0 -0 -3.16404e+07 -1.87372e+08
2 2 0 0 0 -3.92106e+08 -2.93984e+08 -0 1.20807e+08 -0 -0 4.89346e+08 -1.87372e+08
3 2 0.5 0 0 -3.42463e+08 -0 -0 -0 -0 -0 5.20986e+08 -0
ITEM: TIMESTEP
21
ITEM: NUMBER OF ATOMS
3
ITEM: BOX BOUNDS xy xz yz pp pp pp
0.0000000000000000e+00 5.0000000000000000e+01 0.0000000000000000e+00
0.0000000000000000e+00 5.0000000000000000e+01 0.0000000000000000e+00
0.0000000000000000e+00 5.0000000000000000e+01 0.0000000000000000e+00
ITEM: ATOMS id type x y z c_1[1] c_1[2] c_1[3] c_1[4] c_1[5] c_1[6] c_1[7] c_1[22]
1 2 -0.217276 0.446682 0 -6.57479e+07 -2.77879e+08 -0 1.35166e+08 -0 -0 -3.41694e+07 -1.44415e+08
2 2 0 0 0 -4.08211e+08 -2.77879e+08 -0 1.35166e+08 -0 -0 4.86817e+08 -1.44415e+08
3 2 0.5 0 0 -3.42463e+08 -0 -0 -0 -0 -0 5.20986e+08 -0
ITEM: TIMESTEP
22
ITEM: NUMBER OF ATOMS
3
ITEM: BOX BOUNDS xy xz yz pp pp pp
0.0000000000000000e+00 5.0000000000000000e+01 0.0000000000000000e+00
0.0000000000000000e+00 5.0000000000000000e+01 0.0000000000000000e+00
0.0000000000000000e+00 5.0000000000000000e+01 0.0000000000000000e+00
ITEM: ATOMS id type x y z c_1[1] c_1[2] c_1[3] c_1[4] c_1[5] c_1[6] c_1[7] c_1[22]
1 2 -0.244894 0.432157 0 -8.35251e+07 -2.60102e+08 -0 1.47394e+08 -0 -0 -3.25607e+07 -1.01396e+08
2 2 0 0 0 -4.25988e+08 -2.60102e+08 -0 1.47394e+08 -0 -0 4.88426e+08 -1.01396e+08
3 2 0.5 0 0 -3.42463e+08 -0 -0 -0 -0 -0 5.20986e+08 -0
ITEM: TIMESTEP
23
ITEM: NUMBER OF ATOMS
3
ITEM: BOX BOUNDS xy xz yz pp pp pp
0.0000000000000000e+00 5.0000000000000000e+01 0.0000000000000000e+00
0.0000000000000000e+00 5.0000000000000000e+01 0.0000000000000000e+00
0.0000000000000000e+00 5.0000000000000000e+01 0.0000000000000000e+00
ITEM: ATOMS id type x y z c_1[1] c_1[2] c_1[3] c_1[4] c_1[5] c_1[6] c_1[7] c_1[22]
1 2 -0.271546 0.415927 0 -1.02695e+08 -2.40932e+08 -0 1.57297e+08 -0 -0 -2.56514e+07 -6.01809e+07
2 2 0 0 0 -4.45158e+08 -2.40932e+08 -0 1.57297e+08 -0 -0 4.95335e+08 -6.01809e+07
3 2 0.5 0 0 -3.42463e+08 -0 -0 -0 -0 -0 5.20986e+08 -0
ITEM: TIMESTEP
24
ITEM: NUMBER OF ATOMS
3
ITEM: BOX BOUNDS xy xz yz pp pp pp
0.0000000000000000e+00 5.0000000000000000e+01 0.0000000000000000e+00
0.0000000000000000e+00 5.0000000000000000e+01 0.0000000000000000e+00
0.0000000000000000e+00 5.0000000000000000e+01 0.0000000000000000e+00
ITEM: ATOMS id type x y z c_1[1] c_1[2] c_1[3] c_1[4] c_1[5] c_1[6] c_1[7] c_1[22]
1 2 -0.297127 0.398056 0 -1.22954e+08 -2.20673e+08 -0 1.6472e+08 -0 -0 -1.25127e+07 -2.24572e+07
2 2 0 0 0 -4.65417e+08 -2.20673e+08 -0 1.6472e+08 -0 -0 5.08474e+08 -2.24572e+07
3 2 0.5 0 0 -3.42463e+08 -0 -0 -0 -0 -0 5.20986e+08 -0
ITEM: TIMESTEP
25
ITEM: NUMBER OF ATOMS
3
ITEM: BOX BOUNDS xy xz yz pp pp pp
0.0000000000000000e+00 5.0000000000000000e+01 0.0000000000000000e+00
0.0000000000000000e+00 5.0000000000000000e+01 0.0000000000000000e+00
0.0000000000000000e+00 5.0000000000000000e+01 0.0000000000000000e+00
ITEM: ATOMS id type x y z c_1[1] c_1[2] c_1[3] c_1[4] c_1[5] c_1[6] c_1[7] c_1[22]
1 2 -0.321535 0.378614 0 -1.43984e+08 -1.99643e+08 -0 1.69545e+08 -0 -0 7.47038e+06 1.03581e+07
2 2 0 0 0 -4.86447e+08 -1.99643e+08 -0 1.69545e+08 -0 -0 5.28457e+08 1.03581e+07
3 2 0.5 0 0 -3.42463e+08 -0 -0 -0 -0 -0 5.20986e+08 -0
ITEM: TIMESTEP
26
ITEM: NUMBER OF ATOMS
3
ITEM: BOX BOUNDS xy xz yz pp pp pp
0.0000000000000000e+00 5.0000000000000000e+01 0.0000000000000000e+00
0.0000000000000000e+00 5.0000000000000000e+01 0.0000000000000000e+00
0.0000000000000000e+00 5.0000000000000000e+01 0.0000000000000000e+00
ITEM: ATOMS id type x y z c_1[1] c_1[2] c_1[3] c_1[4] c_1[5] c_1[6] c_1[7] c_1[22]
1 2 -0.344674 0.357678 0 -1.65453e+08 -1.78174e+08 -0 1.71696e+08 -0 -0 3.45376e+07 3.71929e+07
2 2 0 0 0 -5.07916e+08 -1.78174e+08 -0 1.71696e+08 -0 -0 5.55524e+08 3.71929e+07
3 2 0.5 0 0 -3.42463e+08 -0 -0 -0 -0 -0 5.20986e+08 -0
ITEM: TIMESTEP
27
ITEM: NUMBER OF ATOMS
3
ITEM: BOX BOUNDS xy xz yz pp pp pp
0.0000000000000000e+00 5.0000000000000000e+01 0.0000000000000000e+00
0.0000000000000000e+00 5.0000000000000000e+01 0.0000000000000000e+00
0.0000000000000000e+00 5.0000000000000000e+01 0.0000000000000000e+00
ITEM: ATOMS id type x y z c_1[1] c_1[2] c_1[3] c_1[4] c_1[5] c_1[6] c_1[7] c_1[22]
1 2 -0.366452 0.33533 0 -1.87023e+08 -1.56604e+08 -0 1.71139e+08 -0 -0 6.85148e+07 5.73711e+07
2 2 0 0 0 -5.29486e+08 -1.56604e+08 -0 1.71139e+08 -0 -0 5.89501e+08 5.73711e+07
3 2 0.5 0 0 -3.42463e+08 -0 -0 -0 -0 -0 5.20986e+08 -0
ITEM: TIMESTEP
28
ITEM: NUMBER OF ATOMS
3
ITEM: BOX BOUNDS xy xz yz pp pp pp
0.0000000000000000e+00 5.0000000000000000e+01 0.0000000000000000e+00
0.0000000000000000e+00 5.0000000000000000e+01 0.0000000000000000e+00
0.0000000000000000e+00 5.0000000000000000e+01 0.0000000000000000e+00
ITEM: ATOMS id type x y z c_1[1] c_1[2] c_1[3] c_1[4] c_1[5] c_1[6] c_1[7] c_1[22]
1 2 -0.386785 0.311658 0 -2.08352e+08 -1.35275e+08 -0 1.67883e+08 -0 -0 1.08801e+08 7.064e+07
2 2 0 0 0 -5.50815e+08 -1.35275e+08 -0 1.67883e+08 -0 -0 6.29787e+08 7.064e+07
3 2 0.5 0 0 -3.42463e+08 -0 -0 -0 -0 -0 5.20986e+08 -0
ITEM: TIMESTEP
29
ITEM: NUMBER OF ATOMS
3
ITEM: BOX BOUNDS xy xz yz pp pp pp
0.0000000000000000e+00 5.0000000000000000e+01 0.0000000000000000e+00
0.0000000000000000e+00 5.0000000000000000e+01 0.0000000000000000e+00
0.0000000000000000e+00 5.0000000000000000e+01 0.0000000000000000e+00
ITEM: ATOMS id type x y z c_1[1] c_1[2] c_1[3] c_1[4] c_1[5] c_1[6] c_1[7] c_1[22]
1 2 -0.405591 0.286757 0 -2.29106e+08 -1.14522e+08 -0 1.6198e+08 -0 -0 1.54381e+08 7.71695e+07
2 2 0 0 0 -5.71568e+08 -1.14522e+08 -0 1.6198e+08 -0 -0 6.75367e+08 7.71695e+07
3 2 0.5 0 0 -3.42463e+08 -0 -0 -0 -0 -0 5.20986e+08 -0
ITEM: TIMESTEP
30
ITEM: NUMBER OF ATOMS
3
ITEM: BOX BOUNDS xy xz yz pp pp pp
0.0000000000000000e+00 5.0000000000000000e+01 0.0000000000000000e+00
0.0000000000000000e+00 5.0000000000000000e+01 0.0000000000000000e+00
0.0000000000000000e+00 5.0000000000000000e+01 0.0000000000000000e+00
ITEM: ATOMS id type x y z c_1[1] c_1[2] c_1[3] c_1[4] c_1[5] c_1[6] c_1[7] c_1[22]
1 2 -0.422796 0.260724 0 -2.48955e+08 -9.46718e+07 -0 1.53522e+08 -0 -0 2.03867e+08 7.75259e+07
2 2 0 0 0 -5.91418e+08 -9.46718e+07 -0 1.53522e+08 -0 -0 7.24854e+08 7.75259e+07
3 2 0.5 0 0 -3.42463e+08 -0 -0 -0 -0 -0 5.20986e+08 -0
ITEM: TIMESTEP
31
ITEM: NUMBER OF ATOMS
3
ITEM: BOX BOUNDS xy xz yz pp pp pp
0.0000000000000000e+00 5.0000000000000000e+01 0.0000000000000000e+00
0.0000000000000000e+00 5.0000000000000000e+01 0.0000000000000000e+00
0.0000000000000000e+00 5.0000000000000000e+01 0.0000000000000000e+00
ITEM: ATOMS id type x y z c_1[1] c_1[2] c_1[3] c_1[4] c_1[5] c_1[6] c_1[7] c_1[22]
1 2 -0.438332 0.233662 0 -2.67588e+08 -7.60387e+07 -0 1.42643e+08 -0 -0 2.55561e+08 7.2621e+07
2 2 0 0 0 -6.10051e+08 -7.60387e+07 -0 1.42643e+08 -0 -0 7.76547e+08 7.2621e+07
3 2 0.5 0 0 -3.42463e+08 -0 -0 -0 -0 -0 5.20986e+08 -0
ITEM: TIMESTEP
32
ITEM: NUMBER OF ATOMS
3
ITEM: BOX BOUNDS xy xz yz pp pp pp
0.0000000000000000e+00 5.0000000000000000e+01 0.0000000000000000e+00
0.0000000000000000e+00 5.0000000000000000e+01 0.0000000000000000e+00
0.0000000000000000e+00 5.0000000000000000e+01 0.0000000000000000e+00
ITEM: ATOMS id type x y z c_1[1] c_1[2] c_1[3] c_1[4] c_1[5] c_1[6] c_1[7] c_1[22]
1 2 -0.452139 0.205677 0 -2.84711e+08 -5.8916e+07 -0 1.29515e+08 -0 -0 3.07539e+08 6.36399e+07
2 2 0 0 0 -6.27174e+08 -5.8916e+07 -0 1.29515e+08 -0 -0 8.28526e+08 6.36399e+07
3 2 0.5 0 0 -3.42463e+08 -0 -0 -0 -0 -0 5.20986e+08 -0
ITEM: TIMESTEP
33
ITEM: NUMBER OF ATOMS
3
ITEM: BOX BOUNDS xy xz yz pp pp pp
0.0000000000000000e+00 5.0000000000000000e+01 0.0000000000000000e+00
0.0000000000000000e+00 5.0000000000000000e+01 0.0000000000000000e+00
0.0000000000000000e+00 5.0000000000000000e+01 0.0000000000000000e+00
ITEM: ATOMS id type x y z c_1[1] c_1[2] c_1[3] c_1[4] c_1[5] c_1[6] c_1[7] c_1[22]
1 2 -0.464162 0.176881 0 -3.00053e+08 -4.35737e+07 -0 1.14344e+08 -0 -0 3.57754e+08 5.19529e+07
2 2 0 0 0 -6.42516e+08 -4.35737e+07 -0 1.14344e+08 -0 -0 8.7874e+08 5.19529e+07
3 2 0.5 0 0 -3.42463e+08 -0 -0 -0 -0 -0 5.20986e+08 -0
ITEM: TIMESTEP
34
ITEM: NUMBER OF ATOMS
3
ITEM: BOX BOUNDS xy xz yz pp pp pp
0.0000000000000000e+00 5.0000000000000000e+01 0.0000000000000000e+00
0.0000000000000000e+00 5.0000000000000000e+01 0.0000000000000000e+00
0.0000000000000000e+00 5.0000000000000000e+01 0.0000000000000000e+00
ITEM: ATOMS id type x y z c_1[1] c_1[2] c_1[3] c_1[4] c_1[5] c_1[6] c_1[7] c_1[22]
1 2 -0.474352 0.147387 0 -3.13373e+08 -3.02539e+07 -0 9.73692e+07 -0 -0 4.04139e+08 3.90167e+07
2 2 0 0 0 -6.55836e+08 -3.02539e+07 -0 9.73692e+07 -0 -0 9.25126e+08 3.90167e+07
3 2 0.5 0 0 -3.42463e+08 -0 -0 -0 -0 -0 5.20986e+08 -0
ITEM: TIMESTEP
35
ITEM: NUMBER OF ATOMS
3
ITEM: BOX BOUNDS xy xz yz pp pp pp
0.0000000000000000e+00 5.0000000000000000e+01 0.0000000000000000e+00
0.0000000000000000e+00 5.0000000000000000e+01 0.0000000000000000e+00
0.0000000000000000e+00 5.0000000000000000e+01 0.0000000000000000e+00
ITEM: ATOMS id type x y z c_1[1] c_1[2] c_1[3] c_1[4] c_1[5] c_1[6] c_1[7] c_1[22]
1 2 -0.482671 0.117312 0 -3.24461e+08 -1.91665e+07 -0 7.88593e+07 -0 -0 4.44728e+08 2.6271e+07
2 2 0 0 0 -6.66923e+08 -1.91665e+07 -0 7.88593e+07 -0 -0 9.65715e+08 2.6271e+07
3 2 0.5 0 0 -3.42463e+08 -0 -0 -0 -0 -0 5.20986e+08 -0
ITEM: TIMESTEP
36
ITEM: NUMBER OF ATOMS
3
ITEM: BOX BOUNDS xy xz yz pp pp pp
0.0000000000000000e+00 5.0000000000000000e+01 0.0000000000000000e+00
0.0000000000000000e+00 5.0000000000000000e+01 0.0000000000000000e+00
0.0000000000000000e+00 5.0000000000000000e+01 0.0000000000000000e+00
ITEM: ATOMS id type x y z c_1[1] c_1[2] c_1[3] c_1[4] c_1[5] c_1[6] c_1[7] c_1[22]
1 2 -0.489084 0.0867732 0 -3.33141e+08 -1.04865e+07 -0 5.91057e+07 -0 -0 4.77759e+08 1.50388e+07
2 2 0 0 0 -6.75603e+08 -1.04865e+07 -0 5.91057e+07 -0 -0 9.98745e+08 1.50388e+07
3 2 0.5 0 0 -3.42463e+08 -0 -0 -0 -0 -0 5.20986e+08 -0
ITEM: TIMESTEP
37
ITEM: NUMBER OF ATOMS
3
ITEM: BOX BOUNDS xy xz yz pp pp pp
0.0000000000000000e+00 5.0000000000000000e+01 0.0000000000000000e+00
0.0000000000000000e+00 5.0000000000000000e+01 0.0000000000000000e+00
0.0000000000000000e+00 5.0000000000000000e+01 0.0000000000000000e+00
ITEM: ATOMS id type x y z c_1[1] c_1[2] c_1[3] c_1[4] c_1[5] c_1[6] c_1[7] c_1[22]
1 2 -0.493568 0.0558921 0 -3.39276e+08 -4.35072e+06 -0 3.842e+07 -0 -0 5.01772e+08 6.43449e+06
2 2 0 0 0 -6.81739e+08 -4.35072e+06 -0 3.842e+07 -0 -0 1.02276e+09 6.43449e+06
3 2 0.5 0 0 -3.42463e+08 -0 -0 -0 -0 -0 5.20986e+08 -0
ITEM: TIMESTEP
38
ITEM: NUMBER OF ATOMS
3
ITEM: BOX BOUNDS xy xz yz pp pp pp
0.0000000000000000e+00 5.0000000000000000e+01 0.0000000000000000e+00
0.0000000000000000e+00 5.0000000000000000e+01 0.0000000000000000e+00
0.0000000000000000e+00 5.0000000000000000e+01 0.0000000000000000e+00
ITEM: ATOMS id type x y z c_1[1] c_1[2] c_1[3] c_1[4] c_1[5] c_1[6] c_1[7] c_1[22]
1 2 -0.496103 0.0247904 0 -3.42771e+08 -855910 -0 1.71284e+07 -0 -0 5.15696e+08 1.28771e+06
2 2 0 0 0 -6.85234e+08 -855910 -0 1.71284e+07 -0 -0 1.03668e+09 1.28771e+06
3 2 0.5 0 0 -3.42463e+08 -0 -0 -0 -0 -0 5.20986e+08 -0
ITEM: TIMESTEP
39
ITEM: NUMBER OF ATOMS
3
ITEM: BOX BOUNDS xy xz yz pp pp pp
0.0000000000000000e+00 5.0000000000000000e+01 0.0000000000000000e+00
0.0000000000000000e+00 5.0000000000000000e+01 0.0000000000000000e+00
0.0000000000000000e+00 5.0000000000000000e+01 0.0000000000000000e+00
ITEM: ATOMS id type x y z c_1[1] c_1[2] c_1[3] c_1[4] c_1[5] c_1[6] c_1[7] c_1[22]
1 2 -0.496681 -0.00640907 0 -3.4357e+08 -57207.2 -0 -4.43336e+06 -0 -0 5.18903e+08 86401.6
2 2 0 0 0 -6.86033e+08 -57207.2 -0 -4.43336e+06 -0 -0 1.03989e+09 86401.6
3 2 0.5 0 0 -3.42463e+08 -0 -0 -0 -0 -0 5.20986e+08 -0
ITEM: TIMESTEP
40
ITEM: NUMBER OF ATOMS
3
ITEM: BOX BOUNDS xy xz yz pp pp pp
0.0000000000000000e+00 5.0000000000000000e+01 0.0000000000000000e+00
0.0000000000000000e+00 5.0000000000000000e+01 0.0000000000000000e+00
0.0000000000000000e+00 5.0000000000000000e+01 0.0000000000000000e+00
ITEM: ATOMS id type x y z c_1[1] c_1[2] c_1[3] c_1[4] c_1[5] c_1[6] c_1[7] c_1[22]
1 2 -0.495298 -0.0375833 0 -3.4166e+08 -1.9672e+06 -0 -2.59252e+07 -0 -0 5.11249e+08 2.94366e+06
2 2 0 0 0 -6.84123e+08 -1.9672e+06 -0 -2.59252e+07 -0 -0 1.03224e+09 2.94366e+06
3 2 0.5 0 0 -3.42463e+08 -0 -0 -0 -0 -0 5.20986e+08 -0
ITEM: TIMESTEP
41
ITEM: NUMBER OF ATOMS
3
ITEM: BOX BOUNDS xy xz yz pp pp pp
0.0000000000000000e+00 5.0000000000000000e+01 0.0000000000000000e+00
0.0000000000000000e+00 5.0000000000000000e+01 0.0000000000000000e+00
0.0000000000000000e+00 5.0000000000000000e+01 0.0000000000000000e+00
ITEM: ATOMS id type x y z c_1[1] c_1[2] c_1[3] c_1[4] c_1[5] c_1[6] c_1[7] c_1[22]
1 2 -0.491961 -0.0686092 0 -3.37071e+08 -6.55578e+06 -0 -4.70081e+07 -0 -0 4.93079e+08 9.59001e+06
2 2 0 0 0 -6.79534e+08 -6.55578e+06 -0 -4.70081e+07 -0 -0 1.01407e+09 9.59001e+06
3 2 0.5 0 0 -3.42463e+08 -0 -0 -0 -0 -0 5.20986e+08 -0
ITEM: TIMESTEP
42
ITEM: NUMBER OF ATOMS
3
ITEM: BOX BOUNDS xy xz yz pp pp pp
0.0000000000000000e+00 5.0000000000000000e+01 0.0000000000000000e+00
0.0000000000000000e+00 5.0000000000000000e+01 0.0000000000000000e+00
0.0000000000000000e+00 5.0000000000000000e+01 0.0000000000000000e+00
ITEM: ATOMS id type x y z c_1[1] c_1[2] c_1[3] c_1[4] c_1[5] c_1[6] c_1[7] c_1[22]
1 2 -0.486682 -0.0993643 0 -3.29877e+08 -1.37506e+07 -0 -6.73498e+07 -0 -0 4.65209e+08 1.93918e+07
2 2 0 0 0 -6.72339e+08 -1.37506e+07 -0 -6.73498e+07 -0 -0 9.86195e+08 1.93918e+07
3 2 0.5 0 0 -3.42463e+08 -0 -0 -0 -0 -0 5.20986e+08 -0
ITEM: TIMESTEP
43
ITEM: NUMBER OF ATOMS
3
ITEM: BOX BOUNDS xy xz yz pp pp pp
0.0000000000000000e+00 5.0000000000000000e+01 0.0000000000000000e+00
0.0000000000000000e+00 5.0000000000000000e+01 0.0000000000000000e+00
0.0000000000000000e+00 5.0000000000000000e+01 0.0000000000000000e+00
ITEM: ATOMS id type x y z c_1[1] c_1[2] c_1[3] c_1[4] c_1[5] c_1[6] c_1[7] c_1[22]
1 2 -0.479483 -0.129727 0 -3.20189e+08 -2.34381e+07 -0 -8.66292e+07 -0 -0 4.28878e+08 3.13942e+07
2 2 0 0 0 -6.62652e+08 -2.34381e+07 -0 -8.66292e+07 -0 -0 9.49864e+08 3.13942e+07
3 2 0.5 0 0 -3.42463e+08 -0 -0 -0 -0 -0 5.20986e+08 -0
ITEM: TIMESTEP
44
ITEM: NUMBER OF ATOMS
3
ITEM: BOX BOUNDS xy xz yz pp pp pp
0.0000000000000000e+00 5.0000000000000000e+01 0.0000000000000000e+00
0.0000000000000000e+00 5.0000000000000000e+01 0.0000000000000000e+00
0.0000000000000000e+00 5.0000000000000000e+01 0.0000000000000000e+00
ITEM: ATOMS id type x y z c_1[1] c_1[2] c_1[3] c_1[4] c_1[5] c_1[6] c_1[7] c_1[22]
1 2 -0.470391 -0.159578 0 -3.08161e+08 -3.54656e+07 -0 -1.04543e+08 -0 -0 3.85681e+08 4.43871e+07
2 2 0 0 0 -6.50624e+08 -3.54656e+07 -0 -1.04543e+08 -0 -0 9.06667e+08 4.43871e+07
3 2 0.5 0 0 -3.42463e+08 -0 -0 -0 -0 -0 5.20986e+08 -0
ITEM: TIMESTEP
45
ITEM: NUMBER OF ATOMS
3
ITEM: BOX BOUNDS xy xz yz pp pp pp
0.0000000000000000e+00 5.0000000000000000e+01 0.0000000000000000e+00
0.0000000000000000e+00 5.0000000000000000e+01 0.0000000000000000e+00
0.0000000000000000e+00 5.0000000000000000e+01 0.0000000000000000e+00
ITEM: ATOMS id type x y z c_1[1] c_1[2] c_1[3] c_1[4] c_1[5] c_1[6] c_1[7] c_1[22]
1 2 -0.459443 -0.188799 0 -2.93984e+08 -4.96434e+07 -0 -1.20807e+08 -0 -0 3.37477e+08 5.69878e+07
2 2 0 0 0 -6.36447e+08 -4.96434e+07 -0 -1.20807e+08 -0 -0 8.58463e+08 5.69878e+07
3 2 0.5 0 0 -3.42463e+08 -0 -0 -0 -0 -0 5.20986e+08 -0
ITEM: TIMESTEP
46
ITEM: NUMBER OF ATOMS
3
ITEM: BOX BOUNDS xy xz yz pp pp pp
0.0000000000000000e+00 5.0000000000000000e+01 0.0000000000000000e+00
0.0000000000000000e+00 5.0000000000000000e+01 0.0000000000000000e+00
0.0000000000000000e+00 5.0000000000000000e+01 0.0000000000000000e+00
ITEM: ATOMS id type x y z c_1[1] c_1[2] c_1[3] c_1[4] c_1[5] c_1[6] c_1[7] c_1[22]
1 2 -0.446682 -0.217276 0 -2.77879e+08 -6.57479e+07 -0 -1.35166e+08 -0 -0 2.86286e+08 6.77371e+07
2 2 0 0 0 -6.20342e+08 -6.57479e+07 -0 -1.35166e+08 -0 -0 8.07273e+08 6.77371e+07
3 2 0.5 0 0 -3.42463e+08 -0 -0 -0 -0 -0 5.20986e+08 -0
ITEM: TIMESTEP
47
ITEM: NUMBER OF ATOMS
3
ITEM: BOX BOUNDS xy xz yz pp pp pp
0.0000000000000000e+00 5.0000000000000000e+01 0.0000000000000000e+00
0.0000000000000000e+00 5.0000000000000000e+01 0.0000000000000000e+00
0.0000000000000000e+00 5.0000000000000000e+01 0.0000000000000000e+00
ITEM: ATOMS id type x y z c_1[1] c_1[2] c_1[3] c_1[4] c_1[5] c_1[6] c_1[7] c_1[22]
1 2 -0.432157 -0.244894 0 -2.60102e+08 -8.35251e+07 -0 -1.47394e+08 -0 -0 2.34182e+08 7.52014e+07
2 2 0 0 0 -6.02565e+08 -8.35251e+07 -0 -1.47394e+08 -0 -0 7.55168e+08 7.52014e+07
3 2 0.5 0 0 -3.42463e+08 -0 -0 -0 -0 -0 5.20986e+08 -0
ITEM: TIMESTEP
48
ITEM: NUMBER OF ATOMS
3
ITEM: BOX BOUNDS xy xz yz pp pp pp
0.0000000000000000e+00 5.0000000000000000e+01 0.0000000000000000e+00
0.0000000000000000e+00 5.0000000000000000e+01 0.0000000000000000e+00
0.0000000000000000e+00 5.0000000000000000e+01 0.0000000000000000e+00
ITEM: ATOMS id type x y z c_1[1] c_1[2] c_1[3] c_1[4] c_1[5] c_1[6] c_1[7] c_1[22]
1 2 -0.415927 -0.271546 0 -2.40932e+08 -1.02695e+08 -0 -1.57297e+08 -0 -0 1.83172e+08 7.80751e+07
2 2 0 0 0 -5.83395e+08 -1.02695e+08 -0 -1.57297e+08 -0 -0 7.04159e+08 7.80751e+07
3 2 0.5 0 0 -3.42463e+08 -0 -0 -0 -0 -0 5.20986e+08 -0
ITEM: TIMESTEP
49
ITEM: NUMBER OF ATOMS
3
ITEM: BOX BOUNDS xy xz yz pp pp pp
0.0000000000000000e+00 5.0000000000000000e+01 0.0000000000000000e+00