ITEM: TIMESTEP
0
ITEM: NUMBER OF ATOMS
1000
ITEM: BOX BOUNDS xy xz yz pp pp pp
0.0000000000000000e+00 5.0000000000000000e+01 0.0000000000000000e+00
0.0000000000000000e+00 5.0000000000000000e+01 0.0000000000000000e+00
0.0000000000000000e+00 5.0000000000000000e+01 0.0000000000000000e+00
ITEM: ATOMS id type x y z c_1[1] c_1[2] c_1[3] c_1[4] c_1[5] c_1[6] c_1[7] c_1[8] c_1[13] c_1[15] c_1[22]
1 2 42.8026 9.67701 33.8073 1.6551e+06 357.722 47302.6 28428.3 280311 4964.27 -6.08789e+06 37324.1 1150.74 957.855 -4133.81
2 2 49.7375 42.2436 25.2744 -1.40508e+06 -6.46365e+06 -203936 -4.02276e+06 624511 2.0529e+06 -1.54312e+06 -2.53582e+08 -1.75497e+07 4.34817e+07 7.39044e+06
3 2 12.4208 2.21199 22.3098 72716.9 150591 1.24042e+06 -104645 -300332 432198 53687.1 -41359.3 60907.9 59531.6 110996
4 2 3.01806 10.9825 42.0142 1.58157e+06 263415 3.26956e+06 -330135 1.92726e+06 21010 -1.7486e+06 -402654 267351 96113.1 -35280.5
5 2 26.8318 11.199 42.0089 -5.48988e+07 524626 -1.17223e+07 1.92401e+06 2.48038e+07 -956566 2.00613e+08 913801 4.73993e+06 5.92872e+06 625090
6 2 8.54065 41.5761 37.0503 316962 3.41323e+06 447172 -1.04005e+06 376436 -1.23544e+06 -256177 -3.19533e+06 -1.391e+07 5.33499e+06 -2.77383e+06
7 2 28.1878 21.8029 39.1498 4.5102e+06 2.37051e+06 1.24881e+06 -776098 -1.48637e+06 663691 -1.64479e+07 -8.75314e+06 -5.89573e+08 -1.24698e+07 -1.28248e+06
8 2 35.2438 10.1029 3.63664 2.0225e+06 548639 28858 1.05339e+06 -241589 -125828 -5.14065e+06 -1.94852e+06 22611.3 -1.01052e+06 -1.39454e+06
9 2 35.2038 40.4191 23.6558 -2.87009e+06 1.86338e+06 1.12483e+06 1.07521e+06 -29773 -624965 -3.19796e+06 7.0218e+09 7.2811e+07 -3.53841e+08 -2.24834e+07
10 2 6.82111 34.563 4.02069 2.60186e+06 6.02635e+06 5.02362e+06 866729 -805954 -3.36477e+06 -8.51561e+06 -1.6599e+08 -5.01534e+09 -5.09452e+08 -2.99684e+07
11 2 38.0967 14.2177 16.652 26037.4 -569927 -215148 -2.82525e+06 1.5547e+06 706321 4.80733e+07 9.28202e+08 -1.50274e+08 1.00052e+08 2.06872e+07
12 2 42.3355 5.47412 11.6285 1.4614e+06 2.74798e+06 2.10952e+06 -1.05453e+06 -69154.5 -1.56421e+06 -2.26384e+06 4.29244e+06 -5.05749e+06 1.06608e+07 779201
13 2 48.6555 15.2676 13.4892 6.13513e+06 2.36029e+06 254089 -2.67855e+06 469991 62800.8 -7.84187e+06 -3.95705e+09 -5.59357e+09 9.79223e+08 7.10094e+07
14 2 42.4049 49.6902 39.2686 2.83907e+06 140224 937916 233624 -903395 -354908 -9.01665e+06 -594751 120028 -54685.2 -298575
15 2 45.4624 23.8969 41.664 -6.01677e+06 -1.98537e+07 -76528.3 1.32896e+07 2.85542e+06 -3.52836e+06 -1.41939e+07 7.5018e+08 3.50754e+07 -9.71082e+07 1.65178e+07
16 2 8.45279 31.2378 45.4155 373879 1.76e+06 1.57214e+06 379362 497182 -615109 -20454.9 -1.32117e+06 -3.25005e+06 -1.5339e+06 562639
17 2 49.7727 44.5116 11.0883 2.75809e+06 2.28326e+06 1.14892e+06 -711150 1.26378e+06 768107 -8.96184e+07 -5.58036e+08 -2.43468e+08 -1.69344e+08 -8.76654e+07
18 2 20.3327 23.5047 31.0197 2.93504e+06 1.06733e+06 1.19207e+06 226540 -1.74299e+06 -540715 -4.3694e+06 1.04032e+08 -1.17205e+07 -1.21142e+07 962242
19 2 34.9531 8.93934 44.4804 -1.11267e+06 -2.80291e+06 -487097 1.42876e+06 92207 -800139 1.18409e+07 1.00879e+07 2.85685e+07 -1.69507e+07 7.62503e+06
20 2 41.1604 34.1423 5.20792 -1.95333e+06 164043 843090 -639856 4.08159e+06 782988 2.47723e+07 515765 -508851 221485 580988
21 2 39.8458 23.274 34.0523 4.32265e+06 451438 528183 292914 448574 362117 -1.93387e+07 1.09897e+08 -4.29935e+06 -1.5294e+07 1.06912e+06
22 2 20.2925 17.4989 29.4002 -3.85705e+06 -1.06876e+07 -4.87156e+06 6.42048e+06 4.33473e+06 -7.21563e+06 2.58524e+06 1.78132e+07 3.86579e+07 -2.96436e+07 7.16346e+06
23 2 17.7302 23.4416 36.4111 -1.71316e+06 3.37526e+06 -34323.3 567023 -368473 -262603 -2.45467e+08 -5.94672e+09 -1.83492e+08 3.37265e+08 -4.12976e+07
24 2 45.1844 6.52812 9.00224 789649 513512 -7.97641e+06 -301872 -633214 756756 -6.85364e+06 2.44132e+07 -3.18973e+06 2.30306e+06 -1.0191e+06
25 2 41.9086 0.57087 48.1163 -0 -0 -0 -0 -0 -0 -0 -0 -0 -0 -0
26 2 12.0402 9.39158 17.727 756882 1.012e+06 1.28276e+06 -9092.54 82276.1 1.13434e+06 1.73661e+06 -5.02649e+06 -1.41395e+07 -2.53052e+06 508074
27 2 0.0740445 14.2954 20.9582 1.15296e+06 860819 294713 259589 249472 -383329 -2.67065e+06 -1.98568e+06 -1.68523e+06 -1.66034e+06 -1.09995e+06
28 2 32.8607 19.8889 49.8334 1.32101e+06 1.61613e+06 3.53928e+06 991993 -1.04099e+06 138044 -1.56256e+06 -1.13091e+08 -2.6801e+08 -4.83468e+07 -1.33397e+07
29 2 3.40576 19.3938 20.8659 1.22176e+06 -3.84281e+06 659939 219777 434927 -201240 -3.8411e+06 -2.81301e+07 5.85832e+07 -1.67464e+06 -8.14388e+06
30 2 4.4296 34.1972 12.9485 591688 447436 154851 98587 -201552 -128046 475952 2.39505e+06 6.57476e+06 5.16246e+06 4.11291e+06
31 2 46.3207 38.2942 7.82513 26205.2 310985 1.49944e+06 -218119 182604 -704495 321122 -1.13893e+08 -2.39333e+08 -3.77245e+07 -9.57379e+06
32 2 23.7089 34.7518 27.7834 -271801 3.78817e+06 28667.6 769744 -130410 389237 1.92287e+07 -5.21047e+08 -6.30978e+07 2.93005e+07 -1.34014e+07
33 2 45.9304 39.5431 5.78651 447088 1.31633e+06 3.87681e+06 288283 -851076 -1.63405e+06 183132 -5.05548e+07 -7.78449e+07 -4.75838e+07 1.01212e+07
34 2 30.8945 31.0496 30.1604 328631 937449 2.92399e+06 113730 982079 350983 178561 6.09518e+06 2.71118e+07 4.69906e+06 -1.57375e+06
35 2 33.5706 15.3692 17.3861 -3.0039e+06 -2.08235e+07 -6.0536e+07 -3.59694e+06 -5.11622e+06 2.46753e+07 205937 1.75181e+06 1.12227e+07 4.2236e+06 -1.90511e+07
36 2 13.4706 39.2845 39.8674 365.559 1.9698e+06 283386 26836.7 10179 747137 378.264 -1366.59 -6.34518e+06 -94692.3 1.98388e+06
37 2 7.36458 25.5503 41.7178 1.01043e+06 1.30444e+06 1.57247e+06 -568965 -387009 1.11126e+06 -4.37949e+06 -2.51166e+07 -9.06576e+07 -2.51058e+07 3.08263e+06
38 2 46.2147 33.2617 33.8142 654747 1.45374e+06 3.10903e+06 271256 -1.42163e+06 -158573 127038 -166875 -9.35728e+06 -776450 1.1735e+06
39 2 31.109 19.926 34.7433 376327 1.20354e+06 3.4705e+06 235668 -485442 -724698 -1.68004e+06 9.01502e+06 -864394 -1.00473e+06 358281
40 2 47.778 23.9751 38.3339 1.90266e+06 1.49881e+06 381925 1.68927e+06 -36200.8 -57725.9 -913010 5.36597e+07 1.58511e+07 1.66302e+06 -4.00121e+06
41 2 12.7296 35.2255 26.6851 -2.88079e+07 -1.6847e+08 -7.31145e+07 -6.98902e+07 4.60566e+07 1.10986e+08 -2.03009e+07 5.57446e+07 1.58141e+08 1.35481e+08 -1.12643e+08
42 2 14.9655 5.85876 45.5792 1.96148e+06 156177 48811 185977 214752 -39007.2 8.69059e+06 2.64026e+06 1.38204e+07 -6.28985e+06 2.50553e+06
43 2 12.9542 35.7652 26.3297 -2.92217e+07 -1.6873e+08 -7.32065e+07 -7.02182e+07 4.62517e+07 1.1114e+08 -1.94108e+07 5.665e+07 1.58374e+08 1.36127e+08 -1.1208e+08
44 2 49.7837 32.5942 17.4415 1.19954e+06 1.81458e+06 3.2821e+06 216596 -764056 -1.74582e+06 -4.01758e+06 3.11984e+07 3.59225e+08 -6.72621e+07 -2.78778e+06
45 2 48.8828 40.5919 25.6922 -2.49655e+06 -5.82836e+06 97330.2 -3.69886e+06 1.03323e+06 2.59951e+06 3.24244e+06 -1.14792e+08 5.80878e+07 2.62504e+07 7.80975e+06
46 2 8.66785 9.02107 25.77 1.68981e+06 115253 51954.4 -441315 296300 -77381.8 -6.29181e+06 -547571 77456.6 143926 -425787
47 2 22.8417 22.7874 45.0503 100328 1.31134e+06 55382.9 -238474 -73184.9 135155 508771 3.49327e+06 1.42187e+07 -8.54483e+06 3.31101e+06
48 2 8.4397 16.2814 28.3585 3.52522e+06 2.74576e+06 1.44259e+06 -898062 -75529.2 -610351 -773168 -395518 3.12247e+06 -3.00132e+06 2.2835e+06
49 2 15.627 21.4931 20.6615 -4.71091e+07 -4.41129e+06 -2.70315e+07 1.37902e+07 -3.33987e+07 8.60745e+06 1.48228e+08 2.11257e+07 -1.70604e+06 -7.35178e+06 1.66081e+07
50 2 24.1016 40.6467 13.9621 619986 15967 1.88788e+06 -99495.4 -1.08188e+06 173620 -70168 -17773.7 15509.3 2852.38 -1807.09
51 2 40.4339 34.1528 33.893 -4.82564e+06 229905 -3.8642e+06 780071 4.65819e+06 -268426 4.24538e+07 49810.5 -1.18832e+06 -928969 539519
52 2 10.9484 20.2906 20.4956 1.30246e+06 353361 20326.7 678410 -162711 -84750.6 -3.47861e+06 -1.29709e+06 1584.41 -675466 -943748
53 2 37.3946 33.8688 38.2951 2.03456e+06 1.42717e+06 2.50563e+06 -1.35934e+06 -1.29362e+06 972060 -2.04795e+06 -1.65758e+07 1.35126e+07 198157 276311
54 2 4.36267 19.0129 13.6199 2.79022e+06 242644 1.51244e+06 -488304 -637714 575676 -8.70901e+06 -398482 138636 208399 -176318
55 2 11.171 48.1584 49.6423 799601 1.57956e+06 3.01816e+06 523348 1.03583e+06 -66026.8 230412 -1.32543e+06 -939709 -1.25571e+06 467256
56 2 3.36311 24.6303 46.0325 1.19491e+06 687583 2.10109e+06 906422 1.58449e+06 1.20195e+06 84981.5 -572980 317674 -483178 48845.4
57 2 6.41439 28.5649 24.7328 -3.08882e+06 -1.7626e+07 116141 -7.79047e+06 -414963 -457097 779417 2.41087e+07 1.01877e+08 5.1995e+07 4.92908e+06
58 2 8.2171 11.2217 29.771 724195 2.85158e+06 1.76792e+06 -49746.9 -373288 -1.171e+06 -1.47205e+06 2.0659e+08 8.84749e+07 2.21124e+07 1.34408e+06
59 2 8.08209 3.53031 40.0105 2.95353e+06 171298 1.71543e+06 81757.5 -1.33771e+06 167349 -6.23073e+06 4.41428e+07 1.79301e+08 -7.21855e+07 8.35059e+06
60 2 39.729 40.629 30.9712 2.9693e+06 287533 2.547e+06 -334861 -1.48366e+06 839291 -1.15022e+07 1.19726e+06 3.63984e+06 -3.6218e+06 1.39188e+06
61 2 44.1339 45.2473 14.2666 -4.62862e+06 -2.06824e+06 -3.9627e+06 589443 -106978 -2.84524e+06 5.7644e+07 1.09119e+07 6.10136e+07 4.90938e+06 2.89609e+06
62 2 10.7483 22.5871 43.9158 1.66402e+06 2.35998e+06 1.1574e+06 -91712.6 -731272 -487314 -4.65079e+06 -1.27097e+08 -1.6729e+08 -8.42266e+07 250357
63 2 49.2267 38.5818 24.0895 855467 1.63654e+06 725982 472055 -291859 767375 178849 -637077 3.5873e+06 -728751 1.27171e+06
64 2 45.3774 17.9534 32.7008 -3.75584e+07 -1.27994e+07 -433309 2.19121e+07 3.70571e+06 -2.12949e+06 1.32501e+08 5.81515e+07 7.06516e+06 -3.39885e+07 4.53521e+07
65 2 46.9925 3.89323 10.6273 1.76922e+06 1.76601e+06 2.03238e+06 332584 601168 248367 -5.14632e+06 -4.65822e+07 -2.91327e+07 -2.51023e+07 5.34865e+06
66 2 29.3885 48.5574 28.6992 2.23752e+06 30029.9 2.90519e+06 -255647 114716 41510 -8.007e+06 -133996 29701.7 15338.4 -103208
67 2 34.0596 23.1253 2.61022 658259 2.74277e+06 2.99657e+06 881622 60889.5 -818295 -10327.2 -1.36845e+08 -2.42073e+08 -6.43173e+07 -1.30923e+07
68 2 14.956 3.20023 32.0293 1.21225e+06 1.25248e+06 841413 1.20069e+06 -91327.8 -324108 -1.12631e+06 -2.74581e+07 -6.21534e+06 -5.45987e+06 -1.7357e+06
69 2 30.8113 43.6027 16.6401 1.29288e+06 627845 1.07603e+06 106616 -174276 612040 -3.78042e+06 -1.62196e+06 -614034 -826810 -1.06173e+06
70 2 37.0127 34.0201 9.96122 1.44341e+06 2.47452e+06 178886 -335598 564707 238877 -2.04206e+06 -2.4068e+08 -2.53366e+08 7.99215e+07 1.9828e+07
71 2 31.174 22.5552 31.8044 1076.58 916651 1.18319e+06 33101.5 -37419.9 -1.04157e+06 543.826 -2211.64 -1.04832e+06 -157201 889320
72 2 4.95179 39.1502 5.6152 -1.07015e+07 -1.67648e+07 -2.38551e+07 1.2807e+07 -1.14907e+07 1.45259e+07 6.71852e+06 1.32838e+07 1.17027e+07 -4.42993e+07 1.47655e+07
73 2 26.7257 16.6293 45.2129 347949 1.42129e+06 1.09788e+06 -2.01916e+06 -97059.6 -82829.4 1.39765e+08 -7.60651e+09 -2.33186e+09 -1.43763e+09 3.60462e+07
74 2 28.3092 26.0731 40.1493 999826 850951 -3.68983e+06 -1.29228e+06 -2.07145e+06 -997265 2.72751e+07 1.98583e+09 -1.97635e+08 2.82224e+08 8.91265e+06
75 2 1.97989 3.13974 6.11548 -5.22667e+06 -113495 -2.91524e+06 -770193 -3.90346e+06 -575208 3.37083e+07 850552 -95130.3 124515 731906
76 2 38.2772 32.2396 35.9775 576733 385784 2.10672e+06 -414810 80659.2 1.08218e+06 1.91538e+06 3.40262e+06 2.34337e+07 7.69625e+06 1.3544e+06
77 2 8.88918 17.3551 16.3014 583874 1.47666e+06 1.62548e+06 -928540 974210 -1.54929e+06 24920 -1.38385e+06 -387779 1.27756e+06 63295.7
78 2 35.7887 6.06904 48.6457 569734 1.20298e+06 676548 162488 -339207 670178 8.04184e+06 2.38111e+07 2.48862e+08 -4.10489e+07 8.03232e+06
79 2 42.3739 34.7515 8.05313 2.05618e+06 155334 3.29398e+06 395106 2.14883e+06 397257 -474824 4.24621e+08 7.93733e+07 3.82914e+07 -3.67952e+06
80 2 35.9431 7.10313 43.9747 -2.87407e+06 -1.866e+07 -2.17447e+07 6.01231e+06 7.54647e+06 -9.6004e+06 -2.92384e+06 -7.19303e+07 1.60815e+08 -3.05913e+07 -7.13264e+06
81 2 42.0464 35.2717 28.4687 3387.68 159558 1.35449e+06 23251.3 -67744 -464888 3234.82 -2526.3 77020.1 -17632.9 156383
82 2 8.66925 16.4515 11.0177 963465 1.97485e+06 3.24548e+06 -72307.4 -448860 2.47915e+06 -3.69309e+06 -1.94245e+08 -9.91613e+08 1.19189e+08 2.69922e+07
83 2 2.49392 33.3152 24.8933 1.03328e+06 254318 243983 -512622 502098 -249097 -2.55123e+06 -875052 40942.8 434200 -628361
84 2 11.0886 8.53914 48.8538 1.47163e+06 278228 3.3131e+06 401718 1.00316e+06 105451 -1.97969e+06 -212754 7007.07 -237660 49594.2
85 2 37.521 11.24 8.32581 -3.22457e+06 -1.21923e+07 -3.05148e+07 2.09518e+06 -9.65849e+06 2.13244e+06 -1.41335e+06 5.46026e+06 7.70653e+07 -2.13895e+07 -6.37849e+06
86 2 3.05478 28.0164 17.7159 -1.78482e+08 -3.97321e+07 -1.0722e+08 -7.56575e+07 1.37838e+08 5.55236e+07 9.97159e+07 4.27278e+07 -9.69178e+08 -6.6906e+08 3.34854e+07
87 2 5.8508 11.6072 20.2823 3.39178e+06 2.06134e+06 535374 1.95655e+06 -810654 27798 -1.1226e+07 2.26587e+08 1.2435e+08 6.04639e+06 -8.01796e+06
88 2 21.9519 6.87688 24.213 386.01 2.47804e+06 676489 -30984.4 -16185.8 1.29475e+06 441.721 -1413.71 -3.78013e+06 99758.2 2.51343e+06
89 2 24.902 31.0479 4.33378 955475 1.79084e+06 169748 -1.30809e+06 -402751 551373 593416 -222894 1.74974e+06 56574.4 1.11756e+06
90 2 26.103 30.4244 39.7443 1.39484e+06 1.27038e+06 44066.7 79546 -182103 -178536 -6.36792e+06 -116231 -6.82666e+06 -1.19058e+06 1.17844e+06
91 2 33.8583 16.2932 47.7577 1.47069e+06 1.36183e+06 1.87727e+06 -858228 768519 656383 -1.66266e+06 -2.31915e+06 -4.45641e+06 3.17162e+06 -1.03705e+06
92 2 12.3716 36.7427 9.6228 2.58997e+06 3.93096e+06 3.21945e+06 94037.4 1.13547e+06 -1.13178e+06 -1.91995e+07 2.3359e+08 8.14554e+08 -1.7442e+08 2.88138e+07
93 2 6.69522 15.3607 35.498 2.68454e+06 1.27845e+06 606816 884030 314173 -344523 4.04614e+06 7.91285e+07 1.40114e+07 2.00785e+07 445168
94 2 30.6069 18.8628 15.267 2.16918e+06 575242 93721.2 -981424 420647 -230243 8.55467e+08 1.94224e+09 9.01693e+07 -1.58249e+08 8.21266e+07
95 2 25.7996 18.4856 23.9757 912087 178324 4.14091e+06 403337 1.94347e+06 859526 -4.16975e+07 1.67068e+08 1.43023e+07 1.42174e+07 -6.58112e+06
96 2 46.5794 28.063 42.4326 122060 650620 -3.85248e+06 308386 -729387 362034 -446912 -1.55142e+06 -3.45135e+06 -569087 -1.01591e+06
97 2 9.30318 10.1866 18.9544 -2.82842e+08 -7.98273e+07 -1.86275e+07 -2.78048e+07 4.16128e+06 3.82423e+07 5.03759e+08 2.2099e+08 -1.7515e+07 1.99154e+07 1.41163e+08
98 2 4.9797 18.6105 32.3098 -1.77269e+07 -1.82111e+06 -797833 5.31697e+06 3.08197e+06 -799618 9.15565e+07 2.3103e+07 -4.12811e+08 4.28623e+07 2.29081e+07
99 2 0.828236 38.3803 18.2899 -0 -0 -0 -0 -0 -0 -0 -0 -0 -0 -0
100 2 44.9577 40.8484 9.89755 -7.20819e+06 -9.369e+06 -225334 7.06537e+06 -2.25338e+06 3.96671e+06 5.85266e+07 1.35707e+08 4.96147e+07 -7.58454e+07 4.49062e+07
101 2 13.4341 41.1964 7.51196 -7.40251e+06 -1.00446e+07 -6.16768e+06 -7.80837e+06 -6.75257e+06 -7.24297e+06 2.51834e+07 2.28203e+07 2.84529e+07 2.95384e+07 1.26562e+07
102 2 13.6099 48.7621 30.3592 1.82786e+06 30690.1 4.58138e+06 -160773 -710538 329708 -7.82632e+06 -1.25487e+07 -1.64454e+06 1.54438e+06 -19710.7
103 2 38.6689 44.5965 22.0839 -6.85774e+06 -1.29813e+06 -17478.2 3.76627e+06 -922807 45008.1 1.4599e+08 -8.48833e+08 6.99707e+07 3.80827e+07 2.43182e+07
104 2 32.8009 35.1095 13.2859 404218 -4.51444e+06 -2.51703e+07 537983 -263986 -1.18645e+07 -235349 -972955 314120 -1.16413e+06 -5.40628e+06
105 2 37.1886 27.9483 19.9178 377349 886114 769311 578398 538817 825721 882481 1.02619e+06 3.51047e+06 1.44526e+06 1.98077e+06
106 2 13.9739 5.83088 40.9354 546354 1.02276e+06 1.7584e+06 330559 305465 -382341 -1.93311e+06 -916661 -1.21789e+06 -671370 312728
107 2 2.90365 17.5239 35.376 -2.77904e+07 -3.30685e+07 -1.1997e+08 -2.49259e+07 5.21785e+07 5.63053e+07 3.57194e+06 -4.18114e+08 -1.1209e+09 -3.65585e+08 -5.44916e+07
108 2 25.6302 47.3747 44.7689 354443 49499.4 327465 1.57606e+06 -422039 569268 2.65526e+07 1.27845e+07 9.03632e+06 -3.43215e+06 1.52953e+07
109 2 24.0927 21.5688 11.0751 4.82023e+06 20862.9 1.27692e+06 150509 -826848 -139250 -1.7825e+07 -913692 26013.4 -3442.22 -19716.5
110 2 38.9874 45.8928 39.3372 526357 8.99761e+06 3.74956e+06 -1.21734e+06 1.34926e+06 -1.77957e+06 -36239.5 3.80978e+08 7.37336e+09 -8.6182e+08 1.08095e+08
111 2 18.6488 44.4876 41.222 1.99833e+06 1.63665e+06 573580 -511406 -541107 940447 1.32132e+07 199635 -694553 2.93242e+06 2.20193e+06
112 2 12.0924 27.4342 13.0145 934368 255467 414265 -488632 622159 -325379 -2.19006e+06 -1.22118e+06 -128851 581555 -579941
113 2 44.7263 39.8711 37.5642 1.21927e+06 2.76493e+06 625476 -658741 709819 168106 -1.36043e+06 -4.51326e+06 -6.58974e+06 907569 -1.73559e+06
114 2 31.5563 5.80729 29.0693 -361630 -17958.1 -4.08914e+06 80586.7 1.21604e+06 -270986 55246.4 22389.2 -16901.8 -4636.74 2743.36
115 2 21.3258 35.9899 25.758 -5.69337e+07 -7.16783e+07 -8.35621e+07 6.42062e+07 6.87345e+07 -7.71546e+07 2.07463e+07 -4.43481e+08 -3.70993e+07 -4.49719e+07 -1.46801e+07
116 2 37.7258 14.3968 0.0763032 429974 171605 2.16218e+06 271635 964199 609131 135078 -114840 125184 -74129.6 53937.8
117 2 23.8182 13.0529 41.9231 620385 1.18138e+06 665517 -105392 474644 512500 1.43931e+06 1.22453e+06 4.66022e+06 180142 2.56849e+06
118 2 42.6267 19.5282 15.0677 371028 -1333.62 61999.7 12166.5 174006 1316.72 7.89374e+08 9.11682e+07 41750.8 -687561 830671
119 2 17.6858 0.527075 29.0025 36930.8 1.60532e+06 64244.7 -243849 -48716.5 321370 27156 -201023 -6.19429e+06 1.40972e+06 1.31642e+06
120 2 26.5235 25.6725 32.8899 2.90279e+06 533981 2.65686e+06 898869 -664978 -158715 -4.1199e+06 -7.08467e+06 885132 145136 -484004
121 2 12.0036 10.4108 2.50929 2.28551e+06 2.32129e+06 651538 1.6014e+06 117413 568804 -6.8827e+06 -4.58381e+07 -5.74682e+07 105349 264889
122 2 0.482524 32.2366 1.95042 -0 -0 -0 -0 -0 -0 -0 -0 -0 -0 -0
123 2 45.3216 12.5816 3.21123 1.44725e+06 -7.58477e+06 -1.14804e+07 -1.20955e+06 -2.54183e+06 -1.04734e+07 -7.06591e+06 -2.67113e+07 1.89068e+07 7.77995e+06 -9.79649e+06
124 2 35.6155 26.7814 5.67183 887981 72797.8 55748.7 254250 -222495 -63705.4 -3.42491e+06 -353576 43811.2 -101237 -280778
125 2 46.5873 32.2049 38.5034 -3.44492e+07 -2.08087e+07 -2.49827e+06 -2.77033e+07 9.2788e+06 7.49926e+06 7.77774e+07 -3.99757e+08 3.03325e+07 7.43922e+07 5.65281e+07
126 2 26.2502 3.62025 19.4196 2.22129e+06 1.27081e+06 1.28722e+06 -75774.2 -1.68847e+06 -23832.1 -1.26484e+06 3.27954e+07 2.44143e+06 1.13983e+07 4.04362e+06
127 2 15.0492 41.3386 8.88157 -907136 21127.7 929.269 -275534 -2.1263e+06 76997.9 1.73841e+07 116769 18951.8 26585.7 113845
128 2 3.41161 17.4159 20.7339 -43.064 -5.26915e+06 -23443.1 15072.4 1005.32 -351462 -46.7551 645.462 7.48702e+07 -209238 -5.34281e+06
129 2 19.2328 42.953 31.0929 -1.57576e+07 210540 -5.26783e+06 -862661 -8.12666e+06 -848392 1.24738e+08 90587.7 -227807 -543297 291650
130 2 37.2841 6.06008 29.1951 -4.26699e+06 -1.7981e+06 -553239 2.76997e+06 1.53649e+06 -997388 3.00452e+07 1.38582e+07 3.88871e+06 -8.74295e+06 1.2522e+07
131 2 33.6195 16.1166 16.2721 -4.64892e+06 -2.62528e+07 -4.43076e+07 -7.92227e+06 3.48683e+06 3.13515e+07 1.67145e+07 2.97969e+07 4.41363e+07 3.75643e+07 2.7908e+06
132 2 35.7266 6.12415 14.5269 2.33402e+06 361216 135826 506503 407566 215921 -1.9325e+07 -1.07885e+08 2.20432e+07 -5.56517e+06 1.6465e+06
133 2 39.2295 12.3262 21.1117 -2.47171e+07 -1.00629e+08 -2.48296e+07 5.03933e+07 -2.48544e+07 5.00863e+07 -7.97156e+06 6.89353e+07 1.80631e+08 -1.42539e+08 -3.17476e+07
134 2 0.555858 16.8421 27.4795 -478061 1.99255e+06 -19551.1 -435778 1.54474e+06 -1.61003e+06 3.47104e+06 1.77142e+07 -5.09754e+07 -6.63491e+06 -1.83146e+06
135 2 41.5033 14.8405 6.66142 2.03766e+06 1.6079e+06 360377 -1.55581e+06 241168 105310 -1.2552e+07 5.77589e+08 3.44006e+07 5.57952e+06 -8.42031e+06
136 2 43.4262 46.4157 15.6823 -416371 -1.40365e+06 -3.21587e+06 2.02991e+06 1.81991e+06 -2.61762e+06 716763 3.30781e+08 2.87899e+08 -508082 -6.52332e+06
137 2 23.0013 8.15011 44.7707 2.37586e+06 83809.7 119228 446498 532231 100014 -6.36643e+06 -446900 59171.9 -83664.4 -209499
138 2 19.7233 13.3785 26.3259 708516 789601 1.20582e+06 216806 912027 430804 -498175 6.89642e+06 -4.51373e+06 -1.23828e+06 110173
139 2 38.8285 13.1336 20.7113 -2.36105e+07 -1.0087e+08 -2.49366e+07 5.04868e+07 -2.5526e+07 5.01182e+07 -3.9123e+06 -4.38434e+08 7.56825e+07 -2.10421e+08 -1.82642e+07
140 2 6.63358 38.0441 42.8613 934191 133039 246007 -222697 -359060 -7334.74 1.26705e+07 3.66902e+06 6.60511e+06 -4.77403e+06 3.60775e+06
141 2 1.01177 22.7678 20.9194 1.6542e+06 1.14234e+06 210605 -522975 -383119 286346 -9.39989e+06 -1.84631e+06 -4.62435e+06 3.05298e+06 -747072
142 2 34.6453 37.2512 19.6595 1.63991e+06 997892 906864 495705 -856738 -283565 -4.40879e+06 -706856 -1.90791e+07 -6.61847e+06 1.29302e+06
143 2 15.8218 37.0248 3.80682 2.67969e+06 1.28741e+06 787898 -1.87894e+06 385012 -149990 -5.20742e+06 -1.2292e+09 -9.70642e+07 -1.32325e+08 2.43576e+06
144 2 47.7591 8.70552 45.9328 995477 1.3994e+06 30266 1.18029e+06 -173577 -205802 -66670.8 -1.61088e+06 -727609 -1.79493e+06 -93717.9
145 2 25.4803 22.948 40.7866 1.88624e+06 2.10754e+06 825621 -149135 -899550 949518 -5.77291e+06 1.82103e+07 4.9387e+08 -8.77647e+07 -9.80931e+06
146 2 15.6656 13.895 6.53942 426893 104133 2.4439e+06 -113909 1.02039e+06 -292088 -228731 -349281 248435 64645.3 -94184.3
147 2 10.7983 3.93539 39.4089 1.12216e+06 -4.75929e+06 -1.249e+07 -2.0129e+06 -4.36794e+06 -7.8789e+06 -4.34301e+06 1.85388e+06 4.96211e+06 5.11276e+06 -3.16629e+06
148 2 27.7726 27.5261 5.45813 -2.55903e+06 -1.80455e+06 -810271 -3.27994e+06 2.82792e+06 1.26841e+06 1.5764e+07 1.54653e+07 7.64686e+06 1.18587e+07 1.26734e+07
149 2 3.97492 46.9236 48.9689 1.23035e+06 2.38407e+06 912820 -1.43485e+06 -526606 1.14229e+06 -1.29813e+07 1.12439e+08 -3.65205e+06 -2.03496e+06 -285010
150 2 28.53 44.3416 40.1316 9124.7 2.7659e+06 517869 -158865 -68741.6 1.19682e+06 9019.84 -30659.9 -6.28708e+06 534329 2.74289e+06
151 2 12.669 26.0593 43.8875 1.56512e+06 3.60346e+06 3.4436e+06 361452 813551 1.75336e+06 -4.38035e+06 -1.27125e+08 -1.68506e+08 -8.48846e+07 1.4357e+06
152 2 8.70801 25.1893 19.5251 -3.78962e+07 -7.76937e+07 -903329 5.4376e+07 -9.18014e+06 1.26301e+07 1.75992e+07 1.15469e+08 1.59015e+08 -1.6571e+08 3.76553e+07
153 2 26.1599 24.6578 36.4969 298609 1.64582e+06 -488889 231854 -1.25092e+06 -2.14033e+06 2.69656e+07 1.98031e+09 3.82975e+08 2.95657e+08 6.41493e+06
154 2 13.6765 48.6871 18.5246 6.10021e+06 2.64438e+06 33868.1 -2.04995e+06 -233814 -28050.8 -1.00921e+09 4.85186e+09 2.85614e+08 -3.78483e+08 -1.07833e+08
155 2 16.8021 39.6807 15.1873 1.63582e+06 -1.9906e+06 -1.80534e+06 -957208 -220908 -2.23224e+06 -1.06969e+06 3.93381e+08 2.02263e+08 -9.49648e+07 1.70294e+06
156 2 29.7397 31.5537 26.7343 278603 1.84302e+06 2.45709e+06 -256240 830294 -740953 153927 -275133 -9.52275e+06 1.22773e+06 678412
157 2 37.0489 19.9761 4.07333 -0 -0 -0 -0 -0 -0 -0 -0 -0 -0 -0
158 2 21.6362 28.0903 2.01446 137688 1.6989e+06 91493.6 483651 112244 394266 65023.1 -733231 -5.18954e+06 -2.58071e+06 806078
159 2 35.457 40.0149 38.5985 1.75418e+06 304116 3.27865e+06 -386030 106269 -870236 -1.80908e+06 -656860 193631 228162 -331079
160 2 10.6049 27.6696 27.2482 -0 -0 -0 -0 -0 -0 -0 -0 -0 -0 -0
161 2 31.5962 23.2836 24.3845 -8.33368e+06 -9.35575e+06 -214229 -1.00192e+07 -5.43948e+06 -4.06337e+06 -3.19501e+07 -2.39267e+09 -3.65715e+07 1.66013e+08 6.36831e+07
162 2 3.61614 9.38132 29.1532 977377 2.44534e+06 2.07635e+06 -890581 452921 670206 6.36507e+06 1.05076e+07 1.26541e+08 -3.65721e+07 -447074
163 2 17.9235 25.9636 36.2292 771915 3.04895e+06 899949 -54910.2 807289 -484961 -618173 -2.81015e+07 -3.92457e+08 3.65142e+07 -7.44511e+06
164 2 3.15553 34.1354 47.2683 122299 3.40102e+06 38126.9 644935 68285.2 360098 106498 -444411 -8.93536e+06 -2.33937e+06 2.96161e+06
165 2 26.1407 40.3195 10.4038 619986 15967 1.88788e+06 -99495.4 -1.08188e+06 173620 -70168 -17773.7 15509.3 2852.38 -1807.09
166 2 17.1418 5.678 30.3121 1.36259e+06 2.52006e+06 4.49087e+06 1.0284e+06 178932 -1.92455e+06 -2.94964e+06 1.24842e+08 -4.55645e+08 -7.95391e+07 605432
167 2 17.9057 47.2966 18.3516 6.46782e+06 727137 601976 -1.84402e+06 -726069 -116839 -1.00977e+09 4.73084e+09 2.23797e+08 -3.21427e+08 -1.08911e+08
168 2 46.933 19.3891 16.0993 -1.79047e+06 2.18544e+06 1.46911e+06 -441498 -851450 1.3916e+06 8.18512e+08 9.029e+07 -5.69127e+06 1.00833e+06 1.76505e+06
169 2 22.4906 12.6927 29.5648 2.19571e+06 796358 2.39887e+06 -150698 -840754 -639337 -2.0282e+06 6.6198e+06 -6.08626e+06 1.32088e+06 -159673
170 2 32.7974 41.1457 36.3297 3.07075e+06 274352 1.04547e+06 -813670 718917 -417504 -7.38218e+06 5.75201e+07 -189783 -339571 -368867
171 2 4.89566 20.8469 24.3769 1.77714e+06 719037 2.49287e+06 -547791 -1.31099e+06 320223 -1.38172e+06 -2.46531e+07 -9.68912e+06 491315 -1.47209e+06
172 2 46.555 1.9191 37.5732 1.03458e+06 800058 403625 754949 530260 234546 4.62582e+06 -1.03197e+07 -1.32032e+07 -5.16044e+06 4.39012e+06
173 2 10.3032 14.8519 27.7135 1.42468e+06 654446 464852 -439446 -796731 119004 -1.35173e+06 6.97085e+08 1.03103e+06 -4.58326e+07 9.60372e+06
174 2 15.1966 28.1044 33.051 -604942 -5.02695e+06 -2.4174e+06 3.55991e+06 -1.59737e+06 4.39078e+06 4.46857e+06 1.02365e+07 3.17416e+07 -2.04755e+07 5.80368e+06
175 2 36.2043 5.22414 44.1106 776335 -1.40417e+07 -3.71403e+06 527870 78505 4.30455e+06 -2.2071e+06 3.20415e+06 1.46202e+08 -1.92469e+07 -1.2514e+07
176 2 14.8591 12.8347 25.7363 -2.60703e+07 -2.98685e+07 -2.50221e+07 2.79049e+07 2.55409e+07 -2.73381e+07 1.80302e+07 5.05253e+07 2.80177e+07 -5.40806e+07 2.0657e+07
177 2 16.3383 42.8435 21.8317 -475812 -1.118e+08 -6.60356e+07 -7.54865e+06 6.04591e+06 8.6652e+07 -485491 1.10278e+06 1.60127e+08 1.8247e+07 -1.10611e+08
178 2 36.4601 17.5141 16.6028 -1.58237e+07 682908 -1.18671e+06 -268891 -6.93252e+06 462318 1.21094e+08 -1.4244e+08 -1.3112e+08 9.00323e+07 8.7474e+06
179 2 46.1508 23.8698 15.043 -923620 -1.97603e+07 -1.16711e+07 5.22297e+06 5.04784e+06 -1.29795e+07 -613764 6.26411e+06 8.04541e+07 -1.98555e+07 -1.10678e+07
180 2 15.9377 26.6754 34.057 83792.3 -4.43127e+06 -1.72172e+06 3.43895e+06 -1.50389e+06 3.50722e+06 -1.1746e+06 -1.20974e+08 -2.79824e+08 -1.05648e+08 -373714
181 2 28.0355 39.5834 43.0179 -2.035e+07 -554996 -8.21905e+07 3.28017e+06 -4.08424e+07 6.9304e+06 45063.7 2.99487e+07 -3.19807e+06 4.01518e+06 -1.04872e+06
182 2 25.6763 1.10453 38.9492 2.12822e+06 166820 4.48566e+06 507977 -1.12075e+06 186.438 -6.39992e+06 3.06757e+06 130320 -279965 -427263
183 2 42.2381 24.0904 27.3434 357420 -2.99069e+07 -1.39643e+06 -1.44843e+06 917463 7.86694e+06 52705.1 439569 1.60953e+08 9.10802e+06 -2.97522e+07
184 2 38.3345 4.27859 9.3507 970349 443162 558972 655867 736612 497711 -9.949e+07 1.95469e+08 3.00391e+07 5.99775e+06 -4.46265e+07
185 2 18.3852 30.6225 10.0759 1477.38 558326 909323 32020.1 -39652 -714431 3001.53 713.956 -1.45611e+06 -50430.4 438796
186 2 46.8465 29.1173 46.9692 2.02293e+06 153955 319835 558075 -804366 -221902 -5.65446e+06 -606501 114746 -157193 -434201
187 2 23.4561 32.0416 19.4106 -0 -0 -0 -0 -0 -0 -0 -0 -0 -0 -0
188 2 9.70934 15.2603 6.02113 41308.1 796845 2.13765e+06 -182017 -298098 1.30514e+06 42520.1 7294.56 645695 -46214.4 963586
189 2 36.4267 48.0673 48.9375 -1.57112e+08 -4.94891e+07 -3.97826e+07 -8.81778e+07 -7.90589e+07 -4.43712e+07 1.74257e+08 1.04379e+08 -1.66105e+07 5.85818e+07 5.48897e+07
190 2 32.4871 20.1881 2.83287 591160 1.92932e+06 2.89338e+06 977666 -454102 141199 110918 -2.15581e+06 -4.93963e+06 -3.64581e+06 257262
191 2 48.6566 30.9865 19.7622 1.10655e+06 1.77152e+06 2.07875e+06 -429701 -1.35777e+06 -436654 -3.02029e+06 2.61074e+08 -1.72095e+07 9.44347e+06 -98378.1
192 2 2.24612 40.2058 24.9223 -1.40778e+07 24143.5 -2.97361e+07 2.32925e+06 -2.11061e+07 4.69017e+06 1.36719e+07 -3.74281e+08 -6.25959e+07 1.60732e+07 1.16604e+06
193 2 34.887 45.7257 20.0075 319293 1.70116e+06 545170 -52947.6 -185144 -697057 9.53676e+07 -1.13874e+09 -1.53097e+07 7.96137e+07 -7.12145e+06
194 2 20.3584 24.8772 6.73483 -1.01015e+06 -9.55382e+06 -1.88644e+06 3.54616e+06 -1.95696e+06 4.42128e+06 9.50714e+06 -7.56427e+08 3.62895e+07 -9.16558e+07 6.97087e+06
195 2 46.6982 33.8111 23.7014 -0 -0 -0 -0 -0 -0 -0 -0 -0 -0 -0
196 2 8.60205 16.9539 32.1728 1.32288e+06 735274 1.76084e+06 538043 561746 563811 -4.81743e+06 1.00606e+08 1.60757e+08 1.20303e+07 -1.38268e+07
197 2 14.1414 22.7247 31.3761 -3.76312e+06 -4.69935e+06 -631815 4.2054e+06 -1.54271e+06 1.72359e+06 1.19308e+07 1.88387e+07 1.63784e+07 -1.88822e+07 1.46587e+07
198 2 8.93875 47.6123 45.0349 2.25313e+06 2.39356e+06 4.17238e+06 584400 1.47098e+06 1.26929e+06 -3.13414e+06 -2.19914e+06 -766012 -913114 512518
199 2 20.7057 19.1083 47.6603 2.38897e+06 1.54043e+06 2.41593e+06 1.10738e+06 -665889 -71094.8 -2.43338e+06 2.30735e+08 -2.8147e+07 -705852 -3.17086e+06
200 2 40.0208 12.1379 16.9768 2.81526e+06 2.94816e+06 570187 -2.87919e+06 940835 -968003 -4.30325e+06 -7.56826e+06 -4.95635e+06 7.36446e+06 -4.66159e+06
201 2 12.4907 5.55574 45.3377 2.87591e+06 1.88948e+06 176910 1.54711e+06 -192450 -517128 6.49199e+06 -2.71934e+07 -4.65788e+07 -2.02226e+07 6.0753e+06
202 2 44.4686 23.3744 12.6657 1.43857e+06 1.35946e+06 1.45283e+06 1.23529e+06 1.3299e+06 883646 93751.5 -1.95394e+07 -1.50204e+07 -7.90171e+06 106893
203 2 15.9754 29.0345 17.2839 28820.9 1.05906e+06 1.98006e+06 174709 -238889 -1.4481e+06 29220.1 -35118.4 -227943 -182989 1.06806e+06
204 2 39.6683 38.6718 8.79097 592471 1.11184e+06 1.01937e+06 811624 -777149 -1.06461e+06 306586 -678623 -326162 -892142 574887
205 2 33.5312 46.733 41.4651 906568 -1.20067e+08 -2.0573e+06 -2.73965e+06 1.10318e+06 1.75551e+07 1.17517e+06 106476 4.14436e+08 9.73586e+06 -1.19807e+08
206 2 41.2638 21.1236 27.3385 -2.33786e+06 -1.18241e+07 -918842 -8.5596e+06 -1.8145e+06 -3.55281e+06 2.37505e+06 2.56748e+07 5.59176e+07 4.2699e+07 1.35944e+07
207 2 33.5508 47.7952 41.3065 -41189.7 -1.20345e+08 -2.684e+06 -2.22643e+06 332496 1.79724e+07 -41127.1 182913 4.14076e+08 9.88698e+06 -1.20162e+08
208 2 46.8347 40.8261 42.875 903148 704996 647218 -697937 320372 -544947 -1.54513e+06 -7.43189e+06 -1.57138e+06 1.95491e+06 -432908
209 2 11.1912 40.8131 22.6428 -163540 859792 62660.4 -15612.3 34002 181457 7.38692e+06 2.22805e+07 3.18235e+06 8.18839e+06 9.69266e+06