ITEM: TIMESTEP
0
ITEM: NUMBER OF ATOMS
665
ITEM: BOX BOUNDS xy xz yz pp pp pp
-1.0000000000000000e+01 1.0000000000000000e+01 0.0000000000000000e+00
-1.0000000000000000e+01 1.0000000000000000e+01 0.0000000000000000e+00
-1.0000000000000000e+01 1.0000000000000000e+01 0.0000000000000000e+00
ITEM: ATOMS id type x y z c_1[1] c_1[2] c_1[3] c_1[4] c_1[5] c_1[6] c_1[7] c_1[8] c_1[13] c_1[15] c_1[22]
1 2 -7.4 -9.25 -9.25 -2.6623e+06 -4.06454e+07 -4.06454e+07 487201 487201 1.25861e+06 7.53493e+06 2.06218e+06 2.17216e+08 -231494 -4.26495e+07
2 2 -3.7 -9.25 -9.25 -5.38273e+06 -4.0843e+07 -4.0843e+07 -0 -0 1.17122e+06 1.20162e+07 2.81851e+06 2.1711e+08 -0 -4.2276e+07
3 2 0 -9.25 -9.25 -5.38273e+06 -4.0843e+07 -4.0843e+07 -0 1.77877e-09 1.17122e+06 1.20162e+07 2.81851e+06 2.1711e+08 8.57696e-09 -4.2276e+07
4 2 3.7 -9.25 -9.25 -5.38273e+06 -4.0843e+07 -4.0843e+07 9.33856e-10 9.33856e-10 1.17122e+06 1.20162e+07 2.81851e+06 2.1711e+08 -7.22627e-10 -4.2276e+07
5 2 7.4 -9.25 -9.25 -2.6623e+06 -4.06454e+07 -4.06454e+07 -487201 -487201 1.25861e+06 7.53493e+06 2.06218e+06 2.17216e+08 231494 -4.26495e+07
6 2 -9.25 -7.4 -9.25 -4.06454e+07 -2.6623e+06 -4.06454e+07 487201 1.25861e+06 487201 2.17216e+08 1.92437e+06 7.53493e+06 -1.40851e+06 -4.6664e+06
7 2 -5.55 -7.4 -9.25 -2.41192e+06 -882907 -3.91175e+07 -0 4.44693e-10 271357 1.15125e+07 3.11356e+06 8.47186e+06 -2.69248e-12 2.11258e+06
8 2 -7.4 -5.55 -9.25 -882907 -2.41192e+06 -3.91175e+07 -0 271357 4.44693e-10 8.47186e+06 3.05452e+06 1.15125e+07 -0 583568
9 2 -1.85 -7.4 -9.25 -2.41192e+06 -882907 -3.91175e+07 -0 -7.11509e-10 271357 1.15125e+07 3.11356e+06 8.47186e+06 8.68542e-14 2.11258e+06
10 2 -3.7 -5.55 -9.25 -2.41192e+06 -2.41192e+06 -3.92275e+07 -0 -0 2.22347e-10 1.15125e+07 3.11356e+06 1.15125e+07 -0 583568
11 2 1.85 -7.4 -9.25 -2.41192e+06 -882907 -3.91175e+07 -0 -8.89387e-10 271357 1.15125e+07 3.11356e+06 8.47186e+06 8.68542e-14 2.11258e+06
12 2 0 -5.55 -9.25 -2.41192e+06 -2.41192e+06 -3.92275e+07 3.55755e-10 1.1562e-09 5.33632e-10 1.15125e+07 3.11356e+06 1.15125e+07 -1.61868e-08 583568
13 2 5.55 -7.4 -9.25 -2.41192e+06 -882907 -3.91175e+07 -0 -1.46749e-09 271357 1.15125e+07 3.11356e+06 8.47186e+06 -2.17135e-14 2.11258e+06
14 2 3.7 -5.55 -9.25 -2.41192e+06 -2.41192e+06 -3.92275e+07 -0 4.44693e-10 4.44693e-10 1.15125e+07 3.11356e+06 1.15125e+07 -0 583568
15 2 9.25 -7.4 -9.25 -4.06454e+07 -2.6623e+06 -4.06454e+07 -487201 -1.25861e+06 487201 2.17216e+08 1.92437e+06 7.53493e+06 1.40851e+06 -4.6664e+06
16 2 7.4 -5.55 -9.25 -882907 -2.41192e+06 -3.91175e+07 -0 -271357 3.55755e-10 8.47186e+06 3.05452e+06 1.15125e+07 -1.77877e-08 583568
17 2 -9.25 -3.7 -9.25 -4.0843e+07 -5.38273e+06 -4.0843e+07 -0 1.17122e+06 -0 2.1711e+08 2.48395e+06 1.20162e+07 -0 -6.81581e+06
18 2 -5.55 -3.7 -9.25 -2.41192e+06 -2.41192e+06 -3.92275e+07 -0 2.22347e-10 4.44693e-11 1.15125e+07 3.11356e+06 1.15125e+07 -6.94833e-13 583568
19 2 -7.4 -1.85 -9.25 -882907 -2.41192e+06 -3.91175e+07 -0 271357 -7.11509e-10 8.47186e+06 3.05452e+06 1.15125e+07 -0 583568
20 2 -1.85 -3.7 -9.25 -2.41192e+06 -2.41192e+06 -3.92275e+07 -0 -4.44693e-10 -8.89387e-11 1.15125e+07 3.11356e+06 1.15125e+07 -1.98679e-12 583568
21 2 -3.7 -1.85 -9.25 -2.41192e+06 -2.41192e+06 -3.92275e+07 -0 -4.44693e-11 -4.44693e-10 1.15125e+07 3.11356e+06 1.15125e+07 -0 583568
22 2 1.85 -3.7 -9.25 -2.41192e+06 -2.41192e+06 -3.92275e+07 -0 -1.06726e-09 -0 1.15125e+07 3.11356e+06 1.15125e+07 2.75762e-12 583568
23 2 0 -1.85 -9.25 -2.41192e+06 -2.41192e+06 -3.92275e+07 -3.55755e-10 1.1562e-09 -8.00448e-10 1.15125e+07 3.11356e+06 1.15125e+07 1.61891e-08 583568
24 2 5.55 -3.7 -9.25 -2.41192e+06 -2.41192e+06 -3.92275e+07 -0 -1.95665e-09 -0 1.15125e+07 3.11356e+06 1.15125e+07 2.43192e-12 583568
25 2 3.7 -1.85 -9.25 -2.41192e+06 -2.41192e+06 -3.92275e+07 -0 4.44693e-10 -7.11509e-10 1.15125e+07 3.11356e+06 1.15125e+07 -0 583568
26 2 9.25 -3.7 -9.25 -4.0843e+07 -5.38273e+06 -4.0843e+07 -0 -1.17122e+06 -0 2.1711e+08 2.48395e+06 1.20162e+07 -3.55755e-10 -6.81581e+06
27 2 7.4 -1.85 -9.25 -882907 -2.41192e+06 -3.91175e+07 -0 -271357 -6.22571e-10 8.47186e+06 3.05452e+06 1.15125e+07 1.77882e-08 583568
28 2 -9.25 0 -9.25 -4.0843e+07 -5.38273e+06 -4.0843e+07 -0 1.17122e+06 1.77877e-09 2.1711e+08 2.48395e+06 1.20162e+07 1.99223e-08 -6.81581e+06
29 2 -5.55 0 -9.25 -2.41192e+06 -2.41192e+06 -3.92275e+07 3.55755e-10 5.33632e-10 1.11173e-09 1.15125e+07 3.11356e+06 1.15125e+07 -1.54726e-08 583568
30 2 -7.4 1.85 -9.25 -882907 -2.41192e+06 -3.91175e+07 -0 271357 -8.89387e-10 8.47186e+06 3.05452e+06 1.15125e+07 -0 583568
31 2 -1.85 0 -9.25 -2.41192e+06 -2.41192e+06 -3.92275e+07 -3.55755e-10 -8.00448e-10 1.20067e-09 1.15125e+07 3.11356e+06 1.15125e+07 1.54781e-08 583568
32 2 -3.7 1.85 -9.25 -2.41192e+06 -2.41192e+06 -3.92275e+07 -0 -0 -1.06726e-09 1.15125e+07 3.11356e+06 1.15125e+07 -0 583568
33 2 1.85 0 -9.25 -2.41192e+06 -2.41192e+06 -3.92275e+07 -3.55755e-10 -5.33632e-10 7.55979e-10 1.15125e+07 3.11356e+06 1.15125e+07 2.61504e-08 583568
34 2 0 1.85 -9.25 -2.41192e+06 -2.41192e+06 -3.92275e+07 -3.55755e-10 7.55979e-10 -6.22571e-10 1.15125e+07 3.11356e+06 1.15125e+07 2.61535e-08 583568
35 2 5.55 0 -9.25 -2.41192e+06 -2.41192e+06 -3.92275e+07 -8.89387e-11 -1.33408e-09 1.1562e-09 1.15125e+07 3.11356e+06 1.15125e+07 -7.64868e-09 583568
36 2 3.7 1.85 -9.25 -2.41192e+06 -2.41192e+06 -3.92275e+07 -0 4.44693e-10 -8.89387e-10 1.15125e+07 3.11356e+06 1.15125e+07 -0 583568
37 2 9.25 0 -9.25 -4.0843e+07 -5.38273e+06 -4.0843e+07 -3.55755e-10 -1.17122e+06 1.46749e-09 2.1711e+08 2.48395e+06 1.20162e+07 5.86995e-09 -6.81581e+06
38 2 7.4 1.85 -9.25 -882907 -2.41192e+06 -3.91175e+07 -4.44693e-10 -271357 -7.11509e-10 8.47186e+06 3.05452e+06 1.15125e+07 1.84964e-08 583568
39 2 -9.25 3.7 -9.25 -4.0843e+07 -5.38273e+06 -4.0843e+07 9.33856e-10 1.17122e+06 9.33856e-10 2.1711e+08 2.48395e+06 1.20162e+07 -1.42302e-09 -6.81581e+06
40 2 -5.55 3.7 -9.25 -2.41192e+06 -2.41192e+06 -3.92275e+07 -0 4.44693e-10 4.44693e-10 1.15125e+07 3.11356e+06 1.15125e+07 5.34153e-12 583568
41 2 -7.4 5.55 -9.25 -882907 -2.41192e+06 -3.91175e+07 -0 271357 -1.46749e-09 8.47186e+06 3.05452e+06 1.15125e+07 -0 583568
42 2 -1.85 3.7 -9.25 -2.41192e+06 -2.41192e+06 -3.92275e+07 -0 -7.11509e-10 4.44693e-10 1.15125e+07 3.11356e+06 1.15125e+07 -2.94218e-12 583568
43 2 -3.7 5.55 -9.25 -2.41192e+06 -2.41192e+06 -3.92275e+07 -0 -0 -1.95665e-09 1.15125e+07 3.11356e+06 1.15125e+07 -0 583568
44 2 1.85 3.7 -9.25 -2.41192e+06 -2.41192e+06 -3.92275e+07 -0 -8.89387e-10 4.44693e-10 1.15125e+07 3.11356e+06 1.15125e+07 -2.95304e-12 583568
45 2 0 5.55 -9.25 -2.41192e+06 -2.41192e+06 -3.92275e+07 -8.89387e-11 1.20067e-09 -1.33408e-09 1.15125e+07 3.11356e+06 1.15125e+07 -6.76526e-09 583568
46 2 5.55 3.7 -9.25 -2.41192e+06 -2.41192e+06 -3.92275e+07 -0 -1.46749e-09 4.44693e-10 1.15125e+07 3.11356e+06 1.15125e+07 3.79987e-13 583568
47 2 3.7 5.55 -9.25 -2.41192e+06 -2.41192e+06 -3.92275e+07 -0 4.44693e-10 -1.46749e-09 1.15125e+07 3.11356e+06 1.15125e+07 -0 583568
48 2 9.25 3.7 -9.25 -4.0843e+07 -5.38273e+06 -4.0843e+07 -9.33856e-10 -1.17122e+06 9.33856e-10 2.1711e+08 2.48395e+06 1.20162e+07 1.24514e-09 -6.81581e+06
49 2 7.4 5.55 -9.25 -882907 -2.41192e+06 -3.91175e+07 4.00224e-10 -271357 -9.78325e-10 8.47186e+06 3.05452e+06 1.15125e+07 -3.02445e-09 583568
50 2 -9.25 7.4 -9.25 -4.06454e+07 -2.6623e+06 -4.06454e+07 -487201 1.25861e+06 -487201 2.17216e+08 1.92437e+06 7.53493e+06 1.40851e+06 -4.6664e+06
51 2 -5.55 7.4 -9.25 -2.41192e+06 -882907 -3.91175e+07 -0 3.55755e-10 -271357 1.15125e+07 3.11356e+06 8.47186e+06 -1.90329e-08 2.11258e+06
52 2 -7.4 9.25 -9.25 -2.6623e+06 -4.06454e+07 -4.06454e+07 -487201 487201 -1.25861e+06 7.53493e+06 2.06218e+06 2.17216e+08 231494 -4.26495e+07
53 2 -1.85 7.4 -9.25 -2.41192e+06 -882907 -3.91175e+07 -0 -6.22571e-10 -271357 1.15125e+07 3.11356e+06 8.47186e+06 1.90329e-08 2.11258e+06
54 2 -3.7 9.25 -9.25 -5.38273e+06 -4.0843e+07 -4.0843e+07 -0 -0 -1.17122e+06 1.20162e+07 2.81851e+06 2.1711e+08 -6.6704e-11 -4.2276e+07
55 2 1.85 7.4 -9.25 -2.41192e+06 -882907 -3.91175e+07 -4.44693e-10 -7.11509e-10 -271357 1.15125e+07 3.11356e+06 8.47186e+06 1.93886e-08 2.11258e+06
56 2 0 9.25 -9.25 -5.38273e+06 -4.0843e+07 -4.0843e+07 -3.55755e-10 1.46749e-09 -1.17122e+06 1.20162e+07 2.81851e+06 2.1711e+08 1.75098e-08 -4.2276e+07
57 2 5.55 7.4 -9.25 -2.41192e+06 -882907 -3.91175e+07 4.00224e-10 -9.78325e-10 -271357 1.15125e+07 3.11356e+06 8.47186e+06 -3.9133e-09 2.11258e+06
58 2 3.7 9.25 -9.25 -5.38273e+06 -4.0843e+07 -4.0843e+07 -9.33856e-10 9.33856e-10 -1.17122e+06 1.20162e+07 2.81851e+06 2.1711e+08 7.22627e-10 -4.2276e+07
59 2 9.25 7.4 -9.25 -4.06454e+07 -2.6623e+06 -4.06454e+07 487201 -1.25861e+06 -487201 2.17216e+08 1.92437e+06 7.53493e+06 -1.40851e+06 -4.6664e+06
60 2 7.4 9.25 -9.25 -2.6623e+06 -4.06454e+07 -4.06454e+07 487201 -487201 -1.25861e+06 7.53493e+06 2.06218e+06 2.17216e+08 -231494 -4.26495e+07
61 2 -9.25 -9.25 -7.4 -4.06454e+07 -4.06454e+07 -2.6623e+06 1.25861e+06 487201 487201 2.17216e+08 2.0516e+06 2.17216e+08 3.60074e+06 -5.19471e+07
62 2 -5.55 -9.25 -7.4 -2.41192e+06 -3.91175e+07 -882907 4.44693e-10 -0 271357 1.15125e+07 2.11059e+06 2.17161e+08 -9.02724e-09 -4.48296e+07
63 2 -7.4 -9.25 -5.55 -882907 -3.91175e+07 -2.41192e+06 271357 -0 4.44693e-10 8.47186e+06 1.75822e+06 2.17161e+08 -130545 -4.51516e+07
64 2 -1.85 -9.25 -7.4 -2.41192e+06 -3.91175e+07 -882907 -7.11509e-10 -0 271357 1.15125e+07 2.11059e+06 2.17161e+08 9.24962e-09 -4.48296e+07
65 2 -3.7 -9.25 -5.55 -2.41192e+06 -3.92275e+07 -2.41192e+06 -0 -0 1.77877e-10 1.15125e+07 2.11059e+06 2.17104e+08 2.22347e-11 -4.49396e+07
66 2 1.85 -9.25 -7.4 -2.41192e+06 -3.91175e+07 -882907 7.11509e-10 -0 271357 1.15125e+07 2.11059e+06 2.17161e+08 -5.55867e-09 -4.48296e+07
67 2 0 -9.25 -5.55 -2.41192e+06 -3.92275e+07 -2.41192e+06 -4.44693e-11 -2.22347e-10 9.78325e-10 1.15125e+07 2.11059e+06 2.17104e+08 2.90438e-10 -4.49396e+07
68 2 5.55 -9.25 -7.4 -2.41192e+06 -3.91175e+07 -882907 -1.51196e-09 -0 271357 1.15125e+07 2.11059e+06 2.17161e+08 1.99223e-08 -4.48296e+07
69 2 3.7 -9.25 -5.55 -2.41192e+06 -3.92275e+07 -2.41192e+06 4.44693e-10 -0 4.44693e-10 1.15125e+07 2.11059e+06 2.17104e+08 -4.00224e-10 -4.49396e+07
70 2 9.25 -9.25 -7.4 -4.06454e+07 -4.06454e+07 -2.6623e+06 -1.25861e+06 -487201 487201 2.17216e+08 2.0516e+06 2.17216e+08 -3.60074e+06 -5.19471e+07
71 2 7.4 -9.25 -5.55 -882907 -3.91175e+07 -2.41192e+06 -271357 -5.78101e-10 8.00448e-10 8.47186e+06 1.75822e+06 2.17161e+08 130545 -4.51516e+07
72 2 -9.25 -5.55 -7.4 -3.91175e+07 -2.41192e+06 -882907 4.44693e-10 271357 -0 2.17161e+08 2.06043e+06 1.15125e+07 -2.13453e-09 -8.12399e+06
73 2 -9.25 -7.4 -5.55 -3.91175e+07 -882907 -2.41192e+06 271357 4.44693e-10 -0 2.17161e+08 1.7385e+06 8.47186e+06 -794295 -6.91699e+06
74 2 -7.4 -7.4 -7.4 1.49081e+06 1.49081e+06 1.49081e+06 -0 -0 -0 1.13919e+07 3.59029e+06 1.13919e+07 -0 5.07006e+06
75 2 -5.55 -5.55 -7.4 629751 629751 1.49081e+06 -0 -0 -0 1.32734e+07 3.60134e+06 1.32734e+07 1.06726e-09 4.209e+06
76 2 -5.55 -7.4 -5.55 629751 1.49081e+06 629751 -0 -0 -0 1.32734e+07 3.60134e+06 1.13919e+07 -0 5.07006e+06
77 2 -7.4 -5.55 -5.55 1.49081e+06 629751 629751 -0 -0 -0 1.13919e+07 3.59029e+06 1.32734e+07 -0 4.209e+06
78 2 -3.7 -7.4 -7.4 629751 1.49081e+06 1.49081e+06 -0 -0 -0 1.32734e+07 3.60134e+06 1.13919e+07 -0 5.07006e+06
79 2 -1.85 -5.55 -7.4 629751 629751 1.49081e+06 -0 -0 -0 1.32734e+07 3.60134e+06 1.32734e+07 -1.06726e-09 4.209e+06
80 2 -1.85 -7.4 -5.55 629751 1.49081e+06 629751 -0 -0 -0 1.32734e+07 3.60134e+06 1.13919e+07 -0 5.07006e+06
81 2 -3.7 -5.55 -5.55 629751 629751 629751 -0 -0 -0 1.32734e+07 3.60134e+06 1.32734e+07 -0 4.209e+06
82 2 0 -7.4 -7.4 629751 1.49081e+06 1.49081e+06 -0 -0 -0 1.32734e+07 3.60134e+06 1.13919e+07 -1.04225e-12 5.07006e+06
83 2 1.85 -5.55 -7.4 629751 629751 1.49081e+06 -3.55755e-10 -0 -0 1.32734e+07 3.60134e+06 1.32734e+07 5.15844e-09 4.209e+06
84 2 1.85 -7.4 -5.55 629751 1.49081e+06 629751 -0 -3.55755e-10 -0 1.32734e+07 3.60134e+06 1.13919e+07 -0 5.07006e+06
85 2 0 -5.55 -5.55 629751 629751 629751 3.55755e-10 3.55755e-10 -0 1.32734e+07 3.60134e+06 1.32734e+07 -5.15844e-09 4.209e+06
86 2 3.7 -7.4 -7.4 629751 1.49081e+06 1.49081e+06 -0 -0 -0 1.32734e+07 3.60134e+06 1.13919e+07 -0 5.07006e+06
87 2 5.55 -5.55 -7.4 629751 629751 1.49081e+06 -0 -0 -0 1.32734e+07 3.60134e+06 1.32734e+07 8.89387e-10 4.209e+06
88 2 5.55 -7.4 -5.55 629751 1.49081e+06 629751 -0 -0 -0 1.32734e+07 3.60134e+06 1.13919e+07 -0 5.07006e+06
89 2 3.7 -5.55 -5.55 629751 629751 629751 -0 -0 -0 1.32734e+07 3.60134e+06 1.32734e+07 -0 4.209e+06
90 2 7.4 -7.4 -7.4 1.49081e+06 1.49081e+06 1.49081e+06 -0 -0 -0 1.13919e+07 3.59029e+06 1.13919e+07 6.94833e-13 5.07006e+06
91 2 9.25 -5.55 -7.4 -3.91175e+07 -2.41192e+06 -882907 -8.00448e-10 -271357 -0 2.17161e+08 2.06043e+06 1.15125e+07 7.11509e-09 -8.12399e+06
92 2 9.25 -7.4 -5.55 -3.91175e+07 -882907 -2.41192e+06 -271357 -8.00448e-10 -0 2.17161e+08 1.7385e+06 8.47186e+06 794295 -6.91699e+06
93 2 7.4 -5.55 -5.55 1.49081e+06 629751 629751 3.55755e-10 3.55755e-10 -0 1.13919e+07 3.59029e+06 1.32734e+07 -6.04783e-09 4.209e+06
94 2 -9.25 -1.85 -7.4 -3.91175e+07 -2.41192e+06 -882907 -7.11509e-10 271357 -0 2.17161e+08 2.06043e+06 1.15125e+07 2.93498e-09 -8.12399e+06
95 2 -9.25 -3.7 -5.55 -3.92275e+07 -2.41192e+06 -2.41192e+06 4.44693e-11 1.77877e-10 -0 2.17104e+08 2.06032e+06 1.15125e+07 -1.77877e-10 -8.12399e+06
96 2 -7.4 -3.7 -7.4 1.49081e+06 629751 1.49081e+06 -0 -0 -0 1.13919e+07 3.59029e+06 1.32734e+07 -0 4.209e+06
97 2 -5.55 -1.85 -7.4 629751 629751 1.49081e+06 -0 -0 -0 1.32734e+07 3.60134e+06 1.32734e+07 -1.06726e-09 4.209e+06
98 2 -5.55 -3.7 -5.55 629751 629751 629751 -0 -0 -0 1.32734e+07 3.60134e+06 1.32734e+07 -6.94833e-13 4.209e+06
99 2 -7.4 -1.85 -5.55 1.49081e+06 629751 629751 -0 -0 -0 1.13919e+07 3.59029e+06 1.32734e+07 -0 4.209e+06
100 2 -3.7 -3.7 -7.4 629751 629751 1.49081e+06 -0 -0 -0 1.32734e+07 3.60134e+06 1.32734e+07 -0 4.209e+06
101 2 -1.85 -1.85 -7.4 629751 629751 1.49081e+06 -0 -0 -0 1.32734e+07 3.60134e+06 1.32734e+07 1.06726e-09 4.209e+06
102 2 -1.85 -3.7 -5.55 629751 629751 629751 -0 -0 -0 1.32734e+07 3.60134e+06 1.32734e+07 6.94833e-13 4.209e+06
103 2 -3.7 -1.85 -5.55 629751 629751 629751 -0 -0 -0 1.32734e+07 3.60134e+06 1.32734e+07 -0 4.209e+06
104 2 0 -3.7 -7.4 629751 629751 1.49081e+06 -0 -0 -0 1.32734e+07 3.60134e+06 1.32734e+07 -3.47417e-13 4.209e+06
105 2 1.85 -1.85 -7.4 629751 629751 1.49081e+06 3.55755e-10 -0 -0 1.32734e+07 3.60134e+06 1.32734e+07 -5.15844e-09 4.209e+06
106 2 1.85 -3.7 -5.55 629751 629751 629751 -0 -3.55755e-10 -0 1.32734e+07 3.60134e+06 1.32734e+07 1.04225e-12 4.209e+06
107 2 0 -1.85 -5.55 629751 629751 629751 -3.55755e-10 3.55755e-10 -0 1.32734e+07 3.60134e+06 1.32734e+07 5.15844e-09 4.209e+06
108 2 3.7 -3.7 -7.4 629751 629751 1.49081e+06 -0 -0 -0 1.32734e+07 3.60134e+06 1.32734e+07 -0 4.209e+06
109 2 5.55 -1.85 -7.4 629751 629751 1.49081e+06 -0 -0 -0 1.32734e+07 3.60134e+06 1.32734e+07 -8.89387e-10 4.209e+06
110 2 5.55 -3.7 -5.55 629751 629751 629751 -0 -0 -0 1.32734e+07 3.60134e+06 1.32734e+07 -6.94833e-13 4.209e+06
111 2 3.7 -1.85 -5.55 629751 629751 629751 -0 -0 -0 1.32734e+07 3.60134e+06 1.32734e+07 -0 4.209e+06
112 2 7.4 -3.7 -7.4 1.49081e+06 629751 1.49081e+06 -0 -0 -0 1.13919e+07 3.59029e+06 1.32734e+07 -3.47417e-13 4.209e+06
113 2 9.25 -1.85 -7.4 -3.91175e+07 -2.41192e+06 -882907 1.06726e-09 -271357 -0 2.17161e+08 2.06043e+06 1.15125e+07 -7.91554e-09 -8.12399e+06
114 2 9.25 -3.7 -5.55 -3.92275e+07 -2.41192e+06 -2.41192e+06 -4.44693e-11 -5.33632e-10 -0 2.17104e+08 2.06032e+06 1.15125e+07 -0 -8.12399e+06
115 2 7.4 -1.85 -5.55 1.49081e+06 629751 629751 -3.55755e-10 3.55755e-10 -0 1.13919e+07 3.59029e+06 1.32734e+07 6.04748e-09 4.209e+06
116 2 -9.25 1.85 -7.4 -3.91175e+07 -2.41192e+06 -882907 7.11509e-10 271357 -0 2.17161e+08 2.06043e+06 1.15125e+07 -2.65927e-08 -8.12399e+06
117 2 -9.25 0 -5.55 -3.92275e+07 -2.41192e+06 -2.41192e+06 -4.44693e-11 9.78325e-10 -2.22347e-10 2.17104e+08 2.06032e+06 1.15125e+07 1.76988e-08 -8.12399e+06
118 2 -7.4 0 -7.4 1.49081e+06 629751 1.49081e+06 -0 -0 -0 1.13919e+07 3.59029e+06 1.32734e+07 -0 4.209e+06
119 2 -5.55 1.85 -7.4 629751 629751 1.49081e+06 -3.55755e-10 -0 -0 1.32734e+07 3.60134e+06 1.32734e+07 5.5142e-09 4.209e+06
120 2 -5.55 0 -5.55 629751 629751 629751 3.55755e-10 -0 3.55755e-10 1.32734e+07 3.60134e+06 1.32734e+07 -5.51385e-09 4.209e+06
121 2 -7.4 1.85 -5.55 1.49081e+06 629751 629751 -0 -0 -3.55755e-10 1.13919e+07 3.59029e+06 1.32734e+07 -0 4.209e+06
122 2 -3.7 0 -7.4 629751 629751 1.49081e+06 -0 -0 -0 1.32734e+07 3.60134e+06 1.32734e+07 -0 4.209e+06
123 2 -1.85 1.85 -7.4 629751 629751 1.49081e+06 3.55755e-10 -0 -0 1.32734e+07 3.60134e+06 1.32734e+07 -5.5142e-09 4.209e+06
124 2 -1.85 0 -5.55 629751 629751 629751 -3.55755e-10 -0 3.55755e-10 1.32734e+07 3.60134e+06 1.32734e+07 5.51385e-09 4.209e+06
125 2 -3.7 1.85 -5.55 629751 629751 629751 -0 -0 -3.55755e-10 1.32734e+07 3.60134e+06 1.32734e+07 -0 4.209e+06
126 2 0 0 -7.4 629751 629751 1.49081e+06 -8.89387e-11 -0 -0 1.32734e+07 3.60134e+06 1.32734e+07 1.77877e-10 4.209e+06
127 2 1.85 1.85 -7.4 629751 629751 1.49081e+06 -8.89387e-11 -0 -0 1.32734e+07 3.60134e+06 1.32734e+07 1.77877e-10 4.209e+06
128 2 1.85 0 -5.55 629751 629751 629751 8.89387e-11 -3.55755e-10 3.55755e-10 1.32734e+07 3.60134e+06 1.32734e+07 -1.77877e-10 4.209e+06
129 2 0 1.85 -5.55 629751 629751 629751 8.89387e-11 3.55755e-10 -3.55755e-10 1.32734e+07 3.60134e+06 1.32734e+07 -1.76488e-10 4.209e+06
130 2 3.7 0 -7.4 629751 629751 1.49081e+06 -0 -0 -0 1.32734e+07 3.60134e+06 1.32734e+07 -0 4.209e+06
131 2 5.55 1.85 -7.4 629751 629751 1.49081e+06 -4.44693e-11 -0 -0 1.32734e+07 3.60134e+06 1.32734e+07 -5.33632e-10 4.209e+06
132 2 5.55 0 -5.55 629751 629751 629751 4.44693e-11 -0 3.55755e-10 1.32734e+07 3.60134e+06 1.32734e+07 5.35369e-10 4.209e+06
133 2 3.7 1.85 -5.55 629751 629751 629751 -0 -0 -3.55755e-10 1.32734e+07 3.60134e+06 1.32734e+07 -0 4.209e+06
134 2 7.4 0 -7.4 1.49081e+06 629751 1.49081e+06 -1.33408e-10 -0 -0 1.13919e+07 3.59029e+06 1.32734e+07 -3.56797e-10 4.209e+06
135 2 9.25 1.85 -7.4 -3.91175e+07 -2.41192e+06 -882907 -8.00448e-10 -271357 -0 2.17161e+08 2.06043e+06 1.15125e+07 2.73042e-08 -8.12399e+06
136 2 9.25 0 -5.55 -3.92275e+07 -2.41192e+06 -2.41192e+06 1.33408e-10 -1.33408e-09 -2.22347e-10 2.17104e+08 2.06032e+06 1.15125e+07 -1.7343e-08 -8.12399e+06
137 2 7.4 1.85 -5.55 1.49081e+06 629751 629751 1.33408e-10 3.55755e-10 -3.55755e-10 1.13919e+07 3.59029e+06 1.32734e+07 3.55755e-10 4.209e+06
138 2 -9.25 5.55 -7.4 -3.91175e+07 -2.41192e+06 -882907 -1.51196e-09 271357 -0 2.17161e+08 2.06043e+06 1.15125e+07 1.42302e-08 -8.12399e+06
139 2 -9.25 3.7 -5.55 -3.92275e+07 -2.41192e+06 -2.41192e+06 4.44693e-10 4.44693e-10 -0 2.17104e+08 2.06032e+06 1.15125e+07 -4.44693e-10 -8.12399e+06
140 2 -7.4 3.7 -7.4 1.49081e+06 629751 1.49081e+06 -0 -0 -0 1.13919e+07 3.59029e+06 1.32734e+07 -0 4.209e+06
141 2 -5.55 5.55 -7.4 629751 629751 1.49081e+06 -0 -0 -0 1.32734e+07 3.60134e+06 1.32734e+07 7.11509e-10 4.209e+06
142 2 -5.55 3.7 -5.55 629751 629751 629751 -0 -0 -0 1.32734e+07 3.60134e+06 1.32734e+07 -0 4.209e+06
143 2 -7.4 5.55 -5.55 1.49081e+06 629751 629751 -0 -0 -0 1.13919e+07 3.59029e+06 1.32734e+07 -0 4.209e+06
144 2 -3.7 3.7 -7.4 629751 629751 1.49081e+06 -0 -0 -0 1.32734e+07 3.60134e+06 1.32734e+07 -0 4.209e+06
145 2 -1.85 5.55 -7.4 629751 629751 1.49081e+06 -0 -0 -0 1.32734e+07 3.60134e+06 1.32734e+07 -7.11509e-10 4.209e+06
146 2 -1.85 3.7 -5.55 629751 629751 629751 -0 -0 -0 1.32734e+07 3.60134e+06 1.32734e+07 -1.04225e-12 4.209e+06
147 2 -3.7 5.55 -5.55 629751 629751 629751 -0 -0 -0 1.32734e+07 3.60134e+06 1.32734e+07 -0 4.209e+06
148 2 0 3.7 -7.4 629751 629751 1.49081e+06 -0 -0 -0 1.32734e+07 3.60134e+06 1.32734e+07 -3.47417e-13 4.209e+06
149 2 1.85 5.55 -7.4 629751 629751 1.49081e+06 -4.44693e-11 -0 -0 1.32734e+07 3.60134e+06 1.32734e+07 -7.11509e-10 4.209e+06
150 2 1.85 3.7 -5.55 629751 629751 629751 -0 -3.55755e-10 -0 1.32734e+07 3.60134e+06 1.32734e+07 -3.47417e-13 4.209e+06
151 2 0 5.55 -5.55 629751 629751 629751 4.44693e-11 3.55755e-10 -0 1.32734e+07 3.60134e+06 1.32734e+07 7.10467e-10 4.209e+06
152 2 3.7 3.7 -7.4 629751 629751 1.49081e+06 -0 -0 -0 1.32734e+07 3.60134e+06 1.32734e+07 -0 4.209e+06
153 2 5.55 5.55 -7.4 629751 629751 1.49081e+06 -0 -0 -0 1.32734e+07 3.60134e+06 1.32734e+07 5.33632e-10 4.209e+06
154 2 5.55 3.7 -5.55 629751 629751 629751 -0 -0 -0 1.32734e+07 3.60134e+06 1.32734e+07 2.0845e-12 4.209e+06
155 2 3.7 5.55 -5.55 629751 629751 629751 -0 -0 -0 1.32734e+07 3.60134e+06 1.32734e+07 -0 4.209e+06
156 2 7.4 3.7 -7.4 1.49081e+06 629751 1.49081e+06 -0 -0 -0 1.13919e+07 3.59029e+06 1.32734e+07 -1.73708e-12 4.209e+06
157 2 9.25 5.55 -7.4 -3.91175e+07 -2.41192e+06 -882907 1.46749e-09 -271357 -0 2.17161e+08 2.06043e+06 1.15125e+07 -1.42302e-08 -8.12399e+06
158 2 9.25 3.7 -5.55 -3.92275e+07 -2.41192e+06 -2.41192e+06 -4.44693e-10 -8.00448e-10 -0 2.17104e+08 2.06032e+06 1.15125e+07 9.78325e-10 -8.12399e+06
159 2 7.4 5.55 -5.55 1.49081e+06 629751 629751 4.44693e-11 3.55755e-10 -0 1.13919e+07 3.59029e+06 1.32734e+07 1.7753e-10 4.209e+06
160 2 -9.25 9.25 -7.4 -4.06454e+07 -4.06454e+07 -2.6623e+06 -1.25861e+06 487201 -487201 2.17216e+08 2.0516e+06 2.17216e+08 -3.60074e+06 -5.19471e+07
161 2 -9.25 7.4 -5.55 -3.91175e+07 -882907 -2.41192e+06 -271357 8.00448e-10 -5.78101e-10 2.17161e+08 1.7385e+06 8.47186e+06 794295 -6.91699e+06
162 2 -7.4 7.4 -7.4 1.49081e+06 1.49081e+06 1.49081e+06 -0 -0 -0 1.13919e+07 3.59029e+06 1.13919e+07 -0 5.07006e+06
163 2 -5.55 9.25 -7.4 -2.41192e+06 -3.91175e+07 -882907 -8.00448e-10 -0 -271357 1.15125e+07 2.11059e+06 2.17161e+08 1.45859e-08 -4.48296e+07
164 2 -5.55 7.4 -5.55 629751 1.49081e+06 629751 3.55755e-10 -0 3.55755e-10 1.32734e+07 3.60134e+06 1.13919e+07 -6.22571e-09 5.07006e+06
165 2 -7.4 9.25 -5.55 -882907 -3.91175e+07 -2.41192e+06 -271357 -0 -8.00448e-10 8.47186e+06 1.75822e+06 2.17161e+08 130545 -4.51516e+07
166 2 -3.7 7.4 -7.4 629751 1.49081e+06 1.49081e+06 -0 -0 -0 1.32734e+07 3.60134e+06 1.13919e+07 -0 5.07006e+06
167 2 -1.85 9.25 -7.4 -2.41192e+06 -3.91175e+07 -882907 1.06726e-09 -0 -271357 1.15125e+07 2.11059e+06 2.17161e+08 -1.49417e-08 -4.48296e+07
168 2 -1.85 7.4 -5.55 629751 1.49081e+06 629751 -3.55755e-10 -0 3.55755e-10 1.32734e+07 3.60134e+06 1.13919e+07 6.22571e-09 5.07006e+06
169 2 -3.7 9.25 -5.55 -2.41192e+06 -3.92275e+07 -2.41192e+06 4.44693e-11 -0 -5.33632e-10 1.15125e+07 2.11059e+06 2.17104e+08 -2.22347e-11 -4.49396e+07
170 2 0 7.4 -7.4 629751 1.49081e+06 1.49081e+06 -1.33408e-10 -0 -0 1.32734e+07 3.60134e+06 1.13919e+07 -5.33632e-10 5.07006e+06
171 2 1.85 9.25 -7.4 -2.41192e+06 -3.91175e+07 -882907 -8.00448e-10 -0 -271357 1.15125e+07 2.11059e+06 2.17161e+08 5.69207e-09 -4.48296e+07
172 2 1.85 7.4 -5.55 629751 1.49081e+06 629751 1.33408e-10 -3.55755e-10 3.55755e-10 1.32734e+07 3.60134e+06 1.13919e+07 5.33632e-10 5.07006e+06
173 2 0 9.25 -5.55 -2.41192e+06 -3.92275e+07 -2.41192e+06 1.33408e-10 -2.22347e-10 -1.33408e-09 1.15125e+07 2.11059e+06 2.17104e+08 -4.66925e-10 -4.49396e+07
174 2 3.7 7.4 -7.4 629751 1.49081e+06 1.49081e+06 -0 -0 -0 1.32734e+07 3.60134e+06 1.13919e+07 -0 5.07006e+06
175 2 5.55 9.25 -7.4 -2.41192e+06 -3.91175e+07 -882907 1.46749e-09 -0 -271357 1.15125e+07 2.11059e+06 2.17161e+08 -2.0278e-08 -4.48296e+07
176 2 5.55 7.4 -5.55 629751 1.49081e+06 629751 4.44693e-11 -0 3.55755e-10 1.32734e+07 3.60134e+06 1.13919e+07 -0 5.07006e+06
177 2 3.7 9.25 -5.55 -2.41192e+06 -3.92275e+07 -2.41192e+06 -4.44693e-10 -0 -8.00448e-10 1.15125e+07 2.11059e+06 2.17104e+08 4.00224e-10 -4.49396e+07
178 2 7.4 7.4 -7.4 1.49081e+06 1.49081e+06 1.49081e+06 -1.77877e-10 -0 -0 1.13919e+07 3.59029e+06 1.13919e+07 -5.33632e-10 5.07006e+06
179 2 9.25 9.25 -7.4 -4.06454e+07 -4.06454e+07 -2.6623e+06 1.25861e+06 -487201 -487201 2.17216e+08 2.0516e+06 2.17216e+08 3.60074e+06 -5.19471e+07
180 2 9.25 7.4 -5.55 -3.91175e+07 -882907 -2.41192e+06 271357 -1.1562e-09 -5.78101e-10 2.17161e+08 1.7385e+06 8.47186e+06 -794295 -6.91699e+06
181 2 7.4 9.25 -5.55 -882907 -3.91175e+07 -2.41192e+06 271357 -5.78101e-10 -1.1562e-09 8.47186e+06 1.75822e+06 2.17161e+08 -130545 -4.51516e+07
182 2 -9.25 -9.25 -3.7 -4.0843e+07 -4.0843e+07 -5.38273e+06 1.17122e+06 -0 -0 2.1711e+08 2.08694e+06 2.1711e+08 3.63938e+06 -5.21059e+07
183 2 -5.55 -9.25 -3.7 -2.41192e+06 -3.92275e+07 -2.41192e+06 1.77877e-10 -0 -0 1.15125e+07 2.11059e+06 2.17104e+08 -8.3158e-09 -4.49396e+07
184 2 -7.4 -9.25 -1.85 -882907 -3.91175e+07 -2.41192e+06 271357 -0 -7.11509e-10 8.47186e+06 1.75822e+06 2.17161e+08 -130545 -4.51516e+07
185 2 -1.85 -9.25 -3.7 -2.41192e+06 -3.92275e+07 -2.41192e+06 -4.44693e-10 -0 -8.89387e-11 1.15125e+07 2.11059e+06 2.17104e+08 8.53814e-09 -4.49396e+07
186 2 -3.7 -9.25 -1.85 -2.41192e+06 -3.92275e+07 -2.41192e+06 -4.44693e-11 -0 -4.44693e-10 1.15125e+07 2.11059e+06 2.17104e+08 2.22347e-11 -4.49396e+07
187 2 1.85 -9.25 -3.7 -2.41192e+06 -3.92275e+07 -2.41192e+06 -2.66816e-10 -0 -0 1.15125e+07 2.11059e+06 2.17104e+08 4.40251e-09 -4.49396e+07
188 2 0 -9.25 -1.85 -2.41192e+06 -3.92275e+07 -2.41192e+06 -4.44693e-11 2.22347e-10 -1.24514e-09 1.15125e+07 2.11059e+06 2.17104e+08 4.66908e-10 -4.49396e+07
189 2 5.55 -9.25 -3.7 -2.41192e+06 -3.92275e+07 -2.41192e+06 -1.95665e-09 -0 -0 1.15125e+07 2.11059e+06 2.17104e+08 1.99222e-08 -4.49396e+07
190 2 3.7 -9.25 -1.85 -2.41192e+06 -3.92275e+07 -2.41192e+06 4.44693e-10 -0 -7.11509e-10 1.15125e+07 2.11059e+06 2.17104e+08 -4.00224e-10 -4.49396e+07
191 2 9.25 -9.25 -3.7 -4.0843e+07 -4.0843e+07 -5.38273e+06 -1.17122e+06 -8.89387e-11 -0 2.1711e+08 2.08694e+06 2.1711e+08 -3.63938e+06 -5.21059e+07
192 2 7.4 -9.25 -1.85 -882907 -3.91175e+07 -2.41192e+06 -271357 5.78101e-10 -1.06726e-09 8.47186e+06 1.75822e+06 2.17161e+08 130545 -4.51516e+07
193 2 -9.25 -5.55 -3.7 -3.92275e+07 -2.41192e+06 -2.41192e+06 1.77877e-10 -0 -0 2.17104e+08 2.06032e+06 1.15125e+07 -5.69207e-09 -8.12399e+06
194 2 -9.25 -7.4 -1.85 -3.91175e+07 -882907 -2.41192e+06 271357 -7.11509e-10 -0 2.17161e+08 1.7385e+06 8.47186e+06 -794295 -6.91699e+06
195 2 -7.4 -7.4 -3.7 1.49081e+06 1.49081e+06 629751 -0 -0 -0 1.13919e+07 3.59029e+06 1.13919e+07 -0 5.07006e+06
196 2 -5.55 -5.55 -3.7 629751 629751 629751 -0 -0 -0 1.32734e+07 3.60134e+06 1.32734e+07 1.06726e-09 4.209e+06
197 2 -5.55 -7.4 -1.85 629751 1.49081e+06 629751 -0 -0 -0 1.32734e+07 3.60134e+06 1.13919e+07 -0 5.07006e+06
198 2 -7.4 -5.55 -1.85 1.49081e+06 629751 629751 -0 -0 -0 1.13919e+07 3.59029e+06 1.32734e+07 -0 4.209e+06
199 2 -3.7 -7.4 -3.7 629751 1.49081e+06 629751 -0 -0 -0 1.32734e+07 3.60134e+06 1.13919e+07 -0 5.07006e+06
200 2 -1.85 -5.55 -3.7 629751 629751 629751 -0 -0 -0 1.32734e+07 3.60134e+06 1.32734e+07 -1.06726e-09 4.209e+06
201 2 -1.85 -7.4 -1.85 629751 1.49081e+06 629751 -0 -0 -0 1.32734e+07 3.60134e+06 1.13919e+07 -0 5.07006e+06
202 2 -3.7 -5.55 -1.85 629751 629751 629751 -0 -0 -0 1.32734e+07 3.60134e+06 1.32734e+07 -0 4.209e+06
203 2 0 -7.4 -3.7 629751 1.49081e+06 629751 -0 -0 -0 1.32734e+07 3.60134e+06 1.13919e+07 -6.94833e-13 5.07006e+06
204 2 1.85 -5.55 -3.7 629751 629751 629751 -3.55755e-10 -0 -0 1.32734e+07 3.60134e+06 1.32734e+07 5.15844e-09 4.209e+06
205 2 1.85 -7.4 -1.85 629751 1.49081e+06 629751 -0 3.55755e-10 -0 1.32734e+07 3.60134e+06 1.13919e+07 -0 5.07006e+06
206 2 0 -5.55 -1.85 629751 629751 629751 3.55755e-10 -3.55755e-10 -0 1.32734e+07 3.60134e+06 1.32734e+07 -5.15844e-09 4.209e+06
207 2 3.7 -7.4 -3.7 629751 1.49081e+06 629751 -0 -0 -0 1.32734e+07 3.60134e+06 1.13919e+07 -0 5.07006e+06
208 2 5.55 -5.55 -3.7 629751 629751 629751 -0 -0 -0 1.32734e+07 3.60134e+06 1.32734e+07 8.88692e-10 4.209e+06
209 2 5.55 -7.4 -1.85 629751 1.49081e+06 629751 -0 -0 -0 1.32734e+07 3.60134e+06 1.13919e+07 -0 5.07006e+06
210 2 3.7 -5.55 -1.85 629751 629751 629751 -0 -0 -0 1.32734e+07 3.60134e+06 1.32734e+07 -0 4.209e+06
211 2 7.4 -7.4 -3.7 1.49081e+06 1.49081e+06 629751 -0 -0 -0 1.13919e+07 3.59029e+06 1.13919e+07 3.47417e-13 5.07006e+06
212 2 9.25 -5.55 -3.7 -3.92275e+07 -2.41192e+06 -2.41192e+06 -5.33632e-10 -0 -0 2.17104e+08 2.06032e+06 1.15125e+07 1.06726e-08 -8.12399e+06
213 2 9.25 -7.4 -1.85 -3.91175e+07 -882907 -2.41192e+06 -271357 1.06726e-09 -0 2.17161e+08 1.7385e+06 8.47186e+06 794295 -6.91699e+06
214 2 7.4 -5.55 -1.85 1.49081e+06 629751 629751 3.55755e-10 -3.55755e-10 -0 1.13919e+07 3.59029e+06 1.32734e+07 -6.04783e-09 4.209e+06
215 2 -9.25 -1.85 -3.7 -3.92275e+07 -2.41192e+06 -2.41192e+06 -4.44693e-10 -8.89387e-11 -0 2.17104e+08 2.06032e+06 1.15125e+07 6.13677e-09 -8.12399e+06
216 2 -9.25 -3.7 -1.85 -3.92275e+07 -2.41192e+06 -2.41192e+06 -4.44693e-11 -4.44693e-10 -0 2.17104e+08 2.06032e+06 1.15125e+07 -3.55755e-10 -8.12399e+06
217 2 -7.4 -3.7 -3.7 1.49081e+06 629751 629751 -0 -0 -0 1.13919e+07 3.59029e+06 1.32734e+07 -0 4.209e+06
218 2 -5.55 -1.85 -3.7 629751 629751 629751 -0 -0 -0 1.32734e+07 3.60134e+06 1.32734e+07 -1.06726e-09 4.209e+06
219 2 -5.55 -3.7 -1.85 629751 629751 629751 -0 -0 -0 1.32734e+07 3.60134e+06 1.32734e+07 -6.94833e-13 4.209e+06
220 2 -7.4 -1.85 -1.85 1.49081e+06 629751 629751 -0 -0 -0 1.13919e+07 3.59029e+06 1.32734e+07 -0 4.209e+06
221 2 -3.7 -3.7 -3.7 629751 629751 629751 -0 -0 -0 1.32734e+07 3.60134e+06 1.32734e+07 -0 4.209e+06
222 2 -1.85 -1.85 -3.7 629751 629751 629751 -0 -0 -0 1.32734e+07 3.60134e+06 1.32734e+07 1.06726e-09 4.209e+06
223 2 -1.85 -3.7 -1.85 629751 629751 629751 -0 -0 -0 1.32734e+07 3.60134e+06 1.32734e+07 6.94833e-13 4.209e+06
224 2 -3.7 -1.85 -1.85 629751 629751 629751 -0 -0 -0 1.32734e+07 3.60134e+06 1.32734e+07 -0 4.209e+06
225 2 0 -3.7 -3.7 629751 629751 629751 -0 -0 -0 1.32734e+07 3.60134e+06 1.32734e+07 -3.47417e-13 4.209e+06
226 2 1.85 -1.85 -3.7 629751 629751 629751 3.55755e-10 -0 -0 1.32734e+07 3.60134e+06 1.32734e+07 -5.15844e-09 4.209e+06
227 2 1.85 -3.7 -1.85 629751 629751 629751 -0 3.55755e-10 -0 1.32734e+07 3.60134e+06 1.32734e+07 6.94833e-13 4.209e+06
228 2 0 -1.85 -1.85 629751 629751 629751 -3.55755e-10 -3.55755e-10 -0 1.32734e+07 3.60134e+06 1.32734e+07 5.15844e-09 4.209e+06
229 2 3.7 -3.7 -3.7 629751 629751 629751 -0 -0 -0 1.32734e+07 3.60134e+06 1.32734e+07 -0 4.209e+06