ITEM: TIMESTEP
0
ITEM: NUMBER OF ATOMS
665
ITEM: BOX BOUNDS xy xz yz pp pp pp
-1.0000000000000000e+01 1.0000000000000000e+01 0.0000000000000000e+00
-1.0000000000000000e+01 1.0000000000000000e+01 0.0000000000000000e+00
-1.0000000000000000e+01 1.0000000000000000e+01 0.0000000000000000e+00
ITEM: ATOMS id type x y z c_1[1] c_1[2] c_1[3] c_1[4] c_1[5] c_1[6] c_1[7] c_1[8] c_1[13] c_1[15] c_1[22]
1 2 -7.4 -9.25 -9.25 7.70289e+07 3.51449e+06 4.27127e+06 -4.83306e+06 -7.7589e+06 -1.96238e+07 -1.3976e+09 -7.22933e+08 1.487e+10 -6.11074e+08 -7.41056e+08
2 2 -3.7 -9.25 -9.25 1.0896e+08 8.28885e+06 6.17434e+06 766664 175959 -1.95911e+07 -1.65047e+09 -8.41859e+08 1.39008e+10 -2.27018e+08 -8.53382e+08
3 2 0 -9.25 -9.25 1.10813e+08 9.63012e+06 7.97575e+06 336789 1.55797e+06 -1.75427e+07 -1.62275e+09 -8.26497e+08 1.37056e+10 -2.64312e+08 -8.36276e+08
4 2 3.7 -9.25 -9.25 1.10421e+08 7.53305e+06 9.27026e+06 719876 -1.91997e+06 -1.76293e+07 -1.64442e+09 -8.49352e+08 1.33449e+10 -3.2055e+08 -8.60867e+08
5 2 7.4 -9.25 -9.25 7.79925e+07 8.63932e+06 5.85492e+06 6.2348e+06 6.84333e+06 -2.38417e+07 -1.42396e+09 -7.30819e+08 1.35143e+10 -1.78567e+08 -7.41759e+08
6 2 -9.25 -7.4 -9.25 3.0359e+06 7.75495e+07 3.1119e+06 -8.60824e+06 -1.95933e+07 -7.12494e+06 1.60947e+10 -7.26383e+08 -1.50822e+09 -1.11995e+08 -6.51071e+08
7 2 -5.55 -7.4 -9.25 9.26161e+07 7.10446e+07 2.1993e+06 -763744 -644873 -4.31761e+06 -1.82306e+09 -1.8791e+09 -1.9315e+09 2.24101e+07 -1.81065e+09
8 2 -7.4 -5.55 -9.25 7.31001e+07 9.17206e+07 -510669 -338387 -2.3861e+06 2.01957e+06 -1.79323e+09 -1.84478e+09 -1.89022e+09 2.45238e+07 -1.75375e+09
9 2 -1.85 -7.4 -9.25 9.24917e+07 7.29441e+07 1.15392e+06 -833704 2.1687e+06 -3.04478e+06 -1.77043e+09 -1.87087e+09 -1.97866e+09 -4.59989e+07 -1.80043e+09
10 2 -3.7 -5.55 -9.25 9.10633e+07 9.24095e+07 3.27052e+06 -520825 -838434 2.63341e+06 -1.99079e+09 -2.01689e+09 -2.0207e+09 8.35704e+06 -1.92555e+09
11 2 1.85 -7.4 -9.25 9.1362e+07 7.10513e+07 4.19357e+06 -173201 -636529 -2.68888e+06 -1.86702e+09 -1.8903e+09 -1.90338e+09 2.34557e+07 -1.82184e+09
12 2 0 -5.55 -9.25 8.86846e+07 8.88395e+07 4.79235e+06 -838547 -1.58753e+06 848381 -2.0641e+09 -2.13779e+09 -2.16781e+09 -2.46755e+07 -2.05011e+09
13 2 5.55 -7.4 -9.25 9.37483e+07 7.34284e+07 4.83998e+06 -919484 2.2304e+06 -3.01803e+06 -1.79014e+09 -1.8027e+09 -1.80146e+09 -1.92727e+07 -1.73181e+09
14 2 3.7 -5.55 -9.25 9.15178e+07 8.91952e+07 2.30618e+06 -1.34988e+06 -970779 -2.68745e+06 -2.14997e+09 -2.10074e+09 -2.02544e+09 -8.83928e+07 -2.01265e+09
15 2 9.25 -7.4 -9.25 2.24562e+06 7.68588e+07 3.58617e+06 3.03023e+06 2.12253e+07 -6.40392e+06 1.60879e+10 -7.35033e+08 -1.42283e+09 7.79211e+07 -6.60418e+08
16 2 7.4 -5.55 -9.25 7.2499e+07 9.32548e+07 4.22942e+06 -91068.1 4.10086e+06 745642 -1.87171e+09 -1.83908e+09 -1.79745e+09 3.58532e+06 -1.74649e+09
17 2 -9.25 -3.7 -9.25 6.08409e+06 1.10473e+08 7.13871e+06 -2.3373e+06 -2.06131e+07 -764227 1.47761e+10 -8.44663e+08 -1.65921e+09 8.99466e+06 -7.36173e+08
18 2 -5.55 -3.7 -9.25 9.15962e+07 9.23528e+07 6.23346e+06 1.10387e+06 327423 675451 -1.94156e+09 -1.99893e+09 -2.02216e+09 5.21292e+07 -1.90762e+09
19 2 -7.4 -1.85 -9.25 7.04371e+07 9.07251e+07 -690227 -289301 -268042 1.72101e+06 -1.93978e+09 -1.91708e+09 -1.87974e+09 3.87156e+07 -1.82706e+09
20 2 -1.85 -3.7 -9.25 9.13583e+07 9.04824e+07 1.95096e+06 728906 768271 50061.8 -2.065e+09 -2.07048e+09 -2.03042e+09 4.53536e+07 -1.98112e+09
21 2 -3.7 -1.85 -9.25 9.0739e+07 9.07921e+07 4.08573e+06 453116 2.40608e+06 -649854 -2.01606e+09 -2.02183e+09 -1.98397e+09 3.99196e+06 -1.93211e+09
22 2 1.85 -3.7 -9.25 9.02103e+07 8.74752e+07 -435322 -713805 1.04495e+06 -1.80107e+06 -2.24292e+09 -2.15443e+09 -2.03592e+09 -5.34901e+07 -2.0681e+09
23 2 0 -1.85 -9.25 8.9486e+07 8.97907e+07 2.69471e+06 1.56575e+06 437229 1.97626e+06 -2.14256e+09 -2.13032e+09 -2.07269e+09 7.53219e+07 -2.04167e+09
24 2 5.55 -3.7 -9.25 9.07681e+07 8.96425e+07 5.66842e+06 -769667 -178049 -729302 -2.09501e+09 -2.093e+09 -2.05132e+09 -5.68685e+07 -2.00452e+09
25 2 3.7 -1.85 -9.25 8.89401e+07 8.95755e+07 2.19139e+06 -493861 -751162 -1.04269e+06 -2.13745e+09 -2.1342e+09 -2.09979e+09 -2.96813e+07 -2.04576e+09
26 2 9.25 -3.7 -9.25 7.01668e+06 1.09306e+08 5.32158e+06 -2.06925e+06 1.54472e+07 -1.53984e+06 1.47571e+10 -8.45355e+08 -1.65778e+09 -1.36151e+07 -7.38029e+08
27 2 7.4 -1.85 -9.25 7.24048e+07 9.28644e+07 3.67272e+06 1.12648e+06 3.14459e+06 1.23518e+06 -1.90208e+09 -1.84316e+09 -1.75946e+09 -631641 -1.75099e+09
28 2 -9.25 0 -9.25 4.16015e+06 1.09889e+08 5.8152e+06 -1.77431e+06 -1.64695e+07 -868513 1.58481e+10 -8.70311e+08 -1.82354e+09 -2.97766e+07 -7.62513e+08
29 2 -5.55 0 -9.25 9.18233e+07 9.04981e+07 865811 -1.2966e+06 -124855 -1.19923e+06 -2.05264e+09 -2.03828e+09 -1.9954e+09 -6.92696e+07 -1.9489e+09
30 2 -7.4 1.85 -9.25 7.19835e+07 9.42055e+07 6.97645e+06 -2.32471e+06 -5.75438e+06 856667 -1.90478e+09 -1.84255e+09 -1.78724e+09 -7.22974e+07 -1.74897e+09
31 2 -1.85 0 -9.25 9.07777e+07 9.01919e+07 1.66164e+06 1.19578e+06 -62196.3 622997 -2.08723e+09 -2.10129e+09 -2.09183e+09 6.42286e+07 -2.0122e+09
32 2 -3.7 1.85 -9.25 9.01406e+07 9.08584e+07 1.86622e+06 435960 -218564 1.21078e+06 -2.07931e+09 -2.06647e+09 -2.01703e+09 1.83986e+07 -1.97672e+09
33 2 1.85 0 -9.25 8.91547e+07 8.8688e+07 6.80223e+06 750825 -636606 -1.63745e+06 -2.10862e+09 -2.13931e+09 -2.11155e+09 4.79886e+07 -2.05176e+09
34 2 0 1.85 -9.25 8.9827e+07 9.03343e+07 276893 555922 -2.08944e+06 -1.89518e+06 -2.08797e+09 -2.11271e+09 -2.10521e+09 7.53556e+07 -2.02351e+09
35 2 5.55 0 -9.25 9.12151e+07 9.04733e+07 616887 -182249 -1.28648e+06 2.01687e+06 -2.00517e+09 -2.03666e+09 -2.03971e+09 -8.78215e+07 -1.94728e+09
36 2 3.7 1.85 -9.25 9.12976e+07 9.03637e+07 -631605 -1.58561e+06 2.38925e+06 1.26773e+06 -2.09031e+09 -2.07828e+09 -2.01914e+09 -4.57182e+07 -1.98902e+09
37 2 9.25 0 -9.25 3.72693e+06 1.11564e+08 5.04439e+06 16482.6 1.91202e+07 -1.58568e+06 1.58599e+10 -8.35933e+08 -1.67271e+09 2.69908e+07 -7.26422e+08
38 2 7.4 1.85 -9.25 7.15754e+07 9.28388e+07 4.15e+06 329132 4.24326e+06 685892 -1.76135e+09 -1.84874e+09 -1.91894e+09 -4.64032e+07 -1.75655e+09
39 2 -9.25 3.7 -9.25 8.45694e+06 1.11044e+08 7.23589e+06 -623518 -1.76133e+07 -1.01589e+06 1.40671e+10 -8.26299e+08 -1.70098e+09 -3.52012e+07 -7.17389e+08
40 2 -5.55 3.7 -9.25 9.04876e+07 9.04779e+07 5.01711e+06 44827.2 -504972 -90695.7 -2.07216e+09 -2.01459e+09 -1.91952e+09 -9.07531e+06 -1.92516e+09
41 2 -7.4 5.55 -9.25 7.27346e+07 9.36348e+07 5.61852e+06 -1.43369e+06 -5.22843e+06 764850 -1.84205e+09 -1.85498e+09 -1.88327e+09 -7.87262e+07 -1.762e+09
42 2 -1.85 3.7 -9.25 9.17603e+07 9.18249e+07 6.36709e+06 1.24528e+06 1.26358e+06 571541 -2.04614e+09 -2.02798e+09 -1.98503e+09 7.00219e+07 -1.93723e+09
43 2 -3.7 5.55 -9.25 9.14585e+07 9.04151e+07 6.28096e+06 661092 94504 1.06865e+06 -2.00547e+09 -2.0515e+09 -2.09269e+09 7.11808e+06 -1.96218e+09
44 2 1.85 3.7 -9.25 9.02741e+07 9.01484e+07 4.02955e+06 853267 171578 -1.18812e+06 -2.06772e+09 -2.09383e+09 -2.061e+09 6.90009e+07 -2.00481e+09
45 2 0 5.55 -9.25 8.90353e+07 8.97999e+07 481623 1.66894e+06 -1.85761e+06 -480970 -2.03615e+09 -2.08814e+09 -2.08714e+09 1.03026e+08 -1.99947e+09
46 2 5.55 3.7 -9.25 8.92048e+07 9.05627e+07 -669571 -1.06007e+06 -557526 -11517.8 -2.06834e+09 -2.08112e+09 -2.04739e+09 -3.28027e+07 -1.99166e+09
47 2 3.7 5.55 -9.25 9.20919e+07 9.12636e+07 3.04123e+06 503155 799312 1.04411e+06 -1.95758e+09 -2.03375e+09 -2.08279e+09 4.91112e+07 -1.94358e+09
48 2 9.25 3.7 -9.25 7.99858e+06 1.12198e+08 5.71492e+06 879816 1.76576e+07 63606.1 1.40729e+10 -8.63651e+08 -1.80941e+09 -989741 -7.53571e+08
49 2 7.4 5.55 -9.25 7.07821e+07 9.04168e+07 5.85679e+06 -910951 1.91103e+06 -89199.9 -1.94221e+09 -1.9408e+09 -1.94582e+09 -2.21067e+07 -1.85107e+09
50 2 -9.25 7.4 -9.25 6.92747e+06 7.74335e+07 5.61218e+06 6.50183e+06 -2.32878e+07 4.94103e+06 1.41933e+10 -7.43076e+08 -1.48516e+09 1.0149e+08 -6.67965e+08
51 2 -5.55 7.4 -9.25 9.14471e+07 6.98412e+07 84795.4 -979033 1.47883e+06 4.99402e+06 -1.89543e+09 -1.92959e+09 -1.96568e+09 -3.11673e+07 -1.86238e+09
52 2 -7.4 9.25 -9.25 7.66432e+07 3.01463e+06 5.15861e+06 7.90557e+06 -6.95669e+06 2.29067e+07 -1.54153e+09 -7.31447e+08 1.49257e+10 -3.95209e+08 -7.5016e+08
53 2 -1.85 7.4 -9.25 9.13252e+07 7.04455e+07 1.25108e+06 337616 -249407 2.17938e+06 -1.86642e+09 -1.92489e+09 -1.97752e+09 3.19496e+06 -1.85717e+09
54 2 -3.7 9.25 -9.25 1.09826e+08 7.29487e+06 2.65268e+06 307551 -2.07956e+06 1.67519e+07 -1.74861e+09 -8.71739e+08 1.39406e+10 -2.43032e+08 -8.84419e+08
55 2 1.85 7.4 -9.25 9.35252e+07 7.34795e+07 574050 -190010 2.37508e+06 3.15679e+06 -1.77913e+09 -1.83701e+09 -1.8811e+09 1.26994e+07 -1.76608e+09
56 2 0 9.25 -9.25 1.11101e+08 7.91476e+06 5.77251e+06 -150350 -379836 1.87726e+07 -1.67788e+09 -8.44801e+08 1.36793e+10 -2.86322e+08 -8.56401e+08
57 2 5.55 7.4 -9.25 9.35151e+07 7.17964e+07 793358 15413.7 -1.69699e+06 2.07719e+06 -1.93496e+09 -1.88278e+09 -1.84637e+09 -2.76016e+06 -1.81352e+09
58 2 3.7 9.25 -9.25 1.1165e+08 8.51575e+06 9.26112e+06 863573 1.92436e+06 1.7964e+07 -1.71465e+09 -8.47395e+08 1.34373e+10 -3.28019e+08 -8.57862e+08
59 2 9.25 7.4 -9.25 5.5618e+06 7.81628e+07 5.68582e+06 -6.08559e+06 1.87313e+07 7.65672e+06 1.41869e+10 -7.58687e+08 -1.5062e+09 -1.21767e+08 -6.82743e+08
60 2 7.4 9.25 -9.25 7.81782e+07 8.15811e+06 7.78727e+06 -5.65241e+06 5.61374e+06 1.67463e+07 -1.4545e+09 -7.36324e+08 1.3481e+10 -3.30742e+08 -7.47599e+08
61 2 -9.25 -9.25 -7.4 1.62536e+06 6.01093e+06 7.7746e+07 -1.86542e+07 -8.58805e+06 -5.06298e+06 1.62177e+10 7.0377e+07 1.4264e+10 1.99892e+08 5.4156e+07
62 2 -5.55 -9.25 -7.4 9.26886e+07 1.70006e+06 7.26643e+07 -482131 -207427 -703374 -1.84538e+09 -4.24597e+06 2.46304e+10 1.82573e+08 -2.49458e+07
63 2 -7.4 -9.25 -5.55 7.07348e+07 4.71881e+06 9.18337e+07 -2.05434e+06 -806367 1.11667e+06 -1.84649e+09 -2.0014e+07 2.19474e+10 -5.97499e+08 -3.44369e+07
64 2 -1.85 -9.25 -7.4 9.31458e+07 2.81058e+06 7.2663e+07 953063 15059.7 -4.75472e+06 -1.76111e+09 -2.97985e+06 2.33701e+10 -3.22359e+08 -2.03635e+07
65 2 -3.7 -9.25 -5.55 9.23783e+07 -234947 8.96401e+07 375774 -53989.9 178847 -2.0978e+09 -6.16968e+06 2.54115e+10 1.557e+08 -2.83601e+07
66 2 1.85 -9.25 -7.4 9.34247e+07 -219074 7.36267e+07 -1.28742e+06 126463 -1.64365e+06 -1.76558e+09 3.96918e+06 2.55175e+10 3.19597e+08 -1.93876e+07
67 2 0 -9.25 -5.55 9.0846e+07 2.99679e+06 9.11027e+07 1.52277e+06 -1.12726e+06 1.73294e+06 -2.02295e+09 3.00972e+07 2.3267e+10 -7.52874e+08 1.38521e+07
68 2 5.55 -9.25 -7.4 8.88402e+07 3.84623e+06 7.08364e+07 -364451 -181048 -4.6339e+06 -1.85217e+09 3.06117e+07 2.22742e+10 3.48561e+08 1.45352e+07
69 2 3.7 -9.25 -5.55 9.19221e+07 6.86177e+06 9.10246e+07 788567 1.43201e+06 -1.16721e+06 -2.11081e+09 -1.1951e+07 2.20934e+10 -4.00627e+08 -2.27944e+07
70 2 9.25 -9.25 -7.4 1.88426e+06 2.76463e+06 7.93956e+07 2.0813e+07 5.23936e+06 -4.04748e+06 1.62208e+10 6.9002e+07 1.53785e+10 3.71896e+08 4.56065e+07
71 2 7.4 -9.25 -5.55 7.28802e+07 4.64336e+06 9.08553e+07 2.62537e+06 -433130 691149 -1.94077e+09 -5.66793e+07 2.21595e+10 -2.19828e+07 -7.15583e+07
72 2 -9.25 -5.55 -7.4 643573 9.3372e+07 7.40716e+07 -2.13484e+06 -2.87199e+06 -273705 2.51397e+10 2.73747e+07 -1.80365e+09 2.88627e+06 1.16151e+08
73 2 -9.25 -7.4 -5.55 4.32112e+06 7.20492e+07 9.30024e+07 -4.26099e+06 366937 284664 2.3283e+10 -4.39653e+07 -1.79635e+09 6.86154e+07 2.28131e+07
74 2 -7.4 -7.4 -7.4 5.56894e+07 5.55244e+07 5.58752e+07 -793447 -72825.7 964762 2.60151e+08 1.30353e+08 2.94801e+08 9.38927e+07 1.83063e+08
75 2 -5.55 -5.55 -7.4 6.61177e+07 6.62028e+07 5.52341e+07 -97094.7 243391 -745955 3.88225e+08 2.425e+08 3.7665e+08 -6.53254e+06 3.07043e+08
76 2 -5.55 -7.4 -5.55 6.78671e+07 5.53338e+07 6.74682e+07 -400678 -104315 -771888 3.75516e+08 1.39582e+08 2.83768e+08 1.49055e+07 1.90879e+08
77 2 -7.4 -5.55 -5.55 5.48593e+07 6.62499e+07 6.51054e+07 -266833 -263486 -62109.9 3.08038e+08 1.21457e+08 3.63216e+08 3.72928e+06 1.87482e+08
78 2 -3.7 -7.4 -7.4 6.85106e+07 5.49265e+07 5.63292e+07 -19092 869003 309692 2.3706e+08 1.24257e+08 2.77649e+08 -2.50116e+06 1.75018e+08
79 2 -1.85 -5.55 -7.4 6.77589e+07 6.63599e+07 5.48138e+07 -663307 1.18025e+06 133023 3.66947e+08 2.29275e+08 3.64524e+08 1.57396e+07 2.93968e+08
80 2 -1.85 -7.4 -5.55 6.82054e+07 5.45316e+07 6.67088e+07 -692383 1.17866e+06 -656822 3.54106e+08 1.15593e+08 2.82378e+08 9.21265e+06 1.66091e+08
81 2 -3.7 -5.55 -5.55 6.47891e+07 6.45606e+07 6.25994e+07 -1.25495e+06 646683 20393 4.84621e+08 2.24549e+08 4.88195e+08 9.66535e+06 2.87631e+08
82 2 0 -7.4 -7.4 6.89138e+07 5.44579e+07 5.61805e+07 -832586 239962 -183836 2.2925e+08 1.11508e+08 2.895e+08 5.13604e+06 1.61755e+08
83 2 1.85 -5.55 -7.4 6.66012e+07 6.6523e+07 5.45574e+07 29302.8 -644650 -772711 3.7458e+08 2.32168e+08 3.8348e+08 -4.24199e+06 2.9703e+08
84 2 1.85 -7.4 -5.55 6.60029e+07 5.60118e+07 6.52827e+07 -1.02133e+06 847037 182077 3.57511e+08 1.18285e+08 2.89942e+08 1.30855e+07 1.7023e+08
85 2 0 -5.55 -5.55 6.58908e+07 6.65211e+07 6.54921e+07 -770704 -360005 560596 4.68879e+08 2.24001e+08 4.65816e+08 8.16116e+06 2.89106e+08
86 2 3.7 -7.4 -7.4 6.56857e+07 5.5085e+07 5.47738e+07 451001 455803 -995650 2.92825e+08 1.50255e+08 3.06911e+08 -5.7521e+06 2.01135e+08
87 2 5.55 -5.55 -7.4 6.69235e+07 6.69678e+07 5.51669e+07 1.28912e+06 984390 -289146 3.58974e+08 2.30191e+08 3.71663e+08 -1.30571e+07 2.95483e+08
88 2 5.55 -7.4 -5.55 6.72131e+07 5.61606e+07 6.58857e+07 -348194 -367711 -778021 3.48822e+08 1.05952e+08 2.768e+08 -3.72347e+06 1.58121e+08
89 2 3.7 -5.55 -5.55 6.46783e+07 6.61126e+07 6.41504e+07 938067 473640 -867727 4.88747e+08 2.21978e+08 4.60026e+08 -1.02487e+07 2.86679e+08
90 2 7.4 -7.4 -7.4 5.60667e+07 5.67991e+07 5.48924e+07 284134 2.14802e+06 -460659 2.70061e+08 1.11451e+08 2.8396e+08 -8.30386e+07 1.65419e+08
91 2 9.25 -5.55 -7.4 389882 9.19414e+07 7.21507e+07 -2.00927e+06 4.00626e+06 817961 2.51431e+10 1.99276e+07 -1.83786e+09 1.16885e+07 1.07251e+08
92 2 9.25 -7.4 -5.55 4.8546e+06 7.04258e+07 9.18361e+07 2.17269e+06 24324.8 -73737.4 2.32789e+10 -3.89591e+07 -1.87179e+09 -5.73096e+07 2.60663e+07
93 2 7.4 -5.55 -5.55 5.43004e+07 6.69011e+07 6.62126e+07 553558 605349 973364 3.01894e+08 1.42646e+08 3.84194e+08 3.7103e+06 2.09306e+08
94 2 -9.25 -1.85 -7.4 1.99739e+06 9.30327e+07 7.13195e+07 -259549 -1.15841e+06 -166855 2.38492e+10 -4.60686e+06 -1.85414e+09 -8.21935e+06 8.3163e+07
95 2 -9.25 -3.7 -5.55 7.85821e+06 8.9941e+07 9.03488e+07 -177403 902454 -179451 2.16697e+10 3.12151e+06 -1.99453e+09 -1.52423e+07 8.72578e+07
96 2 -7.4 -3.7 -7.4 5.53583e+07 6.65455e+07 5.31852e+07 451687 114597 273404 3.05083e+08 1.2965e+08 2.89743e+08 -1.43555e+06 1.95685e+08
97 2 -5.55 -1.85 -7.4 6.66333e+07 6.66375e+07 5.59875e+07 -408022 -137234 2.16898e+06 3.54511e+08 2.36416e+08 3.8385e+08 7.22014e+06 3.01387e+08
98 2 -5.55 -3.7 -5.55 6.52424e+07 6.60992e+07 6.51659e+07 -451052 -774963 629523 4.83357e+08 2.30443e+08 4.69883e+08 4.54841e+06 2.95119e+08
99 2 -7.4 -1.85 -5.55 5.43099e+07 6.68127e+07 6.70438e+07 32820.4 -1.60174e+06 -1.78891e+06 2.80922e+08 1.41507e+08 3.93394e+08 8.11493e+06 2.0806e+08
100 2 -3.7 -3.7 -7.4 6.77226e+07 6.61217e+07 5.59719e+07 -962364 513443 1.16361e+06 3.65247e+08 2.32243e+08 3.71267e+08 9.59986e+06 2.96729e+08
101 2 -1.85 -1.85 -7.4 6.65123e+07 6.7665e+07 5.57597e+07 -179949 596255 126860 3.65103e+08 2.21619e+08 3.70515e+08 9.36846e+06 2.87668e+08
102 2 -1.85 -3.7 -5.55 6.53896e+07 6.59463e+07 6.54127e+07 -801019 633904 -181195 4.79102e+08 2.36861e+08 4.80803e+08 1.7183e+07 3.01362e+08
103 2 -3.7 -1.85 -5.55 6.54578e+07 6.49866e+07 6.59785e+07 -750074 -232100 249797 4.71799e+08 2.44665e+08 4.9576e+08 6.15169e+06 3.08166e+08
104 2 0 -3.7 -7.4 6.70013e+07 6.50391e+07 5.43267e+07 -566192 1.1503e+06 -139679 3.63978e+08 2.38903e+08 4.09286e+08 1.59893e+06 3.02214e+08
105 2 1.85 -1.85 -7.4 6.55305e+07 6.56963e+07 5.54224e+07 -883870 880918 -1.30755e+06 3.66662e+08 2.43417e+08 3.91591e+08 1.73095e+07 3.07418e+08
106 2 1.85 -3.7 -5.55 6.66897e+07 6.51487e+07 6.75816e+07 92558.9 -172721 -592363 4.65302e+08 2.34043e+08 4.61061e+08 -3.28834e+06 2.9777e+08
107 2 0 -1.85 -5.55 6.4925e+07 6.4842e+07 6.50833e+07 -1.0562e+06 396009 -841066 4.82185e+08 2.42409e+08 4.9595e+08 1.99951e+07 3.05764e+08
108 2 3.7 -3.7 -7.4 6.66069e+07 6.51061e+07 5.62947e+07 -504719 -205799 -1.34845e+06 3.70951e+08 2.42915e+08 3.74265e+08 7.76444e+06 3.06368e+08
109 2 5.55 -1.85 -7.4 6.49566e+07 6.58025e+07 5.46383e+07 -545673 865090 111804 3.7452e+08 2.47788e+08 3.91258e+08 1.32172e+07 3.1188e+08
110 2 5.55 -3.7 -5.55 6.47921e+07 6.41844e+07 6.5903e+07 228452 -860319 -363430 4.59616e+08 2.36808e+08 4.7767e+08 -1.61326e+07 2.99526e+08
111 2 3.7 -1.85 -5.55 6.50066e+07 6.54531e+07 6.49648e+07 710395 519476 -19669.6 4.8593e+08 2.29557e+08 4.75983e+08 -2.84624e+06 2.93564e+08
112 2 7.4 -3.7 -7.4 5.49557e+07 6.83312e+07 5.6617e+07 389279 90977.4 -386408 2.58023e+08 1.24134e+08 2.64662e+08 -8.37144e+06 1.92059e+08
113 2 9.25 -1.85 -7.4 2.71169e+06 9.21856e+07 7.22618e+07 -732609 4.18065e+06 -514060 2.38292e+10 96096.7 -1.87726e+09 -6.27693e+06 8.70775e+07
114 2 9.25 -3.7 -5.55 5.94163e+06 8.91663e+07 8.97643e+07 151668 1.90802e+06 -196062 2.16908e+10 2.06681e+07 -2.13181e+09 7.18368e+06 1.03998e+08
115 2 7.4 -1.85 -5.55 5.56154e+07 6.77693e+07 6.87675e+07 -356970 -449966 -369682 2.63793e+08 1.34054e+08 3.7172e+08 -1.96838e+06 2.01617e+08
116 2 -9.25 1.85 -7.4 -984115 9.1879e+07 7.08212e+07 -1.71806e+06 -5.79084e+06 -259333 2.54164e+10 1.67589e+07 -2.01411e+09 -1.25861e+07 1.03308e+08
117 2 -9.25 0 -5.55 4.56772e+06 9.07042e+07 9.02167e+07 142074 -2.32989e+06 -712050 2.26368e+10 2.49738e+06 -2.05972e+09 2.5462e+06 8.7469e+07
118 2 -7.4 0 -7.4 5.69802e+07 6.79141e+07 5.58319e+07 838725 -605941 -448335 2.73363e+08 1.30291e+08 2.6278e+08 -1.26784e+07 1.97747e+08
119 2 -5.55 1.85 -7.4 6.53069e+07 6.51856e+07 5.42053e+07 1.01062e+06 -690356 -747262 3.91954e+08 2.45863e+08 3.88419e+08 -1.13786e+07 3.09347e+08
120 2 -5.55 0 -5.55 6.67444e+07 6.60451e+07 6.80457e+07 -586085 -385708 1.3212e+06 4.52573e+08 2.38508e+08 4.79782e+08 3.67972e+06 3.03112e+08
121 2 -7.4 1.85 -5.55 5.42238e+07 6.69086e+07 6.65393e+07 176650 21450.5 68253.6 2.80342e+08 1.3258e+08 3.76791e+08 -4.82434e+06 1.99254e+08
122 2 -3.7 0 -7.4 6.67975e+07 6.69708e+07 5.49556e+07 -465830 -167639 340305 3.578e+08 2.35819e+08 3.70186e+08 1.0589e+07 3.01102e+08
123 2 -1.85 1.85 -7.4 6.54402e+07 6.63927e+07 5.49363e+07 782544 -148282 139399 3.85946e+08 2.34522e+08 3.673e+08 -6.67384e+06 2.99267e+08
124 2 -1.85 0 -5.55 6.58641e+07 6.53332e+07 6.52975e+07 -253786 1.25224e+06 1.00251e+06 4.84526e+08 2.31241e+08 4.70229e+08 3.46228e+06 2.95138e+08
125 2 -3.7 1.85 -5.55 6.39893e+07 6.59866e+07 6.69254e+07 996953 -370219 202699 4.71766e+08 2.37222e+08 4.68907e+08 -1.45019e+06 3.01784e+08
126 2 0 0 -7.4 6.69946e+07 6.58002e+07 5.47815e+07 667536 233969 -257643 3.67592e+08 2.33567e+08 3.74033e+08 -3.52339e+06 2.97683e+08
127 2 1.85 1.85 -7.4 6.49008e+07 6.57952e+07 5.28684e+07 -330363 767580 517647 3.84647e+08 2.36913e+08 4.12258e+08 -867339 3.00997e+08
128 2 1.85 0 -5.55 6.56436e+07 6.59128e+07 6.42742e+07 -392822 188793 -695911 4.84384e+08 2.3381e+08 4.88e+08 8.71369e+06 2.9826e+08
129 2 0 1.85 -5.55 6.52731e+07 6.37503e+07 6.35363e+07 951171 399087 -353689 4.93832e+08 2.36147e+08 4.93613e+08 -6.94083e+06 2.98395e+08
130 2 3.7 0 -7.4 6.44732e+07 6.57719e+07 5.35208e+07 -1.08027e+06 -598290 -593635 4.01974e+08 2.48484e+08 4.07165e+08 1.2154e+07 3.12517e+08
131 2 5.55 1.85 -7.4 6.54746e+07 6.50198e+07 5.37429e+07 -993838 -1.03108e+06 705316 3.88432e+08 2.41633e+08 3.99914e+08 1.0467e+07 3.04958e+08
132 2 5.55 0 -5.55 6.73399e+07 6.73867e+07 6.4615e+07 923893 -342853 1.41001e+06 4.61198e+08 2.0913e+08 4.68112e+08 -9.03386e+06 2.75107e+08
133 2 3.7 1.85 -5.55 6.55233e+07 6.65128e+07 6.37595e+07 -149417 -799794 -366790 4.71572e+08 2.25895e+08 5.00624e+08 4.37366e+06 2.90927e+08
134 2 7.4 0 -7.4 5.53683e+07 6.53333e+07 5.48551e+07 -360948 923746 -1.50851e+06 2.8503e+08 1.34565e+08 2.79729e+08 5.4722e+06 1.99405e+08
135 2 9.25 1.85 -7.4 193588 9.49685e+07 7.41905e+07 -1.54989e+06 630959 -867326 2.53996e+10 -4.40939e+06 -1.77381e+09 -1.39794e+06 8.5456e+07
136 2 9.25 0 -5.55 4.55965e+06 9.07748e+07 9.07894e+07 839458 -1.02374e+06 265025 2.26217e+10 -5.08295e+06 -2.02901e+09 206058 7.99147e+07
137 2 7.4 1.85 -5.55 5.54516e+07 6.5647e+07 6.36692e+07 302406 -238316 -630161 2.54506e+08 1.04349e+08 3.80943e+08 -3.61343e+06 1.6972e+08
138 2 -9.25 5.55 -7.4 2.77405e+06 9.17843e+07 7.20142e+07 116595 -3.33113e+06 -568283 2.40589e+10 1.17029e+07 -1.80122e+09 2.29705e+07 9.86629e+07
139 2 -9.25 3.7 -5.55 1.49647e+06 9.08405e+07 9.07582e+07 -639192 2.0388e+06 -303502 2.43958e+10 6.98619e+06 -1.99819e+09 8.60075e+06 9.19871e+07
140 2 -7.4 3.7 -7.4 5.49047e+07 6.84732e+07 5.61251e+07 452868 148936 389563 2.76081e+08 1.19908e+08 2.4327e+08 -3.13555e+06 1.87947e+08
141 2 -5.55 5.55 -7.4 6.68416e+07 6.57758e+07 5.42971e+07 -75562.8 -328551 662183 3.70075e+08 2.31546e+08 3.79458e+08 1.15875e+07 2.9567e+08
142 2 -5.55 3.7 -5.55 6.67192e+07 6.37238e+07 6.50402e+07 1.01661e+06 1.09413e+06 -1.64532e+06 4.82167e+08 2.31916e+08 4.72498e+08 -1.67512e+06 2.94181e+08
143 2 -7.4 5.55 -5.55 5.39824e+07 6.56608e+07 6.66806e+07 -966637 106077 377753 3.15552e+08 1.46089e+08 3.75401e+08 1.77514e+07 2.11503e+08
144 2 -3.7 3.7 -7.4 6.65345e+07 6.65358e+07 5.34523e+07 -28797.4 -1.3639e+06 -914428 3.79574e+08 2.26881e+08 3.71373e+08 -300445 2.91769e+08
145 2 -1.85 5.55 -7.4 6.86223e+07 6.68087e+07 5.59714e+07 -273426 330366 -6377.21 3.78746e+08 2.2845e+08 3.48657e+08 8.91168e+06 2.93654e+08
146 2 -1.85 3.7 -5.55 6.48369e+07 6.62388e+07 6.56289e+07 1.14326e+06 -943366 -872273 4.85852e+08 2.30009e+08 4.60345e+08 -6.87415e+06 2.94839e+08
147 2 -3.7 5.55 -5.55 6.62302e+07 6.46343e+07 6.43972e+07 151093 -1.3078e+06 -564956 4.8719e+08 2.30598e+08 4.68275e+08 -2.9506e+06 2.93787e+08
148 2 0 3.7 -7.4 6.74717e+07 6.71473e+07 5.33664e+07 150907 -502858 -207149 3.76172e+08 2.22991e+08 3.59044e+08 -5.0969e+06 2.88503e+08
149 2 1.85 5.55 -7.4 6.73605e+07 6.68909e+07 5.55804e+07 573452 -870631 162706 3.6756e+08 2.30852e+08 3.68698e+08 -9.54134e+06 2.96097e+08
150 2 1.85 3.7 -5.55 6.51355e+07 6.55994e+07 6.4882e+07 725679 -362998 709641 4.79194e+08 2.30442e+08 4.74085e+08 -5.75121e+06 2.94601e+08
151 2 0 5.55 -5.55 6.63759e+07 6.56823e+07 6.55412e+07 569974 -421426 -991716 4.82658e+08 2.33919e+08 4.78873e+08 -254125 2.98147e+08
152 2 3.7 3.7 -7.4 6.58546e+07 6.55668e+07 5.46616e+07 -1361.66 -495582 -915502 3.78994e+08 2.39822e+08 3.89241e+08 5.62484e+06 3.03717e+08
153 2 5.55 5.55 -7.4 6.77182e+07 6.65768e+07 5.49585e+07 -1.71119e+06 532293 -772512 3.65598e+08 2.34276e+08 3.65445e+08 9.93193e+06 2.99202e+08
154 2 5.55 3.7 -5.55 6.68651e+07 6.52904e+07 6.55666e+07 -626696 -598760 369044 4.60061e+08 2.32625e+08 4.85167e+08 1.27067e+07 2.96451e+08
155 2 3.7 5.55 -5.55 6.54509e+07 6.48306e+07 6.49592e+07 -447559 749689 -1.343e+06 4.88176e+08 2.34599e+08 4.79774e+08 2.2144e+06 2.97963e+08
156 2 7.4 3.7 -7.4 5.57983e+07 6.68601e+07 5.4731e+07 -91377.9 -1.12165e+06 926035 2.72666e+08 1.25053e+08 2.80553e+08 1.88196e+07 1.91452e+08
157 2 9.25 5.55 -7.4 2.55675e+06 9.26788e+07 7.2222e+07 1.27969e+06 3.8601e+06 133673 2.4052e+10 1.97264e+07 -1.91136e+09 -1.54739e+06 1.07669e+08
158 2 9.25 3.7 -5.55 1.45042e+06 9.10089e+07 8.88059e+07 226253 2.12991e+06 557084 2.43812e+10 -1.05026e+07 -2.15529e+09 -8.69404e+06 7.46242e+07
159 2 7.4 5.55 -5.55 5.60618e+07 6.73039e+07 6.8885e+07 236030 -192786 -1.14743e+06 2.74674e+08 1.30093e+08 3.54218e+08 5.65003e+06 1.97204e+08
160 2 -9.25 9.25 -7.4 6.80033e+06 5.75095e+06 7.78033e+07 2.1762e+07 -6.41092e+06 6.52114e+06 1.37536e+10 6.20481e+07 1.41744e+10 3.21848e+07 4.56573e+07
161 2 -9.25 7.4 -5.55 3.61492e+06 7.28963e+07 9.222e+07 5.67733e+06 -1.1262e+06 -1.08586e+06 2.3451e+10 -4.33426e+07 -1.91947e+09 -5.64741e+07 2.43484e+07
162 2 -7.4 7.4 -7.4 5.68557e+07 5.44686e+07 5.6231e+07 291254 -555446 1.02055e+06 2.86886e+08 1.28299e+08 2.76912e+08 -8.62678e+07 1.79948e+08
163 2 -5.55 9.25 -7.4 9.35586e+07 1.88235e+06 7.2729e+07 156436 -1.23863e+06 6.1557e+06 -1.89528e+09 -8.94088e+06 2.4616e+10 1.92639e+08 -2.95142e+07
164 2 -5.55 7.4 -5.55 6.62893e+07 5.49154e+07 6.78219e+07 -1.29674e+06 33767.3 -7184.83 3.74261e+08 1.46676e+08 3.00697e+08 1.37744e+07 1.97446e+08
165 2 -7.4 9.25 -5.55 7.32596e+07 6.68565e+06 9.17712e+07 5.80846e+06 -1.24785e+06 1.27424e+06 -1.90731e+09 -4.37141e+07 2.19177e+10 -7.37549e+08 -5.60138e+07
166 2 -3.7 7.4 -7.4 6.69856e+07 5.42904e+07 5.45774e+07 -1.03539e+06 -455734 -36604.3 2.75852e+08 1.35778e+08 2.95034e+08 2.41895e+07 1.85852e+08
167 2 -1.85 9.25 -7.4 9.23381e+07 1.36613e+06 7.12611e+07 1.01242e+06 9588.64 2.30055e+06 -1.80757e+09 1.8979e+07 2.34071e+10 -3.23931e+08 -4815.07
168 2 -1.85 7.4 -5.55 6.58706e+07 5.49064e+07 6.67169e+07 -1.26035e+06 938674 116790 4.00156e+08 1.38048e+08 2.73772e+08 2.08759e+07 1.88867e+08
169 2 -3.7 9.25 -5.55 9.08811e+07 73893.1 9.0222e+07 -1.50708e+06 222433 -878665 -2.00723e+09 1.9024e+06 2.54199e+10 1.74027e+08 -2.01192e+07
170 2 0 7.4 -7.4 6.58505e+07 5.22602e+07 5.43029e+07 -20902.3 799600 539676 2.80908e+08 1.47875e+08 3.32279e+08 -2.93394e+06 1.95795e+08
171 2 1.85 9.25 -7.4 9.27287e+07 -2.25432e+06 7.29701e+07 -406590 197759 5.56703e+06 -1.75916e+09 1.85624e+07 2.55404e+10 2.85037e+08 -7.05831e+06
172 2 1.85 7.4 -5.55 6.5154e+07 5.31876e+07 6.45484e+07 -744788 -222147 224647 4.05591e+08 1.40504e+08 3.04545e+08 1.23045e+07 1.8945e+08
173 2 0 9.25 -5.55 9.27142e+07 3.82331e+06 9.2269e+07 1.41193e+06 236360 731061 -1.8905e+09 3.35804e+07 2.32676e+10 -7.50135e+08 1.81786e+07
174 2 3.7 7.4 -7.4 6.80377e+07 5.48479e+07 5.53689e+07 166208 442409 78755.1 2.55529e+08 1.3383e+08 2.89402e+08 -1.63179e+07 1.84491e+08
175 2 5.55 9.25 -7.4 9.33262e+07 4.79373e+06 7.32719e+07 -642753 -1.47929e+06 1.6804e+06 -1.79687e+09 3.79816e+06 2.22318e+10 3.43918e+08 -1.10275e+07
176 2 5.55 7.4 -5.55 6.66208e+07 5.41706e+07 6.55922e+07 416230 80835.7 -612387 3.66758e+08 1.31115e+08 3.1497e+08 -1.3388e+07 1.81099e+08
177 2 3.7 9.25 -5.55 9.10489e+07 5.7346e+06 8.9969e+07 694946 -883159 -967065 -2.09194e+09 1.85728e+07 2.21262e+10 -3.96922e+08 6.39799e+06
178 2 7.4 7.4 -7.4 5.62965e+07 5.60526e+07 5.84327e+07 -427090 887777 -579650 2.62228e+08 1.38015e+08 2.63644e+08 8.82415e+07 1.91301e+08
179 2 9.25 9.25 -7.4 7.40811e+06 3.40571e+06 7.7176e+07 -2.05034e+07 5.17091e+06 8.00054e+06 1.37841e+10 7.47655e+07 1.5372e+10 5.25915e+08 5.16934e+07
180 2 9.25 7.4 -5.55 4.44218e+06 7.00128e+07 9.27907e+07 -903481 -627528 954156 2.34683e+10 -1.92396e+07 -1.90799e+09 5.29762e+07 4.55129e+07
181 2 7.4 9.25 -5.55 7.19307e+07 4.69924e+06 9.20749e+07 -2.44857e+06 -450279 1.00678e+06 -1.8706e+09 -4.91331e+07 2.21574e+10 4.92665e+07 -6.39024e+07
182 2 -9.25 -9.25 -3.7 4.62563e+06 1.07608e+07 1.10387e+08 -1.99295e+07 -216558 -1.89648e+06 1.62891e+10 5.9465e+07 1.34117e+10 5.01285e+08 4.72267e+07
183 2 -5.55 -9.25 -3.7 9.09471e+07 -406857 9.10955e+07 1.94626e+06 -584494 -1.00437e+06 -2.07895e+09 1.76381e+07 2.54865e+10 -5.40101e+08 -5.0722e+06
184 2 -7.4 -9.25 -1.85 7.31486e+07 1.96268e+06 9.27302e+07 -4.65167e+06 1.01777e+06 125874 -1.80641e+09 -2.3538e+07 2.38342e+10 7.32822e+08 -4.34223e+07
185 2 -1.85 -9.25 -3.7 9.25928e+07 4.16443e+06 9.15484e+07 -2.19264e+06 -655284 -1.86056e+06 -2.04669e+09 1.15158e+07 2.27701e+10 4.79254e+08 -3.31797e+06
186 2 -3.7 -9.25 -1.85 9.24248e+07 5.39147e+06 9.05875e+07 1.41171e+06 705886 -805541 -1.97917e+09 1.79176e+06 2.23126e+10 -4.20246e+08 -1.07815e+07
187 2 1.85 -9.25 -3.7 8.93196e+07 3.21889e+06 8.87922e+07 1.44164e+06 275245 1.71118e+06 -2.12265e+09 2.30193e+07 2.3786e+10 -6.89426e+08 6.51851e+06
188 2 0 -9.25 -1.85 9.11614e+07 5.48146e+06 8.98027e+07 -944135 696326 -1.79052e+06 -2.10296e+09 6.21973e+06 2.28472e+10 5.39008e+08 -7.42496e+06
189 2 5.55 -9.25 -3.7 9.12834e+07 3.16744e+06 9.19926e+07 1.29317e+06 -310965 470672 -2.05718e+09 1.17854e+07 2.31159e+10 -4.87752e+08 -4.50524e+06
190 2 3.7 -9.25 -1.85 8.97855e+07 4.38196e+06 9.09274e+07 1.96449e+06 118606 946227 -2.09505e+09 -413988 2.32046e+10 -1.51496e+08 -1.51962e+07
191 2 9.25 -9.25 -3.7 3.3084e+06 4.5589e+06 1.10851e+08 1.72552e+07 -1.61849e+06 -744855 1.62109e+10 5.06058e+07 1.5066e+10 2.19008e+08 3.05893e+07
192 2 7.4 -9.25 -1.85 7.2153e+07 1.15097e+06 9.41703e+07 5.57875e+06 211453 -318855 -1.83699e+09 -2.83995e+07 2.43386e+10 -7.93915e+08 -4.9098e+07
193 2 -9.25 -5.55 -3.7 31687.3 9.13607e+07 9.21878e+07 735317 1.05861e+06 1.08841e+06 2.60536e+10 -7.82775e+06 -2.01706e+09 -4.97144e+07 7.8249e+07
194 2 -9.25 -7.4 -1.85 1.19901e+06 7.19166e+07 9.20978e+07 -1.58979e+06 -385969 -718606 2.4885e+10 -4.11848e+07 -1.93567e+09 2.96389e+07 2.52942e+07
195 2 -7.4 -7.4 -3.7 5.51912e+07 5.45681e+07 6.67944e+07 611674 -1.12869e+06 1.38594e+06 2.89128e+08 1.23946e+08 2.87594e+08 6.7746e+07 1.75722e+08
196 2 -5.55 -5.55 -3.7 6.55571e+07 6.66556e+07 6.47914e+07 884874 -743703 -1.36612e+06 4.75476e+08 2.21603e+08 4.70321e+08 -1.01223e+07 2.86828e+08
197 2 -5.55 -7.4 -1.85 6.49361e+07 5.41125e+07 6.67388e+07 116470 -306806 658930 3.88365e+08 1.41376e+08 2.79622e+08 -7.17641e+06 1.91449e+08
198 2 -7.4 -5.55 -1.85 5.71297e+07 6.70841e+07 6.70279e+07 531576 -240376 -626851 2.57216e+08 1.11221e+08 3.55871e+08 -5.88299e+06 1.78081e+08
199 2 -3.7 -7.4 -3.7 6.84214e+07 5.46469e+07 6.73101e+07 487040 1.04371e+06 826962 3.5454e+08 1.14134e+08 2.63769e+08 -1.05584e+07 1.64786e+08
200 2 -1.85 -5.55 -3.7 6.6602e+07 6.52011e+07 6.67078e+07 1.97027e+06 583509 -524764 4.67875e+08 2.31362e+08 4.71094e+08 -2.83326e+07 2.95119e+08
201 2 -1.85 -7.4 -1.85 6.66403e+07 5.40893e+07 6.8054e+07 -303879 340732 296707 3.57279e+08 1.29837e+08 2.74295e+08 -4.94385e+06 1.79912e+08
202 2 -3.7 -5.55 -1.85 6.34989e+07 6.46305e+07 6.58427e+07 171665 -441871 871424 4.97598e+08 2.54865e+08 4.89859e+08 6.93345e+06 3.18009e+08
203 2 0 -7.4 -3.7 6.53121e+07 5.43083e+07 6.71173e+07 -543930 452467 96141.2 3.75933e+08 1.41739e+08 3.04496e+08 1.62969e+07 1.91972e+08