ITEM: TIMESTEP
0
ITEM: NUMBER OF ATOMS
665
ITEM: BOX BOUNDS xy xz yz pp pp pp
-1.0000000000000000e+01 1.0000000000000000e+01 0.0000000000000000e+00
-1.0000000000000000e+01 1.0000000000000000e+01 0.0000000000000000e+00
-1.0000000000000000e+01 1.0000000000000000e+01 0.0000000000000000e+00
ITEM: ATOMS id type x y z c_1[1] c_1[2] c_1[3] c_1[4] c_1[5] c_1[6] c_1[7] c_1[22]
1 2 -7.4 -9.25 -9.25 7.6052e+06 -3.90658e+07 -3.9145e+07 195863 -163088 5.96067e+06 -1.51731e+07 -5.02241e+07
2 2 -3.7 -9.25 -9.25 7.83546e+06 -3.88705e+07 -3.90135e+07 10968.5 10968.5 5.80185e+06 -1.67968e+07 -5.05058e+07
3 2 0 -9.25 -9.25 7.8362e+06 -3.88705e+07 -3.90135e+07 10973.9 10973.9 5.80185e+06 -8.69593e+06 -4.31797e+07
4 2 3.7 -9.25 -9.25 7.83617e+06 -3.88705e+07 -3.90135e+07 10979.4 10979.4 5.80185e+06 -8.6375e+06 -4.31794e+07
5 2 7.4 -9.25 -9.25 7.60592e+06 -3.90658e+07 -3.9145e+07 -184889 174062 5.96067e+06 -4.4695e+06 -4.1172e+07
6 2 -9.25 -7.4 -9.25 -3.66305e+07 5.16995e+06 -3.9145e+07 195868 4.51028e+06 1.28737e+06 2.73159e+08 6.11855e+06
7 2 -5.55 -7.4 -9.25 9.88415e+06 4.9163e+06 -4.09088e+07 528.84 1036.23 2.67351e+06 1.64738e+07 1.75495e+07
8 2 -7.4 -5.55 -9.25 6.53296e+06 9.06324e+06 -4.09088e+07 -397350 -371921 3.04647e+06 2.34191e+07 3.16855e+07
9 2 -1.85 -7.4 -9.25 9.8117e+06 4.91748e+06 -4.0909e+07 -0.152206 938.625 2.67332e+06 2.3832e+07 2.21657e+07
10 2 -3.7 -5.55 -9.25 8.55623e+06 8.62709e+06 -4.06489e+07 -1.87382e-10 938.615 3.09453e+06 3.28452e+07 3.99668e+07
11 2 1.85 -7.4 -9.25 9.8117e+06 4.91748e+06 -4.0909e+07 -0.152206 938.625 2.67332e+06 3.1199e+07 2.95195e+07
12 2 0 -5.55 -9.25 8.55624e+06 8.62709e+06 -4.06489e+07 1.16726e-09 938.625 3.09453e+06 3.49648e+07 4.14677e+07
13 2 5.55 -7.4 -9.25 9.81416e+06 4.9163e+06 -4.09088e+07 -529.775 652.01 2.67351e+06 3.11904e+07 2.94962e+07
14 2 3.7 -5.55 -9.25 8.55624e+06 8.62709e+06 -4.06489e+07 -5.15066e-10 938.634 3.09453e+06 3.49697e+07 4.14669e+07
15 2 9.25 -7.4 -9.25 -3.67005e+07 5.16995e+06 -3.9145e+07 -202317 -1.94991e+06 1.28737e+06 2.85416e+08 1.48912e+07
16 2 7.4 -5.55 -9.25 6.53297e+06 9.06324e+06 -4.09088e+07 397350 372860 3.04647e+06 3.29585e+07 3.98242e+07
17 2 -9.25 -3.7 -9.25 -3.72535e+07 7.01417e+06 -3.90135e+07 -386911 4.30322e+06 1.50967e+06 2.78451e+08 1.23603e+07
18 2 -5.55 -3.7 -9.25 8.62687e+06 8.55639e+06 -4.06489e+07 32.9765 839.291 3.09463e+06 3.02151e+07 3.03783e+07
19 2 -7.4 -1.85 -9.25 6.5343e+06 8.99057e+06 -4.0909e+07 -397846 -372112 3.04637e+06 4.24101e+07 3.97157e+07
20 2 -1.85 -3.7 -9.25 8.5565e+06 8.55649e+06 -4.06489e+07 5.33818e-10 938.625 3.09463e+06 3.64857e+07 3.39077e+07
21 2 -3.7 -1.85 -9.25 8.55649e+06 8.5565e+06 -4.06489e+07 2.66816e-10 938.615 3.09463e+06 4.91836e+07 3.84904e+07
22 2 1.85 -3.7 -9.25 8.5565e+06 8.55649e+06 -4.06489e+07 -8.88648e-10 938.625 3.09463e+06 4.32036e+07 4.06123e+07
23 2 0 -1.85 -9.25 8.5565e+06 8.5565e+06 -4.06489e+07 -5.49346e-10 938.625 3.09463e+06 4.83886e+07 3.77092e+07
24 2 5.55 -3.7 -9.25 8.55688e+06 8.55639e+06 -4.06489e+07 -32.9765 848.952 3.09463e+06 4.32149e+07 4.06085e+07
25 2 3.7 -1.85 -9.25 8.5565e+06 8.5565e+06 -4.06489e+07 -1.24514e-09 938.634 3.09463e+06 4.83882e+07 3.77088e+07
26 2 9.25 -3.7 -9.25 -3.73235e+07 7.01417e+06 -3.90135e+07 386911 -1.74281e+06 1.50967e+06 2.89803e+08 2.02313e+07
27 2 7.4 -1.85 -9.25 6.53431e+06 8.99057e+06 -4.0909e+07 397846 373051 3.04637e+06 5.40589e+07 4.3269e+07
28 2 -9.25 0 -9.25 -3.72535e+07 7.01492e+06 -3.90135e+07 -386905 4.30322e+06 1.50968e+06 2.84945e+08 2.04909e+07
29 2 -5.55 0 -9.25 8.62687e+06 8.5564e+06 -4.06489e+07 32.9765 839.291 3.09463e+06 2.7793e+07 3.32824e+07
30 2 -7.4 1.85 -9.25 6.5343e+06 8.99057e+06 -4.0909e+07 -397846 -372112 3.04637e+06 4.233e+07 3.96417e+07
31 2 -1.85 0 -9.25 8.5565e+06 8.5565e+06 -4.06489e+07 -4.78026e-11 938.625 3.09463e+06 1.73449e+07 2.51775e+07
32 2 -3.7 1.85 -9.25 8.55649e+06 8.5565e+06 -4.06489e+07 -8.89386e-11 938.615 3.09463e+06 3.67659e+07 3.3286e+07
33 2 1.85 0 -9.25 8.5565e+06 8.5565e+06 -4.06489e+07 -2.23203e-09 938.625 3.09463e+06 2.25586e+07 3.03827e+07
34 2 0 1.85 -9.25 8.5565e+06 8.5565e+06 -4.06489e+07 -1.22058e-09 938.625 3.09463e+06 3.38551e+07 3.03828e+07
35 2 5.55 0 -9.25 8.55688e+06 8.5564e+06 -4.06489e+07 -32.9765 848.952 3.09463e+06 2.98557e+07 3.76689e+07
36 2 3.7 1.85 -9.25 8.5565e+06 8.5565e+06 -4.06489e+07 -9.78325e-10 938.634 3.09463e+06 3.38551e+07 3.03828e+07
37 2 9.25 0 -9.25 -3.73234e+07 7.01492e+06 -3.90135e+07 386905 -1.74281e+06 1.50968e+06 2.8514e+08 1.71902e+07
38 2 7.4 1.85 -9.25 6.53431e+06 8.99057e+06 -4.0909e+07 397846 373051 3.04637e+06 4.69421e+07 4.33601e+07
39 2 -9.25 3.7 -9.25 -3.72535e+07 7.0149e+06 -3.90135e+07 -386905 4.30322e+06 1.50969e+06 2.84945e+08 2.0491e+07
40 2 -5.55 3.7 -9.25 8.62687e+06 8.5564e+06 -4.06489e+07 32.9765 839.291 3.09463e+06 2.77931e+07 3.32825e+07
41 2 -7.4 5.55 -9.25 6.53458e+06 8.99098e+06 -4.09088e+07 -398082 -371928 3.04609e+06 4.23301e+07 3.96419e+07
42 2 -1.85 3.7 -9.25 8.5565e+06 8.5565e+06 -4.06489e+07 4.8988e-11 938.625 3.09463e+06 1.7345e+07 2.51776e+07
43 2 -3.7 5.55 -9.25 8.55654e+06 8.55666e+06 -4.06489e+07 -3.55755e-10 938.615 3.09454e+06 3.67781e+07 3.32982e+07
44 2 1.85 3.7 -9.25 8.5565e+06 8.5565e+06 -4.06489e+07 4.37119e-12 938.625 3.09463e+06 2.25587e+07 3.03828e+07
45 2 0 5.55 -9.25 8.55655e+06 8.55666e+06 -4.06489e+07 3.43972e-10 938.625 3.09454e+06 3.38551e+07 3.0383e+07
46 2 5.55 3.7 -9.25 8.55688e+06 8.5564e+06 -4.06489e+07 -32.9765 848.952 3.09463e+06 2.99754e+07 3.77885e+07
47 2 3.7 5.55 -9.25 8.55655e+06 8.55666e+06 -4.06489e+07 -8.00448e-10 938.634 3.09454e+06 3.38551e+07 3.03829e+07
48 2 9.25 3.7 -9.25 -3.73234e+07 7.0149e+06 -3.90135e+07 386905 -1.74281e+06 1.50969e+06 2.84445e+08 1.64952e+07
49 2 7.4 5.55 -9.25 6.5346e+06 8.99098e+06 -4.09088e+07 398082 372866 3.04609e+06 4.69423e+07 4.33603e+07
50 2 -9.25 7.4 -9.25 -3.74473e+07 6.78258e+06 -3.9145e+07 -582474 4.46208e+06 1.67265e+06 2.6827e+08 1.14494e+07
51 2 -5.55 7.4 -9.25 8.24006e+06 8.15126e+06 -4.09088e+07 -201.35 1029.85 3.4183e+06 1.15282e+07 1.58114e+07
52 2 -7.4 9.25 -9.25 4.34661e+06 -3.5082e+07 -3.9145e+07 -599902 -211222 -451321 -1.23328e+06 -5.31261e+07
53 2 -1.85 7.4 -9.25 8.16944e+06 8.15113e+06 -4.0909e+07 0.152206 938.625 3.41848e+06 3.93912e+06 6.81162e+06
54 2 -3.7 9.25 -9.25 6.1929e+06 -3.57064e+07 -3.90135e+07 -10974 10968.5 -244180 1.28195e+06 -4.88281e+07
55 2 1.85 7.4 -9.25 8.16944e+06 8.15113e+06 -4.0909e+07 0.152206 938.625 3.41848e+06 9.15216e+06 1.20166e+07
56 2 0 9.25 -9.25 6.19363e+06 -3.57064e+07 -3.90135e+07 -10973.9 10973.9 -244180 -7.82845e+06 -5.78499e+07
57 2 5.55 7.4 -9.25 8.17007e+06 8.15126e+06 -4.09088e+07 202.285 658.391 3.4183e+06 1.65555e+07 1.94037e+07
58 2 3.7 9.25 -9.25 6.19362e+06 -3.57064e+07 -3.90135e+07 -10973.9 10979.4 -244180 -7.82862e+06 -5.78499e+07
59 2 9.25 7.4 -9.25 -3.75173e+07 6.78258e+06 -3.9145e+07 588922 -1.9017e+06 1.67265e+06 2.71238e+08 7.4737e+06
60 2 7.4 9.25 -9.25 4.34733e+06 -3.5082e+07 -3.9145e+07 588928 222196 -451321 -451231 -5.31491e+07
61 2 -9.25 -9.25 -7.4 -3.68318e+07 -3.68317e+07 2.53347e+06 3.21837e+06 1.44583e+06 1.44583e+06 2.68755e+08 -5.6001e+07
62 2 -5.55 -9.25 -7.4 9.88417e+06 -3.85888e+07 2.59643e+06 1013.14 557.314 2.67349e+06 7.3837e+06 -5.48467e+07
63 2 -7.4 -9.25 -5.55 6.7345e+06 -4.07787e+07 9.25692e+06 -210093 -594904 2.88778e+06 1.78326e+07 -6.64961e+07
64 2 -1.85 -9.25 -7.4 9.81175e+06 -3.8589e+07 2.59764e+06 938.625 -0.152206 2.67327e+06 -1.3954e+06 -6.29599e+07
65 2 -3.7 -9.25 -5.55 8.55623e+06 -4.06489e+07 8.62709e+06 938.615 -8.05641e-14 3.09453e+06 1.81372e+07 -6.97884e+07
66 2 1.85 -9.25 -7.4 9.81175e+06 -3.8589e+07 2.59764e+06 938.625 -0.152206 2.67327e+06 -558363 -6.296e+07
67 2 0 -9.25 -5.55 8.55624e+06 -4.06489e+07 8.62709e+06 938.625 1.36037e-10 3.09453e+06 1.8449e+07 -6.44645e+07
68 2 5.55 -9.25 -7.4 9.81419e+06 -3.85888e+07 2.59643e+06 675.097 -558.248 2.67349e+06 -570632 -6.29686e+07
69 2 3.7 -9.25 -5.55 8.55624e+06 -4.06489e+07 8.62709e+06 938.634 -8.95291e-10 3.09453e+06 1.84535e+07 -6.44645e+07
70 2 9.25 -9.25 -7.4 -3.69018e+07 -3.68317e+07 2.53347e+06 -657994 -1.45228e+06 1.44583e+06 2.73985e+08 -5.60122e+07
71 2 7.4 -9.25 -5.55 6.73451e+06 -4.07787e+07 9.25692e+06 211032 594904 2.88778e+06 2.47168e+07 -6.03947e+07
72 2 -9.25 -5.55 -7.4 -3.85888e+07 9.88417e+06 2.59643e+06 1013.14 2.67349e+06 557.313 3.00685e+08 -1.84149e+06
73 2 -9.25 -7.4 -5.55 -3.84589e+07 4.41461e+06 9.25692e+06 -210093 2.88778e+06 -594904 3.08106e+08 -8.34565e+06
74 2 -7.4 -7.4 -7.4 6.28773e+06 6.28773e+06 6.28773e+06 437865 437865 437865 4.39752e+07 2.53919e+07
75 2 -5.55 -5.55 -7.4 8.96288e+06 8.96288e+06 1.57921e+06 11.3952 -10.6536 -10.6536 4.67909e+07 3.96875e+07
76 2 -5.55 -7.4 -5.55 8.96288e+06 2.9424e+06 8.006e+06 -10.6536 11.3952 -203168 5.09936e+07 2.2396e+07
77 2 -7.4 -5.55 -5.55 4.3056e+06 8.006e+06 8.006e+06 -203168 -203168 11.3952 5.14437e+07 3.45212e+07
78 2 -3.7 -7.4 -7.4 1.08607e+07 3.93357e+06 3.93357e+06 -37.6873 -37.6873 439719 3.84585e+07 2.41331e+07
79 2 -1.85 -5.55 -7.4 8.94677e+06 8.9629e+06 1.57936e+06 5.69758 -43.3849 -10.6536 3.8182e+07 3.44833e+07
80 2 -1.85 -7.4 -5.55 8.94677e+06 2.94256e+06 8.00602e+06 -43.3849 5.69758 -203168 4.80906e+07 2.31805e+07
81 2 -3.7 -5.55 -5.55 7.0328e+06 7.04884e+06 7.04884e+06 -6.51178e-11 1.77851e-10 11.3952 6.09655e+07 4.18615e+07
82 2 0 -7.4 -7.4 1.08607e+07 3.93357e+06 3.93357e+06 -37.6873 -37.6873 439719 2.42446e+07 1.60255e+07
83 2 1.85 -5.55 -7.4 8.94677e+06 8.9629e+06 1.57936e+06 5.69758 -43.3849 -10.6536 3.83034e+07 3.39815e+07
84 2 1.85 -7.4 -5.55 8.94677e+06 2.94256e+06 8.00602e+06 -43.3849 5.69758 -203168 4.87127e+07 2.85044e+07
85 2 0 -5.55 -5.55 7.0328e+06 7.04884e+06 7.04884e+06 -1.96983e-09 -1.90472e-09 11.3952 5.52588e+07 4.13598e+07
86 2 3.7 -7.4 -7.4 1.08607e+07 3.93357e+06 3.93357e+06 -37.6873 -37.6873 439719 2.42446e+07 1.60255e+07
87 2 5.55 -5.55 -7.4 8.94699e+06 8.9629e+06 1.57921e+06 5.69758 -76.1271 -10.6536 3.8302e+07 3.39805e+07
88 2 5.55 -7.4 -5.55 8.94699e+06 2.9424e+06 8.00602e+06 -76.1271 5.69758 -203168 4.87063e+07 2.84958e+07
89 2 3.7 -5.55 -5.55 7.0328e+06 7.04884e+06 7.04884e+06 -1.22752e-10 -1.80364e-10 11.3952 5.52594e+07 4.13597e+07
90 2 7.4 -7.4 -7.4 9.01417e+06 5.33081e+06 5.33081e+06 -234881 -234881 437658 3.27059e+07 2.23533e+07
91 2 9.25 -5.55 -7.4 -3.72415e+07 8.92727e+06 2.59643e+06 202150 -2.67433e+06 410.266 3.054e+08 553208
92 2 9.25 -7.4 -5.55 -3.71115e+07 4.41461e+06 8.30002e+06 209252 -2.68462e+06 -595051 3.11994e+08 -2.57677e+06
93 2 7.4 -5.55 -5.55 4.3056e+06 8.006e+06 8.006e+06 203168 203168 11.3952 5.71587e+07 3.97342e+07
94 2 -9.25 -1.85 -7.4 -3.8589e+07 9.81175e+06 2.59764e+06 938.625 2.67327e+06 -0.152415 2.62218e+08 3.55274e+06
95 2 -9.25 -3.7 -5.55 -3.92856e+07 7.59929e+06 8.62709e+06 -202219 3.09453e+06 -5.33734e-10 3.07753e+08 -4.49743e+06
96 2 -7.4 -3.7 -7.4 3.93357e+06 1.08607e+07 3.93357e+06 -37.6873 439719 -37.6873 4.90341e+07 3.59418e+07
97 2 -5.55 -1.85 -7.4 8.9629e+06 8.94677e+06 1.57936e+06 5.69758 -10.6536 -43.3849 4.57881e+07 2.87599e+07
98 2 -5.55 -3.7 -5.55 7.0488e+06 7.03283e+06 7.04884e+06 5.69758 11.3952 -1.24517e-09 6.36484e+07 3.61378e+07
99 2 -7.4 -1.85 -5.55 4.30578e+06 7.98985e+06 8.00602e+06 -203195 -203168 5.69758 6.71434e+07 3.97095e+07
100 2 -3.7 -3.7 -7.4 8.94683e+06 8.94683e+06 1.57944e+06 2.47819e-10 -37.6873 -37.6873 5.39164e+07 3.96722e+07
101 2 -1.85 -1.85 -7.4 8.9468e+06 8.9468e+06 1.57952e+06 7.11509e-10 -43.3849 -43.3849 5.02102e+07 2.87606e+07
102 2 -1.85 -3.7 -5.55 7.03288e+06 7.03286e+06 7.04887e+06 1.77914e-10 5.69758 -1.51738e-09 6.56684e+07 3.61386e+07
103 2 -3.7 -1.85 -5.55 7.03286e+06 7.03288e+06 7.04887e+06 1.77877e-10 -3.20797e-10 5.69758 7.50754e+07 4.13434e+07
104 2 0 -3.7 -7.4 8.94683e+06 8.94683e+06 1.57944e+06 -1.76071e-09 -37.6873 -37.6873 4.73084e+07 3.39655e+07
105 2 1.85 -1.85 -7.4 8.9468e+06 8.9468e+06 1.57952e+06 7.11509e-10 -43.3849 -43.3849 5.02102e+07 2.87605e+07
106 2 1.85 -3.7 -5.55 7.03288e+06 7.03286e+06 7.04887e+06 -3.55633e-10 5.69758 -1.06261e-09 6.46662e+07 4.08417e+07
107 2 0 -1.85 -5.55 7.03286e+06 7.03288e+06 7.04887e+06 -2.4722e-09 -1.76075e-09 5.69758 6.98691e+07 4.08417e+07
108 2 3.7 -3.7 -7.4 8.94683e+06 8.94683e+06 1.57944e+06 -3.90727e-10 -37.6873 -37.6873 4.73082e+07 3.39654e+07
109 2 5.55 -1.85 -7.4 8.94702e+06 8.9468e+06 1.57936e+06 -1.06726e-09 -76.1271 -43.3849 5.02101e+07 2.87599e+07
110 2 5.55 -3.7 -5.55 7.03292e+06 7.03283e+06 7.04887e+06 -5.69758 5.69758 -1.61302e-09 6.46675e+07 4.0841e+07
111 2 3.7 -1.85 -5.55 7.03286e+06 7.03288e+06 7.04887e+06 1.42904e-10 1.42853e-10 5.69758 6.9869e+07 4.08416e+07
112 2 7.4 -3.7 -7.4 6.66001e+06 9.90383e+06 2.97665e+06 203201 -236735 -141.354 4.74172e+07 3.23308e+07
113 2 9.25 -1.85 -7.4 -3.72416e+07 8.85481e+06 2.59764e+06 202219 -2.67411e+06 -147.199 3.42868e+08 7.50706e+07
114 2 9.25 -3.7 -5.55 -3.79382e+07 7.59929e+06 7.67018e+06 202219 -2.89137e+06 -1.15624e-09 3.15806e+08 447475
115 2 7.4 -1.85 -5.55 4.30578e+06 7.98985e+06 8.00602e+06 203195 203168 5.69758 7.76825e+07 4.50447e+07
116 2 -9.25 1.85 -7.4 -3.8589e+07 9.81175e+06 2.59764e+06 938.625 2.67327e+06 -0.152415 2.56993e+08 3.22923e+06
117 2 -9.25 0 -5.55 -3.92856e+07 7.5993e+06 8.62709e+06 -202219 3.09453e+06 1.992e-10 3.1649e+08 729353
118 2 -7.4 0 -7.4 3.93357e+06 1.08607e+07 3.93357e+06 -37.6873 439719 -37.6873 4.33899e+07 3.53529e+07
119 2 -5.55 1.85 -7.4 8.9629e+06 8.94677e+06 1.57936e+06 5.69758 -10.6536 -43.3849 4.0582e+07 2.35536e+07
120 2 -5.55 0 -5.55 7.0488e+06 7.03283e+06 7.04884e+06 5.69758 11.3952 -3.14986e-09 5.47438e+07 3.61379e+07
121 2 -7.4 1.85 -5.55 4.30578e+06 7.98985e+06 8.00602e+06 -203195 -203168 5.69758 6.73351e+07 3.97095e+07
122 2 -3.7 0 -7.4 8.94683e+06 8.94683e+06 1.57944e+06 -1.74322e-09 -37.6873 -37.6873 3.24735e+07 2.35555e+07
123 2 -1.85 1.85 -7.4 8.9468e+06 8.9468e+06 1.57952e+06 7.11509e-10 -43.3849 -43.3849 4.30034e+07 2.35556e+07
124 2 -1.85 0 -5.55 7.03288e+06 7.03286e+06 7.04887e+06 -1.97443e-09 5.69758 -3.0983e-09 4.4897e+07 3.09336e+07
125 2 -3.7 1.85 -5.55 7.03286e+06 7.03288e+06 7.04887e+06 -0 -3.4973e-11 5.69758 6.4665e+07 3.61385e+07
126 2 0 0 -7.4 8.94683e+06 8.94683e+06 1.57944e+06 -3.67308e-09 -37.6873 -37.6873 2.6487e+07 2.35556e+07
127 2 1.85 1.85 -7.4 8.9468e+06 8.9468e+06 1.57952e+06 3.15974e-25 -43.3849 -43.3849 4.30034e+07 2.87605e+07
128 2 1.85 0 -5.55 7.03288e+06 7.03286e+06 7.04887e+06 -3.10301e-09 5.69758 -2.74286e-09 5.01028e+07 3.61386e+07
129 2 0 1.85 -5.55 7.03286e+06 7.03288e+06 7.04887e+06 -2.09897e-09 -1.2096e-09 5.69758 5.99612e+07 3.61386e+07
130 2 3.7 0 -7.4 8.94683e+06 8.94683e+06 1.57944e+06 -2.064e-09 -37.6873 -37.6873 3.1692e+07 2.87607e+07
131 2 5.55 1.85 -7.4 8.94702e+06 8.9468e+06 1.57936e+06 -3.55755e-10 -76.1271 -43.3849 4.30029e+07 2.87599e+07
132 2 5.55 0 -5.55 7.03292e+06 7.03283e+06 7.04887e+06 -5.69758 5.69758 -2.7589e-09 5.53931e+07 4.14275e+07
133 2 3.7 1.85 -5.55 7.03286e+06 7.03288e+06 7.04887e+06 -7.11509e-10 -3.55784e-10 5.69758 5.99612e+07 3.61386e+07
134 2 7.4 0 -7.4 6.66001e+06 9.90383e+06 2.97665e+06 203201 -236735 -141.354 1.16658e+08 1.0689e+08
135 2 9.25 1.85 -7.4 -3.72416e+07 8.85481e+06 2.59764e+06 202219 -2.67411e+06 -147.199 3.30647e+08 7.50689e+07
136 2 9.25 0 -5.55 -3.79382e+07 7.5993e+06 7.67018e+06 202219 -2.89137e+06 -2.09088e-09 3.19675e+08 936325
137 2 7.4 1.85 -5.55 4.30578e+06 7.98985e+06 8.00602e+06 203195 203168 5.69758 6.69436e+07 4.45235e+07
138 2 -9.25 5.55 -7.4 -3.85889e+07 9.81408e+06 2.59643e+06 718.517 2.67349e+06 -558.249 2.56994e+08 3.22388e+06
139 2 -9.25 3.7 -5.55 -3.92856e+07 7.5993e+06 8.62709e+06 -202219 3.09453e+06 -1.58784e-09 3.1649e+08 729366
140 2 -7.4 3.7 -7.4 3.93357e+06 1.08607e+07 3.93357e+06 -37.6873 439719 -37.6873 4.33899e+07 3.53529e+07
141 2 -5.55 5.55 -7.4 8.9629e+06 8.94699e+06 1.57921e+06 5.69758 -10.6536 -76.1271 4.0582e+07 2.35535e+07
142 2 -5.55 3.7 -5.55 7.0488e+06 7.03283e+06 7.04884e+06 5.69758 11.3952 -1.24763e-09 5.47438e+07 3.61379e+07
143 2 -7.4 5.55 -5.55 4.30578e+06 7.98985e+06 8.00602e+06 -203195 -203168 5.69758 6.73351e+07 3.97095e+07
144 2 -3.7 3.7 -7.4 8.94683e+06 8.94683e+06 1.57944e+06 -3.90727e-10 -37.6873 -37.6873 3.24735e+07 2.35555e+07
145 2 -1.85 5.55 -7.4 8.9468e+06 8.94702e+06 1.57936e+06 -8.89387e-10 -43.3849 -76.1271 4.30034e+07 2.35555e+07
146 2 -1.85 3.7 -5.55 7.03288e+06 7.03286e+06 7.04887e+06 6.7413e-10 5.69758 -2.06766e-09 4.4897e+07 3.09337e+07
147 2 -3.7 5.55 -5.55 7.03286e+06 7.03288e+06 7.04887e+06 -0 1.77866e-10 5.69758 6.4665e+07 3.61385e+07
148 2 0 3.7 -7.4 8.94683e+06 8.94683e+06 1.57944e+06 -2.73179e-09 -37.6873 -37.6873 2.6487e+07 2.35556e+07
149 2 1.85 5.55 -7.4 8.9468e+06 8.94702e+06 1.57936e+06 -5.33632e-10 -43.3849 -76.1271 4.30034e+07 2.87604e+07
150 2 1.85 3.7 -5.55 7.03288e+06 7.03286e+06 7.04887e+06 9.66676e-11 5.69758 -2.05048e-09 5.01028e+07 3.61386e+07
151 2 0 5.55 -5.55 7.03286e+06 7.03288e+06 7.04887e+06 -1.30875e-09 -1.48671e-09 5.69758 5.99612e+07 3.61386e+07
152 2 3.7 3.7 -7.4 8.94683e+06 8.94683e+06 1.57944e+06 -9.97318e-10 -37.6873 -37.6873 3.1692e+07 2.87607e+07
153 2 5.55 5.55 -7.4 8.94702e+06 8.94702e+06 1.57921e+06 -5.33632e-10 -76.1271 -76.1271 4.30029e+07 2.87597e+07
154 2 5.55 3.7 -5.55 7.03292e+06 7.03283e+06 7.04887e+06 -5.69758 5.69758 -2.23876e-09 5.48914e+07 4.09257e+07
155 2 3.7 5.55 -5.55 7.03286e+06 7.03288e+06 7.04887e+06 -5.33632e-10 -5.33665e-10 5.69758 5.99612e+07 3.61386e+07
156 2 7.4 3.7 -7.4 6.66001e+06 9.90383e+06 2.97665e+06 203201 -236735 -141.354 1.16658e+08 1.0689e+08
157 2 9.25 5.55 -7.4 -3.72414e+07 8.85714e+06 2.59643e+06 202439 -2.67433e+06 -705.296 3.30647e+08 7.50633e+07
158 2 9.25 3.7 -5.55 -3.79382e+07 7.5993e+06 7.67018e+06 202219 -2.89137e+06 -1.64555e-09 3.19173e+08 434528
159 2 7.4 5.55 -5.55 4.30578e+06 7.98985e+06 8.00602e+06 203195 203168 5.69758 6.69436e+07 4.45235e+07
160 2 -9.25 9.25 -7.4 -3.68317e+07 -3.69018e+07 2.53347e+06 -657994 1.44586e+06 -1.45231e+06 2.19994e+08 -5.63787e+07
161 2 -9.25 7.4 -5.55 -3.94153e+07 5.77735e+06 9.25692e+06 7906.89 2.88778e+06 594904 3.05258e+08 -6.155e+06
162 2 -7.4 7.4 -7.4 5.33081e+06 9.01417e+06 5.33081e+06 -234881 437658 -234881 3.79092e+07 2.34386e+07
163 2 -5.55 9.25 -7.4 8.92716e+06 -3.72415e+07 2.59643e+06 202193 410.267 -2.67433e+06 2.12629e+06 -7.12112e+07
164 2 -5.55 7.4 -5.55 7.04886e+06 5.66898e+06 8.006e+06 49.0934 11.3952 203168 3.90304e+07 1.72479e+07
165 2 -7.4 9.25 -5.55 3.45744e+06 -3.5748e+07 8.30002e+06 6126.91 -595051 -2.68462e+06 2.64833e+07 -6.84615e+07
166 2 -3.7 7.4 -7.4 9.90383e+06 6.66001e+06 2.97665e+06 203201 -141.354 -236735 1.89083e+07 8.88247e+06
167 2 -1.85 9.25 -7.4 8.85481e+06 -3.72416e+07 2.59764e+06 202219 -147.199 -2.67411e+06 6.71182e+06 -7.11871e+07
168 2 -1.85 7.4 -5.55 7.03294e+06 5.669e+06 8.00602e+06 43.3849 5.69758 203168 3.19517e+07 1.11439e+07
169 2 -3.7 9.25 -5.55 6.64234e+06 -3.6575e+07 7.67018e+06 -938.625 -2.66818e-10 -2.89137e+06 2.78171e+07 -6.9461e+07
170 2 0 7.4 -7.4 9.90383e+06 6.66001e+06 2.97665e+06 203201 -141.354 -236735 1.66808e+07 8.88258e+06
171 2 1.85 9.25 -7.4 8.85481e+06 -3.72416e+07 2.59764e+06 202219 -147.199 -2.67411e+06 1.19167e+07 -6.59822e+07
172 2 1.85 7.4 -5.55 7.03294e+06 5.669e+06 8.00602e+06 43.3849 5.69758 203168 3.71575e+07 1.63488e+07
173 2 0 9.25 -5.55 6.64235e+06 -3.6575e+07 7.67018e+06 -938.625 -1.77933e-09 -2.89137e+06 2.17055e+07 -7.55679e+07
174 2 3.7 7.4 -7.4 9.90383e+06 6.66001e+06 2.97665e+06 203201 -141.354 -236735 2.18859e+07 1.40876e+07
175 2 5.55 9.25 -7.4 8.85714e+06 -3.72414e+07 2.59643e+06 202439 -705.296 -2.67433e+06 1.19163e+07 -6.59868e+07
176 2 5.55 7.4 -5.55 7.03297e+06 5.66898e+06 8.00602e+06 37.6873 5.69758 203168 4.19448e+07 2.1134e+07
177 2 3.7 9.25 -5.55 6.64235e+06 -3.6575e+07 7.67018e+06 -938.625 -1.46747e-09 -2.89137e+06 2.17054e+07 -7.55678e+07
178 2 7.4 7.4 -7.4 7.61703e+06 7.61703e+06 4.37389e+06 404325 -235816 -235816 1.10239e+08 1.00591e+08
179 2 9.25 9.25 -7.4 -3.69356e+07 -3.69357e+07 2.53347e+06 -1.93629e+06 -1.4535e+06 -1.4535e+06 2.2456e+08 -5.62184e+07
180 2 9.25 7.4 -5.55 -3.80679e+07 5.77735e+06 8.30002e+06 -7065.55 -2.68462e+06 595051 3.01355e+08 -6.45198e+06
181 2 7.4 9.25 -5.55 3.45745e+06 -3.5748e+07 8.30002e+06 -7065.54 595051 -2.68462e+06 2.64449e+07 -6.84512e+07
182 2 -9.25 -9.25 -3.7 -3.7325e+07 -3.73249e+07 6.19289e+06 2.80458e+06 1.07288e+06 1.07288e+06 2.75868e+08 -6.23547e+07
183 2 -5.55 -9.25 -3.7 8.62684e+06 -3.92856e+07 7.59941e+06 816.204 61.4499 2.8915e+06 2.12166e+07 -6.13848e+07
184 2 -7.4 -9.25 -1.85 6.73584e+06 -4.0779e+07 9.18425e+06 -210284 -595400 2.88768e+06 3.41534e+07 -6.64917e+07
185 2 -1.85 -9.25 -3.7 8.5565e+06 -3.92857e+07 7.59954e+06 938.625 1.11192e-09 2.89148e+06 1.73314e+07 -6.42964e+07
186 2 -3.7 -9.25 -1.85 8.55649e+06 -4.06489e+07 8.5565e+06 938.615 1.77877e-10 3.09463e+06 4.11092e+07 -6.24637e+07
187 2 1.85 -9.25 -3.7 8.5565e+06 -3.92857e+07 7.59954e+06 938.625 9.79063e-10 2.89148e+06 1.75373e+07 -6.42973e+07
188 2 0 -9.25 -1.85 8.5565e+06 -4.06489e+07 8.5565e+06 938.625 1.09728e-09 3.09463e+06 4.10901e+07 -6.24619e+07
189 2 5.55 -9.25 -3.7 8.55685e+06 -3.92856e+07 7.59941e+06 872.039 -61.4499 2.8915e+06 1.23392e+07 -6.95069e+07
190 2 3.7 -9.25 -1.85 8.5565e+06 -4.06489e+07 8.5565e+06 938.634 -1.15622e-09 3.09463e+06 4.10901e+07 -6.24619e+07
191 2 9.25 -9.25 -3.7 -3.7395e+07 -3.73249e+07 6.19289e+06 -244180 -1.07288e+06 1.07288e+06 2.80248e+08 -6.2289e+07
192 2 7.4 -9.25 -1.85 6.73585e+06 -4.0779e+07 9.18425e+06 211222 595400 2.88768e+06 4.74353e+07 -5.83826e+07
193 2 -9.25 -5.55 -3.7 -3.92856e+07 8.62684e+06 7.59941e+06 816.204 2.8915e+06 61.4499 3.0717e+08 -6.84778e+06
194 2 -9.25 -7.4 -1.85 -3.84591e+07 4.41595e+06 9.18425e+06 -210284 2.88768e+06 -595400 2.62089e+08 -8.32102e+06
195 2 -7.4 -7.4 -3.7 3.93357e+06 3.93357e+06 1.08607e+07 439719 -37.6873 -37.6873 5.34721e+07 2.54719e+07
196 2 -5.55 -5.55 -3.7 7.0488e+06 7.0488e+06 7.03286e+06 11.3952 5.69758 5.69758 5.89448e+07 4.1359e+07
197 2 -5.55 -7.4 -1.85 8.9629e+06 2.94259e+06 7.98985e+06 -10.6536 5.69758 -203195 4.10848e+07 2.23959e+07
198 2 -7.4 -5.55 -1.85 4.30578e+06 8.00602e+06 7.98985e+06 -203168 -203195 5.69758 6.24401e+07 3.50227e+07
199 2 -3.7 -7.4 -3.7 8.94683e+06 1.57944e+06 8.94683e+06 -37.6873 -1.42904e-10 -37.6873 5.49139e+07 2.94201e+07
200 2 -1.85 -5.55 -3.7 7.03288e+06 7.04883e+06 7.03288e+06 5.69758 1.77881e-09 5.69758 5.00542e+07 3.61548e+07
201 2 -1.85 -7.4 -1.85 8.9468e+06 2.94274e+06 7.98988e+06 -43.3849 2.11098e-09 -203195 5.02103e+07 2.53013e+07
202 2 -3.7 -5.55 -1.85 7.03286e+06 7.04887e+06 7.03288e+06 -1.10243e-14 3.55755e-10 5.69758 7.0874e+07 4.18615e+07
203 2 0 -7.4 -3.7 8.94683e+06 1.57944e+06 8.94683e+06 -37.6873 -1.72574e-09 -37.6873 4.78085e+07 2.13112e+07
204 2 1.85 -5.55 -3.7 7.03288e+06 7.04883e+06 7.03288e+06 5.69758 4.0913e-09 5.69758 5.00559e+07 3.61548e+07
205 2 1.85 -7.4 -1.85 8.9468e+06 2.94274e+06 7.98988e+06 -43.3849 4.16344e-09 -203195 5.02103e+07 2.53013e+07
206 2 0 -5.55 -1.85 7.03286e+06 7.04887e+06 7.03288e+06 -2.13469e-09 -1.93857e-09 5.69758 6.56677e+07 3.66567e+07
207 2 3.7 -7.4 -3.7 8.94683e+06 1.57944e+06 8.94683e+06 -37.6873 -3.49728e-11 -37.6873 4.26045e+07 1.61063e+07
208 2 5.55 -5.55 -3.7 7.03292e+06 7.04883e+06 7.03286e+06 5.69758 -5.69758 5.69758 5.00562e+07 3.61538e+07
209 2 5.55 -7.4 -1.85 8.94702e+06 2.94259e+06 7.98988e+06 -76.1271 3.45764e-09 -203195 5.02101e+07 2.52997e+07
210 2 3.7 -5.55 -1.85 7.03286e+06 7.04887e+06 7.03288e+06 -1.77929e-10 -7.46482e-10 5.69758 6.56678e+07 3.66568e+07
211 2 7.4 -7.4 -3.7 6.66001e+06 2.97665e+06 9.90383e+06 -236735 203201 -141.354 4.74172e+07 2.24342e+07
212 2 9.25 -5.55 -3.7 -3.79382e+07 7.66993e+06 7.59941e+06 202347 -2.8915e+06 61.4499 3.11013e+08 -4.40671e+06
213 2 9.25 -7.4 -1.85 -3.71116e+07 4.41595e+06 8.22731e+06 209442 -2.68452e+06 -595547 3.38102e+08 7.43059e+07
214 2 7.4 -5.55 -1.85 4.30578e+06 8.00602e+06 7.98985e+06 203168 203195 5.69758 1.46897e+08 1.14277e+08
215 2 -9.25 -1.85 -3.7 -3.92857e+07 8.5565e+06 7.59954e+06 938.625 2.89148e+06 1.51214e-09 2.63312e+08 -1.42977e+06
216 2 -9.25 -3.7 -1.85 -3.92857e+07 7.59954e+06 8.5565e+06 -202219 3.09463e+06 6.22571e-10 2.6882e+08 -3.97308e+06
217 2 -7.4 -3.7 -3.7 1.57944e+06 8.94683e+06 8.94683e+06 -37.6873 -37.6873 1.77874e-10 6.82516e+07 3.7613e+07
218 2 -5.55 -1.85 -3.7 7.04883e+06 7.03288e+06 7.03288e+06 5.69758 5.69758 1.24518e-09 5.84432e+07 3.0933e+07
219 2 -5.55 -3.7 -1.85 7.04883e+06 7.03288e+06 7.03288e+06 5.69758 5.69758 1.42302e-09 5.94467e+07 3.66396e+07
220 2 -7.4 -1.85 -1.85 4.30596e+06 7.98988e+06 7.98988e+06 -203195 -203195 3.55755e-09 5.69154e+07 3.45043e+07
221 2 -3.7 -3.7 -3.7 7.03291e+06 7.03291e+06 7.03291e+06 -2.85816e-10 -0 7.34954e-15 7.03714e+07 4.13434e+07
222 2 -1.85 -1.85 -3.7 7.03291e+06 7.03291e+06 7.03291e+06 -1.57987e-25 1.50442e-09 1.42306e-09 6.46639e+07 3.09337e+07
223 2 -1.85 -3.7 -1.85 7.03291e+06 7.03291e+06 7.03291e+06 3.67477e-14 1.3265e-09 1.06726e-09 6.56675e+07 4.18453e+07
224 2 -3.7 -1.85 -1.85 7.03291e+06 7.03291e+06 7.03291e+06 -0 1.77877e-10 2.66816e-09 6.46651e+07 3.61385e+07
225 2 0 -3.7 -3.7 7.03291e+06 7.03291e+06 7.03291e+06 -2.43421e-09 -2.36427e-09 7.11502e-10 5.99623e+07 3.61386e+07
226 2 1.85 -1.85 -3.7 7.03291e+06 7.03291e+06 7.03291e+06 -1.57987e-25 4.26847e-09 2.4903e-09 6.46639e+07 3.09337e+07
227 2 1.85 -3.7 -1.85 7.03291e+06 7.03291e+06 7.03291e+06 -5.33511e-10 4.62411e-09 8.89387e-10 6.56675e+07 4.18453e+07
228 2 0 -1.85 -1.85 7.03291e+06 7.03291e+06 7.03291e+06 -2.31251e-09 -1.9036e-09 3.20179e-09 7.50752e+07 4.13436e+07
229 2 3.7 -3.7 -3.7 7.03291e+06 7.03291e+06 7.03291e+06 -3.90724e-10 1.77877e-10 1.77874e-10 5.99622e+07 3.61385e+07
230 2 5.55 -1.85 -3.7 7.03295e+06 7.03291e+06 7.03288e+06 -7.11509e-10 -5.69758 2.49032e-09 6.46648e+07 3.0933e+07
231 2 5.55 -3.7 -1.85 7.03295e+06 7.03288e+06 7.03291e+06 -5.69758 2.87459e-09 1.6009e-09 6.5158e+07 4.13346e+07
232 2 3.7 -1.85 -1.85 7.03291e+06 7.03291e+06 7.03291e+06 -3.55755e-10 -5.33632e-10 3.9133e-09 7.50754e+07 4.13437e+07
233 2 7.4 -3.7 -3.7 4.30589e+06 7.98991e+06 7.98991e+06 203201 203201 -3.55755e-10 5.69149e+07 3.45039e+07
234 2 9.25 -1.85 -3.7 -3.79383e+07 7.59955e+06 7.59954e+06 202219 -2.89148e+06 1.42316e-09 3.46077e+08 7.00841e+07
235 2 9.25 -3.7 -1.85 -3.79383e+07 7.59954e+06 7.59955e+06 202219 -2.89148e+06 7.11509e-10 3.41064e+08 7.52893e+07
236 2 7.4 -1.85 -1.85 4.30596e+06 7.98988e+06 7.98988e+06 203195 203195 3.73542e-09 1.56805e+08 1.19465e+08
237 2 -9.25 1.85 -3.7 -3.92857e+07 8.5565e+06 7.59954e+06 938.625 2.89148e+06 1.64609e-09 2.63101e+08 -1.75085e+06
238 2 -9.25 0 -1.85 -3.92857e+07 7.59955e+06 8.5565e+06 -202219 3.09463e+06 1.79377e-09 3.12684e+08 -9.59514e+06
239 2 -7.4 0 -3.7 1.57944e+06 8.94683e+06 8.94683e+06 -37.6873 -37.6873 -2.16892e-09 5.31725e+07 3.24068e+07
240 2 -5.55 1.85 -3.7 7.04883e+06 7.03288e+06 7.03288e+06 5.69758 5.69758 3.91342e-09 5.3323e+07 2.58127e+07
241 2 -5.55 0 -1.85 7.04883e+06 7.03288e+06 7.03288e+06 5.69758 5.69758 -8.71308e-10 6.41499e+07 4.13428e+07
242 2 -7.4 1.85 -1.85 4.30596e+06 7.98988e+06 7.98988e+06 -203195 -203195 5.86995e-09 6.74101e+07 3.45888e+07
243 2 -3.7 0 -3.7 7.03291e+06 7.03291e+06 7.03291e+06 -2.45471e-09 1.77877e-10 -2.09897e-09 5.06028e+07 3.09337e+07
244 2 -1.85 1.85 -3.7 7.03291e+06 7.03291e+06 7.03291e+06 -5.33632e-10 2.21591e-09 3.91342e-09 5.9459e+07 3.09337e+07
245 2 -1.85 0 -1.85 7.03291e+06 7.03291e+06 7.03291e+06 -2.31235e-09 1.6009e-09 -1.59798e-10 5.99622e+07 3.61386e+07
246 2 -3.7 1.85 -1.85 7.03291e+06 7.03291e+06 7.03291e+06 -0 1.77877e-10 5.86995e-09 7.50753e+07 4.13435e+07
247 2 0 0 -3.7 7.03291e+06 7.03291e+06 7.03291e+06 -4.16869e-09 -2.3293e-09 -2.13464e-09 4.48959e+07 3.09337e+07
248 2 1.85 1.85 -3.7 7.03291e+06 7.03291e+06 7.03291e+06 1.77877e-10 3.93019e-09 4.26917e-09 5.9459e+07 3.09337e+07
249 2 1.85 0 -1.85 7.03291e+06 7.03291e+06 7.03291e+06 -2.66804e-09 4.80269e-09 -5.41769e-10 6.51688e+07 4.13436e+07
250 2 0 1.85 -1.85 7.03291e+06 7.03291e+06 7.03291e+06 -2.31252e-09 -1.8861e-09 5.69207e-09 6.46655e+07 4.13436e+07
251 2 3.7 0 -3.7 7.03291e+06 7.03291e+06 7.03291e+06 -2.48968e-09 -4.98659e-10 -1.7789e-09 4.48961e+07 3.09338e+07
252 2 5.55 1.85 -3.7 7.03295e+06 7.03291e+06 7.03288e+06 -8.89387e-10 -5.69758 4.44706e-09 5.94599e+07 3.0933e+07
253 2 5.55 0 -1.85 7.03295e+06 7.03288e+06 7.03291e+06 -5.69758 3.55755e-09 -3.28937e-10 6.51608e+07 4.13342e+07
254 2 3.7 1.85 -1.85 7.03291e+06 7.03291e+06 7.03291e+06 -5.33628e-10 -1.03229e-09 6.40358e-09 6.98703e+07 4.13435e+07
255 2 7.4 0 -3.7 4.30589e+06 7.98991e+06 7.98991e+06 203201 203201 -1.95677e-09 1.26161e+08 1.09063e+08
256 2 9.25 1.85 -3.7 -3.79383e+07 7.59955e+06 7.59954e+06 202219 -2.89148e+06 1.46816e-09 3.35874e+08 7.01064e+07
257 2 9.25 0 -1.85 -3.79383e+07 7.59955e+06 7.59955e+06 202219 -2.89148e+06 4.44693e-10 3.21006e+08 730720
258 2 7.4 1.85 -1.85 4.30596e+06 7.98988e+06 7.98988e+06 203195 203195 5.86995e-09 6.68321e+07 3.97091e+07
259 2 -9.25 5.55 -3.7 -3.92857e+07 8.55675e+06 7.59941e+06 915.458 2.8915e+06 -61.4499 2.63102e+08 -1.75122e+06
260 2 -9.25 3.7 -1.85 -3.92857e+07 7.59955e+06 8.5565e+06 -202219 3.09463e+06 -2.47954e-10 3.12684e+08 -9.59497e+06
261 2 -7.4 3.7 -3.7 1.57944e+06 8.94683e+06 8.94683e+06 -37.6873 -37.6873 -3.90727e-10 5.31725e+07 3.24068e+07
262 2 -5.55 5.55 -3.7 7.04883e+06 7.03292e+06 7.03286e+06 5.69758 5.69758 -5.69758 5.3323e+07 2.58127e+07
263 2 -5.55 3.7 -1.85 7.04883e+06 7.03288e+06 7.03288e+06 5.69758 5.69758 8.54414e-10 6.41499e+07 4.13428e+07
264 2 -7.4 5.55 -1.85 4.30596e+06 7.98988e+06 7.98988e+06 -203195 -203195 4.26906e-09 6.74101e+07 3.45888e+07
265 2 -3.7 3.7 -3.7 7.03291e+06 7.03291e+06 7.03291e+06 -3.20782e-10 -1.77874e-10 -1.77877e-10 5.06028e+07 3.09337e+07
266 2 -1.85 5.55 -3.7 7.03291e+06 7.03295e+06 7.03288e+06 -8.89387e-10 1.73474e-09 -5.69758 5.9459e+07 3.09337e+07
267 2 -1.85 3.7 -1.85 7.03291e+06 7.03291e+06 7.03291e+06 3.55799e-10 2.13453e-09 8.54414e-10 5.99622e+07 3.61386e+07
268 2 -3.7 5.55 -1.85 7.03291e+06 7.03291e+06 7.03291e+06 -5.4308e-26 2.12846e-10 5.69207e-09 7.50753e+07 4.13435e+07