ITEM: TIMESTEP
0
ITEM: NUMBER OF ATOMS
665
ITEM: BOX BOUNDS xy xz yz pp pp pp
-1.0000000000000000e+01 1.0000000000000000e+01 0.0000000000000000e+00
-1.0000000000000000e+01 1.0000000000000000e+01 0.0000000000000000e+00
-1.0000000000000000e+01 1.0000000000000000e+01 0.0000000000000000e+00
ITEM: ATOMS id type x y z c_1[1] c_1[2] c_1[3] c_1[4] c_1[5] c_1[6] c_1[7] c_1[22]
1 2 -7.4 -9.25 -9.25 6.75368e+06 -4.02285e+07 -3.99599e+07 -812081 663396 6.28695e+06 8.84421e+06 -2.32413e+07
2 2 -3.7 -9.25 -9.25 5.96854e+06 -4.10361e+07 -4.04881e+07 11158.6 11158.6 6.94043e+06 7.39217e+06 -2.30532e+07
3 2 0 -9.25 -9.25 5.95494e+06 -4.10362e+07 -4.04882e+07 10973.9 10973.9 6.94043e+06 1.60146e+07 -1.5716e+07
4 2 3.7 -9.25 -9.25 5.95585e+06 -4.10361e+07 -4.04881e+07 10789.3 10789.3 6.94043e+06 1.60405e+07 -1.57268e+07
5 2 7.4 -9.25 -9.25 6.741e+06 -4.02285e+07 -3.99599e+07 823055 -652422 6.28695e+06 2.00368e+07 -1.41892e+07
6 2 -9.25 -7.4 -9.25 -3.77932e+07 4.3189e+06 -3.99599e+07 -812265 4.83657e+06 2.11385e+06 3.66247e+08 2.01735e+07
7 2 -5.55 -7.4 -9.25 8.1197e+06 3.07114e+06 -4.20263e+07 5562.99 6425.57 4.31051e+06 4.92187e+07 4.64277e+07
8 2 -7.4 -5.55 -9.25 4.68781e+06 7.29879e+06 -4.20263e+07 -392316 1.26508e+06 3.05186e+06 6.05692e+07 6.06444e+07
9 2 -1.85 -7.4 -9.25 7.95943e+06 3.06609e+06 -4.20308e+07 -0.152206 938.625 4.30624e+06 6.10241e+07 5.10458e+07
10 2 -3.7 -5.55 -9.25 4.69179e+06 4.84398e+06 -4.30936e+07 2.57311e-10 938.943 3.09584e+06 7.06434e+07 6.95461e+07
11 2 1.85 -7.4 -9.25 7.95943e+06 3.06609e+06 -4.20308e+07 -0.152206 938.625 4.30624e+06 6.83911e+07 5.83996e+07
12 2 0 -5.55 -9.25 4.69157e+06 4.84398e+06 -4.30936e+07 1.10614e-11 938.625 3.09584e+06 7.27754e+07 7.1047e+07
13 2 5.55 -7.4 -9.25 7.96895e+06 3.07114e+06 -4.20263e+07 -5563.93 -4737.33 4.31051e+06 6.83271e+07 5.83744e+07
14 2 3.7 -5.55 -9.25 4.69157e+06 4.84398e+06 -4.30936e+07 -1.35998e-09 938.307 3.09584e+06 7.27802e+07 7.10461e+07
15 2 9.25 -7.4 -9.25 -3.79439e+07 4.3189e+06 -3.99599e+07 805816 -2.2762e+06 2.11385e+06 3.82895e+08 2.89461e+07
16 2 7.4 -5.55 -9.25 4.68759e+06 7.29879e+06 -4.20263e+07 392316 -1.26414e+06 3.05186e+06 7.01209e+07 6.87831e+07
17 2 -9.25 -3.7 -9.25 -3.9419e+07 5.14725e+06 -4.04881e+07 -386721 5.44179e+06 1.50986e+06 3.71845e+08 2.68832e+07
18 2 -5.55 -3.7 -9.25 4.84376e+06 4.69194e+06 -4.30936e+07 32.9765 2146.88 3.09463e+06 6.35809e+07 5.98763e+07
19 2 -7.4 -1.85 -9.25 4.68291e+06 7.13831e+06 -4.20308e+07 -397846 1.26081e+06 3.04637e+06 7.95622e+07 6.8595e+07
20 2 -1.85 -3.7 -9.25 4.69062e+06 4.69084e+06 -4.30946e+07 2.40153e-09 938.625 3.09463e+06 7.42966e+07 6.3406e+07
21 2 -3.7 -1.85 -9.25 4.69084e+06 4.69062e+06 -4.30946e+07 1.42302e-09 938.943 3.09463e+06 8.69822e+07 6.79885e+07
22 2 1.85 -3.7 -9.25 4.69062e+06 4.69084e+06 -4.30946e+07 -1.86697e-09 938.625 3.09463e+06 8.10145e+07 7.01106e+07
23 2 0 -1.85 -9.25 4.69062e+06 4.69062e+06 -4.30946e+07 -1.43873e-09 938.625 3.09463e+06 8.61995e+07 6.72073e+07
24 2 5.55 -3.7 -9.25 4.69303e+06 4.69194e+06 -4.30936e+07 -32.9765 -458.635 3.09463e+06 8.09721e+07 7.01064e+07
25 2 3.7 -1.85 -9.25 4.69062e+06 4.69062e+06 -4.30946e+07 -5.33632e-10 938.307 3.09463e+06 8.61991e+07 6.72069e+07
26 2 9.25 -3.7 -9.25 -3.95698e+07 5.14725e+06 -4.04881e+07 386721 -2.88139e+06 1.50986e+06 3.87588e+08 3.47542e+07
27 2 7.4 -1.85 -9.25 4.6827e+06 7.13831e+06 -4.20308e+07 397846 -1.25987e+06 3.04637e+06 9.12233e+07 7.21482e+07
28 2 -9.25 0 -9.25 -3.94191e+07 5.13366e+06 -4.04882e+07 -386905 5.44179e+06 1.50968e+06 3.78338e+08 3.50106e+07
29 2 -5.55 0 -9.25 4.84376e+06 4.69173e+06 -4.30936e+07 32.9765 2146.88 3.09463e+06 6.11587e+07 6.27802e+07
30 2 -7.4 1.85 -9.25 4.68291e+06 7.13831e+06 -4.20308e+07 -397846 1.26081e+06 3.04637e+06 7.94821e+07 6.85209e+07
31 2 -1.85 0 -9.25 4.69062e+06 4.69062e+06 -4.30946e+07 3.96891e-10 938.625 3.09463e+06 5.51558e+07 5.46756e+07
32 2 -3.7 1.85 -9.25 4.69084e+06 4.69062e+06 -4.30946e+07 -6.22571e-10 938.943 3.09463e+06 7.45645e+07 6.27841e+07
33 2 1.85 0 -9.25 4.69062e+06 4.69062e+06 -4.30946e+07 2.03703e-09 938.625 3.09463e+06 6.03695e+07 5.98808e+07
34 2 0 1.85 -9.25 4.69062e+06 4.69062e+06 -4.30946e+07 2.73719e-09 938.625 3.09463e+06 7.1666e+07 5.98809e+07
35 2 5.55 0 -9.25 4.69303e+06 4.69173e+06 -4.30936e+07 -32.9765 -458.635 3.09463e+06 6.76129e+07 6.71666e+07
36 2 3.7 1.85 -9.25 4.69062e+06 4.69062e+06 -4.30946e+07 -8.89386e-11 938.307 3.09463e+06 7.16659e+07 5.98809e+07
37 2 9.25 0 -9.25 -3.95699e+07 5.13366e+06 -4.04882e+07 386905 -2.88139e+06 1.50968e+06 3.82924e+08 3.17099e+07
38 2 7.4 1.85 -9.25 4.6827e+06 7.13831e+06 -4.20308e+07 397846 -1.25987e+06 3.04637e+06 8.41065e+07 7.22393e+07
39 2 -9.25 3.7 -9.25 -3.94191e+07 5.13412e+06 -4.04881e+07 -386907 5.44179e+06 1.5095e+06 3.78339e+08 3.5011e+07
40 2 -5.55 3.7 -9.25 4.84376e+06 4.69173e+06 -4.30936e+07 32.9765 2146.88 3.09463e+06 6.11588e+07 6.27803e+07
41 2 -7.4 5.55 -9.25 4.68943e+06 7.14577e+06 -4.20263e+07 -403116 1.26507e+06 3.0407e+06 7.94803e+07 6.852e+07
42 2 -1.85 3.7 -9.25 4.69062e+06 4.69062e+06 -4.30946e+07 -8.40399e-10 938.625 3.09463e+06 5.51559e+07 5.46757e+07
43 2 -3.7 5.55 -9.25 4.6921e+06 4.69281e+06 -4.30936e+07 1.80324e-18 938.943 3.09324e+06 7.45763e+07 6.27968e+07
44 2 1.85 3.7 -9.25 4.69062e+06 4.69062e+06 -4.30946e+07 -1.68546e-09 938.625 3.09463e+06 6.03696e+07 5.98809e+07
45 2 0 5.55 -9.25 4.69188e+06 4.69281e+06 -4.30936e+07 2.10564e-10 938.625 3.09324e+06 7.16657e+07 5.98815e+07
46 2 5.55 3.7 -9.25 4.69303e+06 4.69173e+06 -4.30936e+07 -32.9765 -458.635 3.09463e+06 6.77325e+07 6.72862e+07
47 2 3.7 5.55 -9.25 4.69188e+06 4.69281e+06 -4.30936e+07 -9.78325e-10 938.307 3.09324e+06 7.16656e+07 5.98815e+07
48 2 9.25 3.7 -9.25 -3.95699e+07 5.13412e+06 -4.04881e+07 386907 -2.88139e+06 1.5095e+06 3.8223e+08 3.10152e+07
49 2 7.4 5.55 -9.25 4.68922e+06 7.14577e+06 -4.20263e+07 403116 -1.26413e+06 3.0407e+06 8.41047e+07 7.22385e+07
50 2 -9.25 7.4 -9.25 -3.861e+07 5.91766e+06 -3.99599e+07 425471 4.78836e+06 846169 3.61357e+08 2.55015e+07
51 2 -5.55 7.4 -9.25 6.47561e+06 6.30588e+06 -4.20263e+07 -5235.5 6419.19 1.7813e+06 4.42731e+07 4.46894e+07
52 2 -7.4 9.25 -9.25 3.49556e+06 -3.63254e+07 -3.99599e+07 408231 615261 -777606 2.27678e+07 -2.6235e+07
53 2 -1.85 7.4 -9.25 6.31718e+06 6.29952e+06 -4.20308e+07 0.152206 938.625 1.78556e+06 4.11312e+07 3.56915e+07
54 2 -3.7 9.25 -9.25 4.32552e+06 -3.79528e+07 -4.04881e+07 -10975.2 11158.6 -1.38276e+06 2.54872e+07 -2.14452e+07
55 2 1.85 7.4 -9.25 6.31718e+06 6.29952e+06 -4.20308e+07 0.152206 938.625 1.78556e+06 4.63442e+07 4.08965e+07
56 2 0 9.25 -9.25 4.31238e+06 -3.79528e+07 -4.04882e+07 -10973.9 10973.9 -1.38276e+06 1.68821e+07 -3.04669e+07
57 2 5.55 7.4 -9.25 6.32486e+06 6.30588e+06 -4.20263e+07 5236.44 -4730.95 1.7813e+06 5.36922e+07 4.82816e+07
58 2 3.7 9.25 -9.25 4.31283e+06 -3.79528e+07 -4.04881e+07 -10972.6 10789.3 -1.38276e+06 1.68656e+07 -3.0467e+07
59 2 9.25 7.4 -9.25 -3.87607e+07 5.91766e+06 -3.99599e+07 -419022 -2.22799e+06 846169 3.68717e+08 2.15258e+07
60 2 7.4 9.25 -9.25 3.48287e+06 -3.63254e+07 -3.99599e+07 -419205 -604287 -777606 2.40389e+07 -2.6258e+07
61 2 -9.25 -9.25 -7.4 -3.69814e+07 -3.69806e+07 2.69593e+06 2.72327e+06 1.45073e+06 1.45073e+06 3.61531e+08 -2.69549e+07
62 2 -5.55 -9.25 -7.4 8.12032e+06 -3.9706e+07 751882 5914.77 6192.99 4.31e+06 4.01283e+07 7.90779e+06
63 2 -7.4 -9.25 -5.55 3.88254e+06 -4.25582e+07 6.48567e+06 609604 418138 3.7095e+06 5.52922e+07 1.4522e+07
64 2 -1.85 -9.25 -7.4 7.96069e+06 -3.971e+07 747458 938.625 -0.152206 4.30522e+06 3.57963e+07 -79585.1
65 2 -3.7 -9.25 -5.55 4.69179e+06 -4.30936e+07 4.84398e+06 938.943 -8.05641e-14 3.09584e+06 5.59354e+07 2.95873e+07
66 2 1.85 -9.25 -7.4 7.96069e+06 -3.971e+07 747458 938.625 -0.152206 4.30522e+06 3.66333e+07 -79756.8
67 2 0 -9.25 -5.55 4.69157e+06 -4.30936e+07 4.84398e+06 938.625 3.51571e-09 3.09584e+06 5.62596e+07 3.49113e+07
68 2 5.55 -9.25 -7.4 7.96958e+06 -3.9706e+07 751882 -4226.53 -6193.92 4.31e+06 3.65659e+07 -214115
69 2 3.7 -9.25 -5.55 4.69157e+06 -4.30936e+07 4.84398e+06 938.307 2.57332e-09 3.09584e+06 5.62641e+07 3.49112e+07
70 2 9.25 -9.25 -7.4 -3.71321e+07 -3.69806e+07 2.69593e+06 -162894 -1.45718e+06 1.45073e+06 3.71153e+08 -2.69661e+07
71 2 7.4 -9.25 -5.55 3.88233e+06 -4.25582e+07 6.48567e+06 -608665 -418138 3.7095e+06 6.21887e+07 2.06234e+07
72 2 -9.25 -5.55 -7.4 -3.9706e+07 8.12032e+06 751882 5914.77 4.31e+06 6192.99 3.98782e+08 4.90199e+07
73 2 -9.25 -7.4 -5.55 -4.02383e+07 1.56265e+06 6.48567e+06 609603 3.7095e+06 418138 4.06999e+08 6.03535e+07
74 2 -7.4 -7.4 -7.4 6.28774e+06 6.28774e+06 6.28774e+06 437865 437865 437865 9.28505e+07 5.7756e+07
75 2 -5.55 -5.55 -7.4 9.05824e+06 9.05824e+06 1.57922e+06 11.3952 -10.6536 -10.6536 8.93245e+07 7.2147e+07
76 2 -5.55 -7.4 -5.55 9.05824e+06 2.94241e+06 8.10136e+06 -10.6536 11.3952 -203168 9.35273e+07 5.47602e+07
77 2 -7.4 -5.55 -5.55 4.30561e+06 8.10136e+06 8.10136e+06 -203168 -203168 11.3952 1.00319e+08 6.69807e+07
78 2 -3.7 -7.4 -7.4 1.08608e+07 3.93358e+06 3.93358e+06 -37.6873 -37.6873 439719 8.73331e+07 5.64973e+07
79 2 -1.85 -5.55 -7.4 8.94677e+06 9.05826e+06 1.57937e+06 5.69758 -43.3849 -10.6536 8.70572e+07 6.69428e+07
80 2 -1.85 -7.4 -5.55 8.94677e+06 2.94257e+06 8.10138e+06 -43.3849 5.69758 -203168 9.69658e+07 5.55446e+07
81 2 -3.7 -5.55 -5.55 7.03281e+06 7.1442e+06 7.1442e+06 -6.51178e-11 1.77851e-10 11.3952 1.0984e+08 7.4321e+07
82 2 0 -7.4 -7.4 1.08607e+07 3.93358e+06 3.93358e+06 -37.6873 -37.6873 439719 7.31198e+07 4.83897e+07
83 2 1.85 -5.55 -7.4 8.94677e+06 9.05826e+06 1.57937e+06 5.69758 -43.3849 -10.6536 8.71786e+07 6.6441e+07
84 2 1.85 -7.4 -5.55 8.94677e+06 2.94257e+06 8.10138e+06 -43.3849 5.69758 -203168 9.75879e+07 6.08686e+07
85 2 0 -5.55 -5.55 7.0328e+06 7.1442e+06 7.1442e+06 -1.96983e-09 -1.90472e-09 11.3952 1.04134e+08 7.38193e+07
86 2 3.7 -7.4 -7.4 1.08607e+07 3.93358e+06 3.93358e+06 -37.6873 -37.6873 439719 7.31198e+07 4.83896e+07
87 2 5.55 -5.55 -7.4 8.94699e+06 9.05826e+06 1.57922e+06 5.69758 -76.1271 -10.6536 8.71772e+07 6.644e+07
88 2 5.55 -7.4 -5.55 8.94699e+06 2.94241e+06 8.10138e+06 -76.1271 5.69758 -203168 9.75815e+07 6.086e+07
89 2 3.7 -5.55 -5.55 7.0328e+06 7.1442e+06 7.1442e+06 -1.22752e-10 -1.80364e-10 11.3952 1.04135e+08 7.38192e+07
90 2 7.4 -7.4 -7.4 9.01417e+06 5.33082e+06 5.33082e+06 -234881 -234881 437658 8.15817e+07 5.47175e+07
91 2 9.25 -5.55 -7.4 -3.8454e+07 7.16342e+06 751882 197248 -4.31084e+06 6045.94 4.09838e+08 5.14146e+07
92 2 9.25 -7.4 -5.55 -3.89863e+07 1.56265e+06 5.52876e+06 -610445 -3.50633e+06 417991 4.17229e+08 6.61224e+07
93 2 7.4 -5.55 -5.55 4.3056e+06 8.10136e+06 8.10136e+06 203168 203168 11.3952 1.06035e+08 7.21938e+07
94 2 -9.25 -1.85 -7.4 -3.971e+07 7.96069e+06 747458 938.625 4.30522e+06 -0.152415 3.60319e+08 5.44565e+07
95 2 -9.25 -3.7 -5.55 -4.17304e+07 3.73484e+06 4.84398e+06 -202218 3.09584e+06 -7.11612e-10 4.07445e+08 8.22122e+07
96 2 -7.4 -3.7 -7.4 3.93358e+06 1.08608e+07 3.93358e+06 -37.6873 439719 -37.6873 9.79094e+07 6.8306e+07
97 2 -5.55 -1.85 -7.4 9.05826e+06 8.94677e+06 1.57937e+06 5.69758 -10.6536 -43.3849 8.83218e+07 6.11241e+07
98 2 -5.55 -3.7 -5.55 7.14416e+06 7.03284e+06 7.1442e+06 5.69758 11.3952 -1.24517e-09 1.06182e+08 6.8502e+07
99 2 -7.4 -1.85 -5.55 4.30579e+06 7.98985e+06 8.10138e+06 -203195 -203168 5.69758 1.16019e+08 7.20737e+07
100 2 -3.7 -3.7 -7.4 8.94684e+06 8.94684e+06 1.57945e+06 2.47819e-10 -37.6873 -37.6873 1.02791e+08 7.20363e+07
101 2 -1.85 -1.85 -7.4 8.9468e+06 8.9468e+06 1.57953e+06 7.11509e-10 -43.3849 -43.3849 9.90854e+07 6.11247e+07
102 2 -1.85 -3.7 -5.55 7.03288e+06 7.03286e+06 7.14423e+06 1.77914e-10 5.69758 -1.51738e-09 1.14544e+08 6.85027e+07
103 2 -3.7 -1.85 -5.55 7.03286e+06 7.03288e+06 7.14423e+06 1.77877e-10 -3.20797e-10 5.69758 1.2395e+08 7.37076e+07
104 2 0 -3.7 -7.4 8.94683e+06 8.94684e+06 1.57945e+06 -1.76071e-09 -37.6873 -37.6873 9.61836e+07 6.63297e+07
105 2 1.85 -1.85 -7.4 8.9468e+06 8.9468e+06 1.57953e+06 7.11509e-10 -43.3849 -43.3849 9.90854e+07 6.11247e+07
106 2 1.85 -3.7 -5.55 7.03288e+06 7.03286e+06 7.14423e+06 -3.55633e-10 5.69758 -1.06261e-09 1.13541e+08 7.32059e+07
107 2 0 -1.85 -5.55 7.03286e+06 7.03288e+06 7.14423e+06 -2.4722e-09 -1.76075e-09 5.69758 1.18744e+08 7.32059e+07
108 2 3.7 -3.7 -7.4 8.94683e+06 8.94684e+06 1.57945e+06 -3.90727e-10 -37.6873 -37.6873 9.61834e+07 6.63295e+07
109 2 5.55 -1.85 -7.4 8.94702e+06 8.9468e+06 1.57937e+06 -1.06726e-09 -76.1271 -43.3849 9.90853e+07 6.1124e+07
110 2 5.55 -3.7 -5.55 7.03292e+06 7.03284e+06 7.14423e+06 -5.69758 5.69758 -1.61302e-09 1.13543e+08 7.32052e+07
111 2 3.7 -1.85 -5.55 7.03286e+06 7.03288e+06 7.14423e+06 1.42904e-10 1.42853e-10 5.69758 1.18744e+08 7.32057e+07
112 2 7.4 -3.7 -7.4 6.66001e+06 9.90383e+06 2.97666e+06 203201 -236735 -141.354 9.6293e+07 6.4695e+07
113 2 9.25 -1.85 -7.4 -3.8458e+07 7.00375e+06 747458 202219 -4.30606e+06 -147.199 4.4731e+08 1.25974e+08
114 2 9.25 -3.7 -5.55 -4.04784e+07 3.73484e+06 3.88708e+06 202218 -2.89268e+06 -2.93501e-09 4.21839e+08 8.71571e+07
115 2 7.4 -1.85 -5.55 4.30578e+06 7.98985e+06 8.10138e+06 203195 203168 5.69758 1.26558e+08 7.74089e+07
116 2 -9.25 1.85 -7.4 -3.971e+07 7.96069e+06 747458 938.625 4.30522e+06 -0.152415 3.55094e+08 5.4133e+07
117 2 -9.25 0 -5.55 -4.17304e+07 3.73463e+06 4.84398e+06 -202219 3.09584e+06 3.93462e-09 4.16182e+08 8.74388e+07
118 2 -7.4 0 -7.4 3.93358e+06 1.08607e+07 3.93358e+06 -37.6873 439719 -37.6873 9.22652e+07 6.77171e+07
119 2 -5.55 1.85 -7.4 9.05826e+06 8.94677e+06 1.57937e+06 5.69758 -10.6536 -43.3849 8.31157e+07 5.59178e+07
120 2 -5.55 0 -5.55 7.14416e+06 7.03283e+06 7.1442e+06 5.69758 11.3952 -3.14986e-09 9.72775e+07 6.85021e+07
121 2 -7.4 1.85 -5.55 4.30579e+06 7.98985e+06 8.10138e+06 -203195 -203168 5.69758 1.1621e+08 7.20737e+07
122 2 -3.7 0 -7.4 8.94684e+06 8.94683e+06 1.57945e+06 -1.74322e-09 -37.6873 -37.6873 8.13481e+07 5.59197e+07
123 2 -1.85 1.85 -7.4 8.9468e+06 8.9468e+06 1.57953e+06 7.11509e-10 -43.3849 -43.3849 9.18786e+07 5.59198e+07
124 2 -1.85 0 -5.55 7.03288e+06 7.03286e+06 7.14423e+06 -1.97443e-09 5.69758 -3.0983e-09 9.37722e+07 6.32978e+07
125 2 -3.7 1.85 -5.55 7.03286e+06 7.03288e+06 7.14423e+06 -0 -3.4973e-11 5.69758 1.1354e+08 6.85027e+07
126 2 0 0 -7.4 8.94683e+06 8.94683e+06 1.57945e+06 -3.67308e-09 -37.6873 -37.6873 7.53621e+07 5.59198e+07
127 2 1.85 1.85 -7.4 8.9468e+06 8.9468e+06 1.57953e+06 3.15974e-25 -43.3849 -43.3849 9.18786e+07 6.11247e+07
128 2 1.85 0 -5.55 7.03288e+06 7.03286e+06 7.14423e+06 -3.10301e-09 5.69758 -2.74286e-09 9.8978e+07 6.85027e+07
129 2 0 1.85 -5.55 7.03286e+06 7.03288e+06 7.14423e+06 -2.09897e-09 -1.2096e-09 5.69758 1.08836e+08 6.85028e+07
130 2 3.7 0 -7.4 8.94683e+06 8.94683e+06 1.57945e+06 -2.064e-09 -37.6873 -37.6873 8.05672e+07 6.11248e+07
131 2 5.55 1.85 -7.4 8.94702e+06 8.9468e+06 1.57937e+06 -3.55755e-10 -76.1271 -43.3849 9.18781e+07 6.1124e+07
132 2 5.55 0 -5.55 7.03292e+06 7.03283e+06 7.14423e+06 -5.69758 5.69758 -2.7589e-09 1.04268e+08 7.37916e+07
133 2 3.7 1.85 -5.55 7.03286e+06 7.03288e+06 7.14423e+06 -7.11509e-10 -3.55784e-10 5.69758 1.08836e+08 6.85028e+07
134 2 7.4 0 -7.4 6.66001e+06 9.90383e+06 2.97666e+06 203201 -236735 -141.354 1.65533e+08 1.39254e+08
135 2 9.25 1.85 -7.4 -3.8458e+07 7.00375e+06 747458 202219 -4.30606e+06 -147.199 4.35089e+08 1.25973e+08
136 2 9.25 0 -5.55 -4.04784e+07 3.73463e+06 3.88708e+06 202219 -2.89268e+06 -1.24597e-09 4.25709e+08 8.76457e+07
137 2 7.4 1.85 -5.55 4.30578e+06 7.98985e+06 8.10138e+06 203195 203168 5.69758 1.15819e+08 7.68877e+07
138 2 -9.25 5.55 -7.4 -3.97062e+07 7.96866e+06 751882 -3850.95 4.31e+06 -6193.92 3.5509e+08 5.40275e+07
139 2 -9.25 3.7 -5.55 -4.17304e+07 3.73463e+06 4.84398e+06 -202219 3.09584e+06 3.21484e-09 4.16182e+08 8.74388e+07
140 2 -7.4 3.7 -7.4 3.93358e+06 1.08607e+07 3.93358e+06 -37.6873 439719 -37.6873 9.22652e+07 6.77171e+07
141 2 -5.55 5.55 -7.4 9.05826e+06 8.94699e+06 1.57922e+06 5.69758 -10.6536 -76.1271 8.31157e+07 5.59176e+07
142 2 -5.55 3.7 -5.55 7.14416e+06 7.03283e+06 7.1442e+06 5.69758 11.3952 -1.24763e-09 9.72775e+07 6.85021e+07
143 2 -7.4 5.55 -5.55 4.30579e+06 7.98985e+06 8.10138e+06 -203195 -203168 5.69758 1.1621e+08 7.20737e+07
144 2 -3.7 3.7 -7.4 8.94684e+06 8.94683e+06 1.57945e+06 -3.90727e-10 -37.6873 -37.6873 8.13481e+07 5.59197e+07
145 2 -1.85 5.55 -7.4 8.9468e+06 8.94702e+06 1.57937e+06 -8.89387e-10 -43.3849 -76.1271 9.18786e+07 5.59196e+07
146 2 -1.85 3.7 -5.55 7.03288e+06 7.03286e+06 7.14423e+06 6.7413e-10 5.69758 -2.06766e-09 9.37722e+07 6.32978e+07
147 2 -3.7 5.55 -5.55 7.03286e+06 7.03288e+06 7.14423e+06 -0 1.77866e-10 5.69758 1.1354e+08 6.85027e+07
148 2 0 3.7 -7.4 8.94683e+06 8.94683e+06 1.57945e+06 -2.73179e-09 -37.6873 -37.6873 7.53621e+07 5.59198e+07
149 2 1.85 5.55 -7.4 8.9468e+06 8.94702e+06 1.57937e+06 -5.33632e-10 -43.3849 -76.1271 9.18786e+07 6.11245e+07
150 2 1.85 3.7 -5.55 7.03288e+06 7.03286e+06 7.14423e+06 9.66676e-11 5.69758 -2.05048e-09 9.8978e+07 6.85027e+07
151 2 0 5.55 -5.55 7.03286e+06 7.03288e+06 7.14423e+06 -1.30875e-09 -1.48671e-09 5.69758 1.08836e+08 6.85028e+07
152 2 3.7 3.7 -7.4 8.94683e+06 8.94683e+06 1.57945e+06 -9.97318e-10 -37.6873 -37.6873 8.05672e+07 6.11248e+07
153 2 5.55 5.55 -7.4 8.94702e+06 8.94702e+06 1.57922e+06 -5.33632e-10 -76.1271 -76.1271 9.18781e+07 6.11239e+07
154 2 5.55 3.7 -5.55 7.03292e+06 7.03283e+06 7.14423e+06 -5.69758 5.69758 -2.23876e-09 1.03767e+08 7.32898e+07
155 2 3.7 5.55 -5.55 7.03286e+06 7.03288e+06 7.14423e+06 -5.33632e-10 -5.33665e-10 5.69758 1.08836e+08 6.85028e+07
156 2 7.4 3.7 -7.4 6.66001e+06 9.90383e+06 2.97666e+06 203201 -236735 -141.354 1.65533e+08 1.39254e+08
157 2 9.25 5.55 -7.4 -3.84541e+07 7.01171e+06 751882 207008 -4.31084e+06 -6340.97 4.35085e+08 1.25867e+08
158 2 9.25 3.7 -5.55 -4.04784e+07 3.73463e+06 3.88708e+06 202219 -2.89268e+06 6.2239e-10 4.25207e+08 8.7144e+07
159 2 7.4 5.55 -5.55 4.30578e+06 7.98985e+06 8.10138e+06 203195 203168 5.69758 1.15819e+08 7.68877e+07
160 2 -9.25 9.25 -7.4 -3.69806e+07 -3.71321e+07 2.69593e+06 -162894 1.45077e+06 -1.45722e+06 3.12716e+08 -2.74141e+07
161 2 -9.25 7.4 -5.55 -4.11948e+07 2.92516e+06 6.48567e+06 -811790 3.7095e+06 -418138 4.04151e+08 6.2544e+07
162 2 -7.4 7.4 -7.4 5.33082e+06 9.01417e+06 5.33082e+06 -234881 437658 -234881 8.67845e+07 5.58027e+07
163 2 -5.55 9.25 -7.4 7.16249e+06 -3.84541e+07 751882 197624 6045.94 -4.31084e+06 3.49244e+07 -8.52843e+06
164 2 -5.55 7.4 -5.55 7.14422e+06 5.66898e+06 8.10136e+06 49.0934 11.3952 203168 8.15641e+07 4.96121e+07
165 2 -7.4 9.25 -5.55 605483 -3.76229e+07 5.52876e+06 -813569 417991 -3.50633e+06 6.39429e+07 1.24612e+07
166 2 -3.7 7.4 -7.4 9.90383e+06 6.66001e+06 2.97666e+06 203201 -141.354 -236735 6.77829e+07 4.12466e+07
167 2 -1.85 9.25 -7.4 7.00375e+06 -3.8458e+07 747458 202219 -147.199 -4.30606e+06 4.39035e+07 -8.40221e+06
168 2 -1.85 7.4 -5.55 7.03294e+06 5.669e+06 8.10138e+06 43.3849 5.69758 203168 8.08269e+07 4.3508e+07
169 2 -3.7 9.25 -5.55 2.7779e+06 -3.91151e+07 3.88708e+06 -938.625 -9.78327e-10 -2.89268e+06 6.56154e+07 2.98193e+07
170 2 0 7.4 -7.4 9.90383e+06 6.66001e+06 2.97666e+06 203201 -141.354 -236735 6.5556e+07 4.12467e+07
171 2 1.85 9.25 -7.4 7.00375e+06 -3.8458e+07 747458 202219 -147.199 -4.30606e+06 4.91084e+07 -3.19727e+06
172 2 1.85 7.4 -5.55 7.03294e+06 5.669e+06 8.10138e+06 43.3849 5.69758 203168 8.60326e+07 4.87129e+07
173 2 0 9.25 -5.55 2.77768e+06 -3.91151e+07 3.88708e+06 -938.625 -8.89947e-10 -2.89268e+06 5.9516e+07 2.37125e+07
174 2 3.7 7.4 -7.4 9.90383e+06 6.66001e+06 2.97666e+06 203201 -141.354 -236735 7.07611e+07 4.64518e+07
175 2 5.55 9.25 -7.4 7.01171e+06 -3.84541e+07 751882 207008 -6340.97 -4.31084e+06 4.91063e+07 -3.30407e+06
176 2 5.55 7.4 -5.55 7.03297e+06 5.66898e+06 8.10138e+06 37.6873 5.69758 203168 9.082e+07 5.34982e+07
177 2 3.7 9.25 -5.55 2.77768e+06 -3.91151e+07 3.88708e+06 -938.625 9.78342e-10 -2.89268e+06 5.9516e+07 2.37125e+07
178 2 7.4 7.4 -7.4 7.61703e+06 7.61703e+06 4.3739e+06 404325 -235816 -235816 1.59115e+08 1.32955e+08
179 2 9.25 9.25 -7.4 -3.71653e+07 -3.7166e+07 2.69593e+06 -2.43139e+06 -1.45841e+06 -1.45841e+06 3.21674e+08 -2.72537e+07
180 2 9.25 7.4 -5.55 -3.99428e+07 2.92516e+06 5.52876e+06 812631 -3.50633e+06 -417991 4.0659e+08 6.2247e+07
181 2 7.4 9.25 -5.55 605269 -3.76229e+07 5.52876e+06 812631 -417991 -3.50633e+06 6.39168e+07 1.24715e+07
182 2 -9.25 -9.25 -3.7 -3.91454e+07 -3.91447e+07 4.32597e+06 3.94316e+06 1.26366e+06 1.26366e+06 3.69747e+08 2.8621e+06
183 2 -5.55 -9.25 -3.7 4.84313e+06 -4.17308e+07 3.73437e+06 1636.07 662.969 2.89199e+06 5.45825e+07 3.79782e+07
184 2 -7.4 -9.25 -1.85 3.87765e+06 -4.25627e+07 6.32518e+06 605331 412608 3.70401e+06 7.1615e+07 1.46394e+07
185 2 -1.85 -9.25 -3.7 4.69062e+06 -4.17314e+07 3.73389e+06 938.625 2.66835e-09 2.89148e+06 5.51424e+07 3.51011e+07
186 2 -3.7 -9.25 -1.85 4.69084e+06 -4.30946e+07 4.69062e+06 938.943 2.66816e-10 3.09463e+06 7.89078e+07 3.69337e+07
187 2 1.85 -9.25 -3.7 4.69062e+06 -4.17314e+07 3.73389e+06 938.625 1.86845e-09 2.89148e+06 5.53482e+07 3.51001e+07
188 2 0 -9.25 -1.85 4.69062e+06 -4.30946e+07 4.69062e+06 938.625 -6.37028e-10 3.09463e+06 7.8901e+07 3.69355e+07
189 2 5.55 -9.25 -3.7 4.6924e+06 -4.17308e+07 3.73437e+06 52.1698 -662.969 2.89199e+06 5.00966e+07 2.9856e+07
190 2 3.7 -9.25 -1.85 4.69062e+06 -4.30946e+07 4.69062e+06 938.307 3.29071e-09 3.09463e+06 7.8901e+07 3.69355e+07
191 2 9.25 -9.25 -3.7 -3.92962e+07 -3.91447e+07 4.32597e+06 -1.38276e+06 -1.26366e+06 1.26366e+06 3.78519e+08 2.92785e+06
192 2 7.4 -9.25 -1.85 3.87743e+06 -4.25627e+07 6.32518e+06 -604392 -412608 3.70401e+06 8.49091e+07 2.27485e+07
193 2 -9.25 -5.55 -3.7 -4.17308e+07 4.84313e+06 3.73437e+06 1636.07 2.89199e+06 662.969 4.06863e+08 7.99302e+07
194 2 -9.25 -7.4 -1.85 -4.02428e+07 1.55775e+06 6.32518e+06 605331 3.70401e+06 412608 3.60986e+08 6.04891e+07
195 2 -7.4 -7.4 -3.7 3.93358e+06 3.93358e+06 1.08608e+07 439719 -37.6873 -37.6873 1.02347e+08 5.7836e+07
196 2 -5.55 -5.55 -3.7 7.14416e+06 7.14416e+06 7.03286e+06 11.3952 5.69758 5.69758 1.01478e+08 7.38185e+07
197 2 -5.55 -7.4 -1.85 9.05826e+06 2.94259e+06 7.98985e+06 -10.6536 5.69758 -203195 8.36185e+07 5.47601e+07
198 2 -7.4 -5.55 -1.85 4.30579e+06 8.10138e+06 7.98985e+06 -203168 -203195 5.69758 1.11315e+08 6.74822e+07
199 2 -3.7 -7.4 -3.7 8.94684e+06 1.57945e+06 8.94684e+06 -37.6873 -1.42904e-10 -37.6873 1.03789e+08 6.17842e+07
200 2 -1.85 -5.55 -3.7 7.03288e+06 7.14419e+06 7.03289e+06 5.69758 1.77881e-09 5.69758 9.89294e+07 6.86143e+07
201 2 -1.85 -7.4 -1.85 8.9468e+06 2.94275e+06 7.98988e+06 -43.3849 2.11098e-09 -203195 9.90855e+07 5.76655e+07
202 2 -3.7 -5.55 -1.85 7.03286e+06 7.14423e+06 7.03288e+06 -1.10243e-14 3.55755e-10 5.69758 1.19749e+08 7.4321e+07
203 2 0 -7.4 -3.7 8.94683e+06 1.57945e+06 8.94684e+06 -37.6873 -1.72574e-09 -37.6873 9.66837e+07 5.36753e+07
204 2 1.85 -5.55 -3.7 7.03288e+06 7.14419e+06 7.03289e+06 5.69758 4.0913e-09 5.69758 9.89311e+07 6.86143e+07
205 2 1.85 -7.4 -1.85 8.9468e+06 2.94275e+06 7.98988e+06 -43.3849 4.16344e-09 -203195 9.90855e+07 5.76655e+07
206 2 0 -5.55 -1.85 7.03286e+06 7.14423e+06 7.03288e+06 -2.13469e-09 -1.93857e-09 5.69758 1.14543e+08 6.91162e+07
207 2 3.7 -7.4 -3.7 8.94683e+06 1.57945e+06 8.94684e+06 -37.6873 -3.49728e-11 -37.6873 9.14797e+07 4.84705e+07
208 2 5.55 -5.55 -3.7 7.03292e+06 7.14419e+06 7.03286e+06 5.69758 -5.69758 5.69758 9.89314e+07 6.86133e+07
209 2 5.55 -7.4 -1.85 8.94702e+06 2.94259e+06 7.98988e+06 -76.1271 3.45764e-09 -203195 9.90853e+07 5.76639e+07
210 2 3.7 -5.55 -1.85 7.03286e+06 7.14423e+06 7.03288e+06 -1.77929e-10 -7.46482e-10 5.69758 1.14543e+08 6.91163e+07
211 2 7.4 -7.4 -3.7 6.66001e+06 2.97666e+06 9.90383e+06 -236735 203201 -141.354 9.6293e+07 5.47983e+07
212 2 9.25 -5.55 -3.7 -4.04788e+07 3.88623e+06 3.73437e+06 201527 -2.89199e+06 662.969 4.17047e+08 8.23712e+07
213 2 9.25 -7.4 -1.85 -3.89907e+07 1.55775e+06 5.36824e+06 -606172 -3.50085e+06 412461 4.43341e+08 1.43116e+08
214 2 7.4 -5.55 -1.85 4.30578e+06 8.10138e+06 7.98985e+06 203168 203195 5.69758 1.95773e+08 1.46736e+08
215 2 -9.25 -1.85 -3.7 -4.17314e+07 4.69062e+06 3.73389e+06 938.625 2.89148e+06 2.84622e-09 3.63005e+08 8.5301e+07
216 2 -9.25 -3.7 -1.85 -4.17314e+07 3.73389e+06 4.69062e+06 -202218 3.09463e+06 7.11509e-10 3.68513e+08 8.27579e+07
217 2 -7.4 -3.7 -3.7 1.57945e+06 8.94684e+06 8.94684e+06 -37.6873 -37.6873 1.77874e-10 1.17127e+08 6.99772e+07
218 2 -5.55 -1.85 -3.7 7.14419e+06 7.03288e+06 7.03289e+06 5.69758 5.69758 1.24518e-09 1.00977e+08 6.32972e+07
219 2 -5.55 -3.7 -1.85 7.14419e+06 7.03289e+06 7.03288e+06 5.69758 5.69758 1.42302e-09 1.0198e+08 6.90038e+07
220 2 -7.4 -1.85 -1.85 4.30597e+06 7.98988e+06 7.98988e+06 -203195 -203195 3.55755e-09 1.05791e+08 6.68684e+07
221 2 -3.7 -3.7 -3.7 7.03292e+06 7.03292e+06 7.03292e+06 -2.85816e-10 -0 7.34954e-15 1.19246e+08 7.37076e+07
222 2 -1.85 -1.85 -3.7 7.03291e+06 7.03291e+06 7.03292e+06 -1.57987e-25 1.50442e-09 1.42306e-09 1.13539e+08 6.32978e+07
223 2 -1.85 -3.7 -1.85 7.03291e+06 7.03292e+06 7.03291e+06 3.67477e-14 1.3265e-09 1.06726e-09 1.14543e+08 7.42095e+07
224 2 -3.7 -1.85 -1.85 7.03292e+06 7.03291e+06 7.03291e+06 -0 1.77877e-10 2.66816e-09 1.1354e+08 6.85027e+07
225 2 0 -3.7 -3.7 7.03291e+06 7.03292e+06 7.03292e+06 -2.43421e-09 -2.36427e-09 7.11502e-10 1.08837e+08 6.85028e+07
226 2 1.85 -1.85 -3.7 7.03291e+06 7.03291e+06 7.03292e+06 -1.57987e-25 4.26847e-09 2.4903e-09 1.13539e+08 6.32978e+07
227 2 1.85 -3.7 -1.85 7.03291e+06 7.03292e+06 7.03291e+06 -5.33511e-10 4.62411e-09 8.89387e-10 1.14543e+08 7.42095e+07
228 2 0 -1.85 -1.85 7.03291e+06 7.03291e+06 7.03291e+06 -2.31251e-09 -1.9036e-09 3.20179e-09 1.2395e+08 7.37077e+07
229 2 3.7 -3.7 -3.7 7.03291e+06 7.03292e+06 7.03292e+06 -3.90724e-10 1.77877e-10 1.77874e-10 1.08837e+08 6.85026e+07
230 2 5.55 -1.85 -3.7 7.03295e+06 7.03291e+06 7.03289e+06 -7.11509e-10 -5.69758 2.49032e-09 1.1354e+08 6.32972e+07
231 2 5.55 -3.7 -1.85 7.03295e+06 7.03289e+06 7.03291e+06 -5.69758 2.87459e-09 1.6009e-09 1.14033e+08 7.36987e+07
232 2 3.7 -1.85 -1.85 7.03291e+06 7.03291e+06 7.03291e+06 -3.55755e-10 -5.33632e-10 3.9133e-09 1.23951e+08 7.37078e+07
233 2 7.4 -3.7 -3.7 4.30589e+06 7.98992e+06 7.98992e+06 203201 203201 -3.55755e-10 1.05791e+08 6.6868e+07
234 2 9.25 -1.85 -3.7 -4.04793e+07 3.73368e+06 3.73389e+06 202219 -2.89148e+06 3.82451e-09 4.52111e+08 1.56815e+08
235 2 9.25 -3.7 -1.85 -4.04793e+07 3.73389e+06 3.73368e+06 202218 -2.89148e+06 1.77877e-10 4.47099e+08 1.6202e+08
236 2 7.4 -1.85 -1.85 4.30596e+06 7.98988e+06 7.98988e+06 203195 203195 3.73542e-09 2.05681e+08 1.51829e+08
237 2 -9.25 1.85 -3.7 -4.17314e+07 4.69062e+06 3.73389e+06 938.625 2.89148e+06 2.66889e-09 3.62794e+08 8.498e+07
238 2 -9.25 0 -1.85 -4.17314e+07 3.73368e+06 4.69062e+06 -202219 3.09463e+06 1.49951e-11 4.12377e+08 7.71357e+07
239 2 -7.4 0 -3.7 1.57945e+06 8.94683e+06 8.94684e+06 -37.6873 -37.6873 -2.16892e-09 1.02048e+08 6.4771e+07
240 2 -5.55 1.85 -3.7 7.14419e+06 7.03288e+06 7.03289e+06 5.69758 5.69758 3.91342e-09 9.58567e+07 5.81769e+07
241 2 -5.55 0 -1.85 7.14419e+06 7.03288e+06 7.03288e+06 5.69758 5.69758 -8.71308e-10 1.06684e+08 7.3707e+07
242 2 -7.4 1.85 -1.85 4.30597e+06 7.98988e+06 7.98988e+06 -203195 -203195 5.86995e-09 1.16285e+08 6.6953e+07
243 2 -3.7 0 -3.7 7.03292e+06 7.03291e+06 7.03292e+06 -2.45471e-09 1.77877e-10 -2.09897e-09 9.94774e+07 6.32979e+07
244 2 -1.85 1.85 -3.7 7.03291e+06 7.03291e+06 7.03292e+06 -5.33632e-10 2.21591e-09 3.91342e-09 1.08334e+08 6.32979e+07
245 2 -1.85 0 -1.85 7.03291e+06 7.03291e+06 7.03291e+06 -2.31235e-09 1.6009e-09 -1.59798e-10 1.08837e+08 6.85028e+07
246 2 -3.7 1.85 -1.85 7.03292e+06 7.03291e+06 7.03291e+06 -0 1.77877e-10 5.86995e-09 1.2395e+08 7.37076e+07
247 2 0 0 -3.7 7.03291e+06 7.03291e+06 7.03292e+06 -4.16869e-09 -2.3293e-09 -2.13464e-09 9.37711e+07 6.32978e+07
248 2 1.85 1.85 -3.7 7.03291e+06 7.03291e+06 7.03292e+06 1.77877e-10 3.93019e-09 4.26917e-09 1.08334e+08 6.32978e+07
249 2 1.85 0 -1.85 7.03291e+06 7.03291e+06 7.03291e+06 -2.66804e-09 4.80269e-09 -5.41769e-10 1.14044e+08 7.37077e+07
250 2 0 1.85 -1.85 7.03291e+06 7.03291e+06 7.03291e+06 -2.31252e-09 -1.8861e-09 5.69207e-09 1.13541e+08 7.37077e+07
251 2 3.7 0 -3.7 7.03291e+06 7.03291e+06 7.03292e+06 -2.48968e-09 -4.98659e-10 -1.7789e-09 9.37713e+07 6.32979e+07
252 2 5.55 1.85 -3.7 7.03295e+06 7.03291e+06 7.03289e+06 -8.89387e-10 -5.69758 4.44706e-09 1.08335e+08 6.32972e+07
253 2 5.55 0 -1.85 7.03295e+06 7.03288e+06 7.03291e+06 -5.69758 3.55755e-09 -3.28937e-10 1.14036e+08 7.36984e+07
254 2 3.7 1.85 -1.85 7.03291e+06 7.03291e+06 7.03291e+06 -5.33628e-10 -1.03229e-09 6.40358e-09 1.18746e+08 7.37076e+07
255 2 7.4 0 -3.7 4.30589e+06 7.98991e+06 7.98992e+06 203201 203201 -1.95677e-09 1.75037e+08 1.41427e+08
256 2 9.25 1.85 -3.7 -4.04793e+07 3.73368e+06 3.73389e+06 202219 -2.89148e+06 4.71442e-09 4.41908e+08 1.56837e+08
257 2 9.25 0 -1.85 -4.04793e+07 3.73368e+06 3.73368e+06 202219 -2.89148e+06 -1.95665e-09 4.2704e+08 8.74615e+07
258 2 7.4 1.85 -1.85 4.30596e+06 7.98988e+06 7.98988e+06 203195 203195 5.86995e-09 1.15708e+08 7.20733e+07
259 2 -9.25 5.55 -3.7 -4.1731e+07 4.69148e+06 3.73437e+06 427.74 2.89199e+06 -662.969 3.62794e+08 8.49689e+07
260 2 -9.25 3.7 -1.85 -4.17314e+07 3.73368e+06 4.69062e+06 -202219 3.09463e+06 4.73261e-09 4.12377e+08 7.71358e+07
261 2 -7.4 3.7 -3.7 1.57945e+06 8.94683e+06 8.94684e+06 -37.6873 -37.6873 -3.90727e-10 1.02048e+08 6.4771e+07
262 2 -5.55 5.55 -3.7 7.14419e+06 7.03292e+06 7.03286e+06 5.69758 5.69758 -5.69758 9.58567e+07 5.81768e+07
263 2 -5.55 3.7 -1.85 7.14419e+06 7.03288e+06 7.03288e+06 5.69758 5.69758 8.54414e-10 1.06684e+08 7.3707e+07
264 2 -7.4 5.55 -1.85 4.30597e+06 7.98988e+06 7.98988e+06 -203195 -203195 4.26906e-09 1.16285e+08 6.6953e+07
265 2 -3.7 3.7 -3.7 7.03292e+06 7.03291e+06 7.03292e+06 -3.20782e-10 -1.77874e-10 -1.77877e-10 9.94774e+07 6.32979e+07
266 2 -1.85 5.55 -3.7 7.03291e+06 7.03295e+06 7.03289e+06 -8.89387e-10 1.73474e-09 -5.69758 1.08334e+08 6.32978e+07
267 2 -1.85 3.7 -1.85 7.03291e+06 7.03291e+06 7.03291e+06 3.55799e-10 2.13453e-09 8.54414e-10 1.08837e+08 6.85028e+07
268 2 -3.7 5.55 -1.85 7.03292e+06 7.03291e+06 7.03291e+06 -5.4308e-26 2.12846e-10 5.69207e-09 1.2395e+08 7.37076e+07