ITEM: TIMESTEP
0
ITEM: NUMBER OF ATOMS
3
ITEM: BOX BOUNDS xy xz yz pp pp pp
0.0000000000000000e+00 5.0000000000000000e+01 0.0000000000000000e+00
0.0000000000000000e+00 5.0000000000000000e+01 0.0000000000000000e+00
0.0000000000000000e+00 5.0000000000000000e+01 0.0000000000000000e+00
ITEM: ATOMS id type x y z c_1[1] c_1[2] c_1[3] c_1[4] c_1[22]
1 2 0.400088 0.44 0 -2.88258e+10 -3.1485e+10 -0 -8.66917e+09 1.86383e+11
2 2 0 0 0 -4.57667e+10 -1.39203e+10 -0 -1.30711e+10 1.81893e+11
3 2 0.5 0 0 -2.53107e+10 -1.75647e+10 -0 1.80164e+10 4.48967e+09
ITEM: TIMESTEP
1
ITEM: NUMBER OF ATOMS
3
ITEM: BOX BOUNDS xy xz yz pp pp pp
0.0000000000000000e+00 5.0000500000000002e+01 5.0000000000238742e-04
0.0000000000000000e+00 5.0000000000000000e+01 0.0000000000000000e+00
0.0000000000000000e+00 5.0000000000000000e+01 0.0000000000000000e+00
ITEM: ATOMS id type x y z c_1[1] c_1[2] c_1[3] c_1[4] c_1[22]
1 2 0.400092 0.44 0 -2.88258e+10 -3.1485e+10 -0 -8.66917e+09 1.86383e+11
2 2 0 0 0 -4.57667e+10 -1.39203e+10 -0 -1.30711e+10 1.81893e+11
3 2 0.5 0 0 -2.53107e+10 -1.75647e+10 -0 1.80164e+10 4.48967e+09
ITEM: TIMESTEP
2
ITEM: NUMBER OF ATOMS
3
ITEM: BOX BOUNDS xy xz yz pp pp pp
0.0000000000000000e+00 5.0000999999999998e+01 9.9999999999766942e-04
0.0000000000000000e+00 5.0000000000000000e+01 0.0000000000000000e+00
0.0000000000000000e+00 5.0000000000000000e+01 0.0000000000000000e+00
ITEM: ATOMS id type x y z c_1[1] c_1[2] c_1[3] c_1[4] c_1[22]
1 2 0.400097 0.44 0 -2.88253e+10 -3.14853e+10 -0 -8.66932e+09 1.86392e+11
2 2 0 0 0 -4.57666e+10 -1.39203e+10 -0 -1.30712e+10 1.81904e+11
3 2 0.5 0 0 -2.53104e+10 -1.75651e+10 -0 1.80158e+10 4.48783e+09
ITEM: TIMESTEP
3
ITEM: NUMBER OF ATOMS
3
ITEM: BOX BOUNDS xy xz yz pp pp pp
0.0000000000000000e+00 5.0001500000000000e+01 1.5000000000000568e-03
0.0000000000000000e+00 5.0000000000000000e+01 0.0000000000000000e+00
0.0000000000000000e+00 5.0000000000000000e+01 0.0000000000000000e+00
ITEM: ATOMS id type x y z c_1[1] c_1[2] c_1[3] c_1[4] c_1[22]
1 2 0.400101 0.44 0 -2.88249e+10 -3.14857e+10 -0 -8.66947e+09 1.86401e+11
2 2 0 0 0 -4.57664e+10 -1.39202e+10 -0 -1.30713e+10 1.81915e+11
3 2 0.5 0 0 -2.53101e+10 -1.75655e+10 -0 1.80152e+10 4.48598e+09
ITEM: TIMESTEP
4
ITEM: NUMBER OF ATOMS
3
ITEM: BOX BOUNDS xy xz yz pp pp pp
0.0000000000000000e+00 5.0002000000000002e+01 2.0000000000024443e-03
0.0000000000000000e+00 5.0000000000000000e+01 0.0000000000000000e+00
0.0000000000000000e+00 5.0000000000000000e+01 0.0000000000000000e+00
ITEM: ATOMS id type x y z c_1[1] c_1[2] c_1[3] c_1[4] c_1[22]
1 2 0.400106 0.44 0 -2.88244e+10 -3.14861e+10 -0 -8.66961e+09 1.86409e+11
2 2 0 0 0 -4.57663e+10 -1.39201e+10 -0 -1.30713e+10 1.81925e+11
3 2 0.5 0 0 -2.53098e+10 -1.7566e+10 -0 1.80146e+10 4.48414e+09
ITEM: TIMESTEP
5
ITEM: NUMBER OF ATOMS
3
ITEM: BOX BOUNDS xy xz yz pp pp pp
0.0000000000000000e+00 5.0002499999999998e+01 2.4999999999977263e-03
0.0000000000000000e+00 5.0000000000000000e+01 0.0000000000000000e+00
0.0000000000000000e+00 5.0000000000000000e+01 0.0000000000000000e+00
ITEM: ATOMS id type x y z c_1[1] c_1[2] c_1[3] c_1[4] c_1[22]
1 2 0.40011 0.44 0 -2.8824e+10 -3.14865e+10 -0 -8.66976e+09 1.86418e+11
2 2 0 0 0 -4.57662e+10 -1.392e+10 -0 -1.30714e+10 1.81936e+11
3 2 0.5 0 0 -2.53095e+10 -1.75664e+10 -0 1.8014e+10 4.4823e+09
ITEM: TIMESTEP
6
ITEM: NUMBER OF ATOMS
3
ITEM: BOX BOUNDS xy xz yz pp pp pp
0.0000000000000000e+00 5.0003000000000000e+01 3.0000000000001137e-03
0.0000000000000000e+00 5.0000000000000000e+01 0.0000000000000000e+00
0.0000000000000000e+00 5.0000000000000000e+01 0.0000000000000000e+00
ITEM: ATOMS id type x y z c_1[1] c_1[2] c_1[3] c_1[4] c_1[22]
1 2 0.400114 0.44 0 -2.88235e+10 -3.14868e+10 -0 -8.66991e+09 1.86427e+11
2 2 0 0 0 -4.57661e+10 -1.392e+10 -0 -1.30715e+10 1.81947e+11
3 2 0.5 0 0 -2.53092e+10 -1.75669e+10 -0 1.80134e+10 4.48046e+09
ITEM: TIMESTEP
7
ITEM: NUMBER OF ATOMS
3
ITEM: BOX BOUNDS xy xz yz pp pp pp
0.0000000000000000e+00 5.0003500000000003e+01 3.5000000000025011e-03
0.0000000000000000e+00 5.0000000000000000e+01 0.0000000000000000e+00
0.0000000000000000e+00 5.0000000000000000e+01 0.0000000000000000e+00
ITEM: ATOMS id type x y z c_1[1] c_1[2] c_1[3] c_1[4] c_1[22]
1 2 0.400119 0.44 0 -2.88231e+10 -3.14872e+10 -0 -8.67006e+09 1.86436e+11
2 2 0 0 0 -4.5766e+10 -1.39199e+10 -0 -1.30716e+10 1.81957e+11
3 2 0.5 0 0 -2.53089e+10 -1.75673e+10 -0 1.80128e+10 4.47862e+09
ITEM: TIMESTEP
8
ITEM: NUMBER OF ATOMS
3
ITEM: BOX BOUNDS xy xz yz pp pp pp
0.0000000000000000e+00 5.0003999999999998e+01 3.9999999999977831e-03
0.0000000000000000e+00 5.0000000000000000e+01 0.0000000000000000e+00
0.0000000000000000e+00 5.0000000000000000e+01 0.0000000000000000e+00
ITEM: ATOMS id type x y z c_1[1] c_1[2] c_1[3] c_1[4] c_1[22]
1 2 0.400123 0.44 0 -2.88226e+10 -3.14876e+10 -0 -8.67021e+09 1.86445e+11
2 2 0 0 0 -4.57658e+10 -1.39198e+10 -0 -1.30717e+10 1.81968e+11
3 2 0.5 0 0 -2.53086e+10 -1.75677e+10 -0 1.80122e+10 4.47678e+09
ITEM: TIMESTEP
9
ITEM: NUMBER OF ATOMS
3
ITEM: BOX BOUNDS xy xz yz pp pp pp
0.0000000000000000e+00 5.0004500000000000e+01 4.5000000000001705e-03
0.0000000000000000e+00 5.0000000000000000e+01 0.0000000000000000e+00
0.0000000000000000e+00 5.0000000000000000e+01 0.0000000000000000e+00
ITEM: ATOMS id type x y z c_1[1] c_1[2] c_1[3] c_1[4] c_1[22]
1 2 0.400128 0.44 0 -2.88222e+10 -3.14879e+10 -0 -8.67036e+09 1.86454e+11
2 2 0 0 0 -4.57657e+10 -1.39197e+10 -0 -1.30718e+10 1.81979e+11
3 2 0.5 0 0 -2.53083e+10 -1.75682e+10 -0 1.80115e+10 4.47494e+09
ITEM: TIMESTEP
10
ITEM: NUMBER OF ATOMS
3
ITEM: BOX BOUNDS xy xz yz pp pp pp
0.0000000000000000e+00 5.0005000000000003e+01 5.0000000000025580e-03
0.0000000000000000e+00 5.0000000000000000e+01 0.0000000000000000e+00
0.0000000000000000e+00 5.0000000000000000e+01 0.0000000000000000e+00
ITEM: ATOMS id type x y z c_1[1] c_1[2] c_1[3] c_1[4] c_1[22]
1 2 0.400132 0.44 0 -2.88218e+10 -3.14883e+10 -0 -8.6705e+09 1.86463e+11
2 2 0 0 0 -4.57656e+10 -1.39197e+10 -0 -1.30719e+10 1.8199e+11
3 2 0.5 0 0 -2.53079e+10 -1.75686e+10 -0 1.80109e+10 4.47309e+09
ITEM: TIMESTEP
11
ITEM: NUMBER OF ATOMS
3
ITEM: BOX BOUNDS xy xz yz pp pp pp
0.0000000000000000e+00 5.0005499999999998e+01 5.4999999999978400e-03
0.0000000000000000e+00 5.0000000000000000e+01 0.0000000000000000e+00
0.0000000000000000e+00 5.0000000000000000e+01 0.0000000000000000e+00
ITEM: ATOMS id type x y z c_1[1] c_1[2] c_1[3] c_1[4] c_1[22]
1 2 0.400136 0.44 0 -2.88213e+10 -3.14887e+10 -0 -8.67065e+09 1.86472e+11
2 2 0 0 0 -4.57655e+10 -1.39196e+10 -0 -1.30719e+10 1.82e+11
3 2 0.5 0 0 -2.53076e+10 -1.75691e+10 -0 1.80103e+10 4.47125e+09
ITEM: TIMESTEP
12
ITEM: NUMBER OF ATOMS
3
ITEM: BOX BOUNDS xy xz yz pp pp pp
0.0000000000000000e+00 5.0006000000000000e+01 6.0000000000002274e-03
0.0000000000000000e+00 5.0000000000000000e+01 0.0000000000000000e+00
0.0000000000000000e+00 5.0000000000000000e+01 0.0000000000000000e+00
ITEM: ATOMS id type x y z c_1[1] c_1[2] c_1[3] c_1[4] c_1[22]
1 2 0.400141 0.44 0 -2.88209e+10 -3.1489e+10 -0 -8.6708e+09 1.8648e+11
2 2 0 0 0 -4.57654e+10 -1.39195e+10 -0 -1.3072e+10 1.82011e+11
3 2 0.5 0 0 -2.53073e+10 -1.75695e+10 -0 1.80097e+10 4.46941e+09
ITEM: TIMESTEP
13
ITEM: NUMBER OF ATOMS
3
ITEM: BOX BOUNDS xy xz yz pp pp pp
0.0000000000000000e+00 5.0006500000000003e+01 6.5000000000026148e-03
0.0000000000000000e+00 5.0000000000000000e+01 0.0000000000000000e+00
0.0000000000000000e+00 5.0000000000000000e+01 0.0000000000000000e+00
ITEM: ATOMS id type x y z c_1[1] c_1[2] c_1[3] c_1[4] c_1[22]
1 2 0.400145 0.44 0 -2.88204e+10 -3.14894e+10 -0 -8.67095e+09 1.86489e+11
2 2 0 0 0 -4.57652e+10 -1.39194e+10 -0 -1.30721e+10 1.82022e+11
3 2 0.5 0 0 -2.5307e+10 -1.75699e+10 -0 1.80091e+10 4.46757e+09
ITEM: TIMESTEP
14
ITEM: NUMBER OF ATOMS
3
ITEM: BOX BOUNDS xy xz yz pp pp pp
0.0000000000000000e+00 5.0006999999999998e+01 6.9999999999978968e-03
0.0000000000000000e+00 5.0000000000000000e+01 0.0000000000000000e+00
0.0000000000000000e+00 5.0000000000000000e+01 0.0000000000000000e+00
ITEM: ATOMS id type x y z c_1[1] c_1[2] c_1[3] c_1[4] c_1[22]
1 2 0.40015 0.44 0 -2.882e+10 -3.14898e+10 -0 -8.6711e+09 1.86498e+11
2 2 0 0 0 -4.57651e+10 -1.39194e+10 -0 -1.30722e+10 1.82032e+11
3 2 0.5 0 0 -2.53067e+10 -1.75704e+10 -0 1.80085e+10 4.46573e+09
ITEM: TIMESTEP
15
ITEM: NUMBER OF ATOMS
3
ITEM: BOX BOUNDS xy xz yz pp pp pp
0.0000000000000000e+00 5.0007500000000000e+01 7.5000000000002842e-03
0.0000000000000000e+00 5.0000000000000000e+01 0.0000000000000000e+00
0.0000000000000000e+00 5.0000000000000000e+01 0.0000000000000000e+00
ITEM: ATOMS id type x y z c_1[1] c_1[2] c_1[3] c_1[4] c_1[22]
1 2 0.400154 0.44 0 -2.88195e+10 -3.14901e+10 -0 -8.67124e+09 1.86507e+11
2 2 0 0 0 -4.5765e+10 -1.39193e+10 -0 -1.30723e+10 1.82043e+11
3 2 0.5 0 0 -2.53064e+10 -1.75708e+10 -0 1.80079e+10 4.46389e+09
ITEM: TIMESTEP
16
ITEM: NUMBER OF ATOMS
3
ITEM: BOX BOUNDS xy xz yz pp pp pp
0.0000000000000000e+00 5.0008000000000003e+01 8.0000000000026716e-03
0.0000000000000000e+00 5.0000000000000000e+01 0.0000000000000000e+00
0.0000000000000000e+00 5.0000000000000000e+01 0.0000000000000000e+00
ITEM: ATOMS id type x y z c_1[1] c_1[2] c_1[3] c_1[4] c_1[22]
1 2 0.400158 0.44 0 -2.88191e+10 -3.14905e+10 -0 -8.67139e+09 1.86516e+11
2 2 0 0 0 -4.57649e+10 -1.39192e+10 -0 -1.30724e+10 1.82054e+11
3 2 0.5 0 0 -2.53061e+10 -1.75713e+10 -0 1.80073e+10 4.46205e+09
ITEM: TIMESTEP
17
ITEM: NUMBER OF ATOMS
3
ITEM: BOX BOUNDS xy xz yz pp pp pp
0.0000000000000000e+00 5.0008499999999998e+01 8.4999999999979536e-03
0.0000000000000000e+00 5.0000000000000000e+01 0.0000000000000000e+00
0.0000000000000000e+00 5.0000000000000000e+01 0.0000000000000000e+00
ITEM: ATOMS id type x y z c_1[1] c_1[2] c_1[3] c_1[4] c_1[22]
1 2 0.400163 0.44 0 -2.88186e+10 -3.14908e+10 -0 -8.67154e+09 1.86525e+11
2 2 0 0 0 -4.57647e+10 -1.39191e+10 -0 -1.30725e+10 1.82065e+11
3 2 0.5 0 0 -2.53058e+10 -1.75717e+10 -0 1.80067e+10 4.4602e+09
ITEM: TIMESTEP
18
ITEM: NUMBER OF ATOMS
3
ITEM: BOX BOUNDS xy xz yz pp pp pp
0.0000000000000000e+00 5.0009000000000000e+01 9.0000000000003411e-03
0.0000000000000000e+00 5.0000000000000000e+01 0.0000000000000000e+00
0.0000000000000000e+00 5.0000000000000000e+01 0.0000000000000000e+00
ITEM: ATOMS id type x y z c_1[1] c_1[2] c_1[3] c_1[4] c_1[22]
1 2 0.400167 0.44 0 -2.88182e+10 -3.14912e+10 -0 -8.67169e+09 1.86534e+11
2 2 0 0 0 -4.57646e+10 -1.39191e+10 -0 -1.30726e+10 1.82075e+11
3 2 0.5 0 0 -2.53055e+10 -1.75721e+10 -0 1.80061e+10 4.45836e+09
ITEM: TIMESTEP
19
ITEM: NUMBER OF ATOMS
3
ITEM: BOX BOUNDS xy xz yz pp pp pp
0.0000000000000000e+00 5.0009500000000003e+01 9.5000000000027285e-03
0.0000000000000000e+00 5.0000000000000000e+01 0.0000000000000000e+00
0.0000000000000000e+00 5.0000000000000000e+01 0.0000000000000000e+00
ITEM: ATOMS id type x y z c_1[1] c_1[2] c_1[3] c_1[4] c_1[22]
1 2 0.400172 0.44 0 -2.88177e+10 -3.14916e+10 -0 -8.67184e+09 1.86543e+11
2 2 0 0 0 -4.57645e+10 -1.3919e+10 -0 -1.30726e+10 1.82086e+11
3 2 0.5 0 0 -2.53052e+10 -1.75726e+10 -0 1.80055e+10 4.45652e+09
ITEM: TIMESTEP
20
ITEM: NUMBER OF ATOMS
3
ITEM: BOX BOUNDS xy xz yz pp pp pp
0.0000000000000000e+00 5.0009999999999998e+01 9.9999999999980105e-03
0.0000000000000000e+00 5.0000000000000000e+01 0.0000000000000000e+00
0.0000000000000000e+00 5.0000000000000000e+01 0.0000000000000000e+00
ITEM: ATOMS id type x y z c_1[1] c_1[2] c_1[3] c_1[4] c_1[22]
1 2 0.400176 0.44 0 -2.88173e+10 -3.14919e+10 -0 -8.67198e+09 1.86551e+11
2 2 0 0 0 -4.57644e+10 -1.39189e+10 -0 -1.30727e+10 1.82097e+11
3 2 0.5 0 0 -2.53049e+10 -1.7573e+10 -0 1.80049e+10 4.45468e+09
