ITEM: TIMESTEP
0
ITEM: NUMBER OF ATOMS
3
ITEM: BOX BOUNDS xy xz yz pp pp pp
0.0000000000000000e+00 5.0000000000000000e+01 0.0000000000000000e+00
0.0000000000000000e+00 5.0000000000000000e+01 0.0000000000000000e+00
0.0000000000000000e+00 5.0000000000000000e+01 0.0000000000000000e+00
ITEM: ATOMS id type x y z c_1[1] c_1[2] c_1[3] c_1[4] c_1[5] c_1[6] c_1[7] c_1[22]
1 2 0.378614 0.321535 0 -2.9684e+08 -5.17759e+08 -0 -9.25585e+07 -0 -0 1.2671e+09 -1.80667e+09
2 2 0 0 0 -7.83891e+08 -1.85219e+08 -0 -2.09301e+08 -0 -0 -1.95921e+09 -1.55839e+09
3 2 0.5 0 0 -5.7826e+08 -3.3254e+08 -0 1.29599e+08 -0 -0 -3.29709e+09 -2.48282e+08
ITEM: TIMESTEP
1
ITEM: NUMBER OF ATOMS
3
ITEM: BOX BOUNDS xy xz yz pp pp pp
0.0000000000000000e+00 5.0005000000000003e+01 5.0000000000025580e-03
0.0000000000000000e+00 5.0000000000000000e+01 0.0000000000000000e+00
0.0000000000000000e+00 5.0000000000000000e+01 0.0000000000000000e+00
ITEM: ATOMS id type x y z c_1[1] c_1[2] c_1[3] c_1[4] c_1[5] c_1[6] c_1[7] c_1[22]
1 2 0.378646 0.321535 0 -2.9684e+08 -5.17759e+08 -0 -9.25585e+07 -0 -0 1.2671e+09 -1.80685e+09
2 2 0 0 0 -7.83891e+08 -1.85219e+08 -0 -2.09301e+08 -0 -0 -1.95921e+09 -1.55856e+09
3 2 0.5 0 0 -5.7826e+08 -3.3254e+08 -0 1.29599e+08 -0 -0 -3.29709e+09 -2.48282e+08
ITEM: TIMESTEP
2
ITEM: NUMBER OF ATOMS
3
ITEM: BOX BOUNDS xy xz yz pp pp pp
0.0000000000000000e+00 5.0009999999999998e+01 9.9999999999980105e-03
0.0000000000000000e+00 5.0000000000000000e+01 0.0000000000000000e+00
0.0000000000000000e+00 5.0000000000000000e+01 0.0000000000000000e+00
ITEM: ATOMS id type x y z c_1[1] c_1[2] c_1[3] c_1[4] c_1[5] c_1[6] c_1[7] c_1[22]
1 2 0.378678 0.321535 0 -2.97022e+08 -5.17894e+08 -0 -9.27356e+07 -0 -0 1.26916e+09 -1.8096e+09
2 2 0 0 0 -7.83756e+08 -1.85332e+08 -0 -2.09454e+08 -0 -0 -1.95479e+09 -1.56127e+09
3 2 0.5 0 0 -5.77902e+08 -3.32561e+08 -0 1.29575e+08 -0 -0 -3.29469e+09 -2.48329e+08
ITEM: TIMESTEP
3
ITEM: NUMBER OF ATOMS
3
ITEM: BOX BOUNDS xy xz yz pp pp pp
0.0000000000000000e+00 5.0015000000000001e+01 1.5000000000000568e-02
0.0000000000000000e+00 5.0000000000000000e+01 0.0000000000000000e+00
0.0000000000000000e+00 5.0000000000000000e+01 0.0000000000000000e+00
ITEM: ATOMS id type x y z c_1[1] c_1[2] c_1[3] c_1[4] c_1[5] c_1[6] c_1[7] c_1[22]
1 2 0.37871 0.321535 0 -2.97204e+08 -5.18028e+08 -0 -9.29129e+07 -0 -0 1.2712e+09 -1.81252e+09
2 2 0 0 0 -7.83622e+08 -1.85446e+08 -0 -2.09606e+08 -0 -0 -1.95036e+09 -1.56414e+09
3 2 0.5 0 0 -5.77544e+08 -3.32583e+08 -0 1.29551e+08 -0 -0 -3.29229e+09 -2.48377e+08
ITEM: TIMESTEP
4
ITEM: NUMBER OF ATOMS
3
ITEM: BOX BOUNDS xy xz yz pp pp pp
0.0000000000000000e+00 5.0020000000000003e+01 2.0000000000003126e-02
0.0000000000000000e+00 5.0000000000000000e+01 0.0000000000000000e+00
0.0000000000000000e+00 5.0000000000000000e+01 0.0000000000000000e+00
ITEM: ATOMS id type x y z c_1[1] c_1[2] c_1[3] c_1[4] c_1[5] c_1[6] c_1[7] c_1[22]
1 2 0.378743 0.321535 0 -2.97386e+08 -5.18163e+08 -0 -9.30906e+07 -0 -0 1.27325e+09 -1.81544e+09
2 2 0 0 0 -7.83488e+08 -1.85559e+08 -0 -2.09759e+08 -0 -0 -1.94593e+09 -1.56702e+09
3 2 0.5 0 0 -5.77187e+08 -3.32604e+08 -0 1.29527e+08 -0 -0 -3.28988e+09 -2.48424e+08
ITEM: TIMESTEP
5
ITEM: NUMBER OF ATOMS
3
ITEM: BOX BOUNDS xy xz yz pp pp pp
0.0000000000000000e+00 5.0024999999999999e+01 2.4999999999998579e-02
0.0000000000000000e+00 5.0000000000000000e+01 0.0000000000000000e+00
0.0000000000000000e+00 5.0000000000000000e+01 0.0000000000000000e+00
ITEM: ATOMS id type x y z c_1[1] c_1[2] c_1[3] c_1[4] c_1[5] c_1[6] c_1[7] c_1[22]
1 2 0.378775 0.321535 0 -2.97568e+08 -5.18298e+08 -0 -9.32686e+07 -0 -0 1.2753e+09 -1.81836e+09
2 2 0 0 0 -7.83354e+08 -1.85673e+08 -0 -2.09913e+08 -0 -0 -1.94149e+09 -1.56989e+09
3 2 0.5 0 0 -5.76829e+08 -3.32625e+08 -0 1.29503e+08 -0 -0 -3.28747e+09 -2.48471e+08
ITEM: TIMESTEP
6
ITEM: NUMBER OF ATOMS
3
ITEM: BOX BOUNDS xy xz yz pp pp pp
0.0000000000000000e+00 5.0030000000000001e+01 3.0000000000001137e-02
0.0000000000000000e+00 5.0000000000000000e+01 0.0000000000000000e+00
0.0000000000000000e+00 5.0000000000000000e+01 0.0000000000000000e+00
ITEM: ATOMS id type x y z c_1[1] c_1[2] c_1[3] c_1[4] c_1[5] c_1[6] c_1[7] c_1[22]
1 2 0.378807 0.321535 0 -2.97751e+08 -5.18434e+08 -0 -9.34469e+07 -0 -0 1.27734e+09 -1.82128e+09
2 2 0 0 0 -7.83221e+08 -1.85787e+08 -0 -2.10066e+08 -0 -0 -1.93706e+09 -1.57276e+09
3 2 0.5 0 0 -5.76471e+08 -3.32646e+08 -0 1.29479e+08 -0 -0 -3.28505e+09 -2.48519e+08
ITEM: TIMESTEP
7
ITEM: NUMBER OF ATOMS
3
ITEM: BOX BOUNDS xy xz yz pp pp pp
0.0000000000000000e+00 5.0034999999999997e+01 3.4999999999996589e-02
0.0000000000000000e+00 5.0000000000000000e+01 0.0000000000000000e+00
0.0000000000000000e+00 5.0000000000000000e+01 0.0000000000000000e+00
ITEM: ATOMS id type x y z c_1[1] c_1[2] c_1[3] c_1[4] c_1[5] c_1[6] c_1[7] c_1[22]
1 2 0.378839 0.321535 0 -2.97934e+08 -5.18569e+08 -0 -9.36254e+07 -0 -0 1.27938e+09 -1.8242e+09
2 2 0 0 0 -7.83089e+08 -1.85902e+08 -0 -2.1022e+08 -0 -0 -1.93262e+09 -1.57563e+09
3 2 0.5 0 0 -5.76113e+08 -3.32668e+08 -0 1.29455e+08 -0 -0 -3.28262e+09 -2.48566e+08
ITEM: TIMESTEP
8
ITEM: NUMBER OF ATOMS
3
ITEM: BOX BOUNDS xy xz yz pp pp pp
0.0000000000000000e+00 5.0039999999999999e+01 3.9999999999999147e-02
0.0000000000000000e+00 5.0000000000000000e+01 0.0000000000000000e+00
0.0000000000000000e+00 5.0000000000000000e+01 0.0000000000000000e+00
ITEM: ATOMS id type x y z c_1[1] c_1[2] c_1[3] c_1[4] c_1[5] c_1[6] c_1[7] c_1[22]
1 2 0.378871 0.321535 0 -2.98118e+08 -5.18705e+08 -0 -9.38043e+07 -0 -0 1.28142e+09 -1.82712e+09
2 2 0 0 0 -7.82957e+08 -1.86016e+08 -0 -2.10374e+08 -0 -0 -1.92817e+09 -1.5785e+09
3 2 0.5 0 0 -5.75756e+08 -3.32689e+08 -0 1.29431e+08 -0 -0 -3.28019e+09 -2.48614e+08
ITEM: TIMESTEP
9
ITEM: NUMBER OF ATOMS
3
ITEM: BOX BOUNDS xy xz yz pp pp pp
0.0000000000000000e+00 5.0045000000000002e+01 4.5000000000001705e-02
0.0000000000000000e+00 5.0000000000000000e+01 0.0000000000000000e+00
0.0000000000000000e+00 5.0000000000000000e+01 0.0000000000000000e+00
ITEM: ATOMS id type x y z c_1[1] c_1[2] c_1[3] c_1[4] c_1[5] c_1[6] c_1[7] c_1[22]
1 2 0.378903 0.321535 0 -2.98302e+08 -5.18841e+08 -0 -9.39835e+07 -0 -0 1.28345e+09 -1.83003e+09
2 2 0 0 0 -7.82825e+08 -1.86131e+08 -0 -2.10529e+08 -0 -0 -1.92372e+09 -1.58137e+09
3 2 0.5 0 0 -5.75398e+08 -3.3271e+08 -0 1.29407e+08 -0 -0 -3.27776e+09 -2.48661e+08
ITEM: TIMESTEP
10
ITEM: NUMBER OF ATOMS
3
ITEM: BOX BOUNDS xy xz yz pp pp pp
0.0000000000000000e+00 5.0049999999999997e+01 4.9999999999997158e-02
0.0000000000000000e+00 5.0000000000000000e+01 0.0000000000000000e+00
0.0000000000000000e+00 5.0000000000000000e+01 0.0000000000000000e+00
ITEM: ATOMS id type x y z c_1[1] c_1[2] c_1[3] c_1[4] c_1[5] c_1[6] c_1[7] c_1[22]
1 2 0.378936 0.321535 0 -2.98486e+08 -5.18977e+08 -0 -9.4163e+07 -0 -0 1.28549e+09 -1.83295e+09
2 2 0 0 0 -7.82694e+08 -1.86246e+08 -0 -2.10683e+08 -0 -0 -1.91927e+09 -1.58424e+09
3 2 0.5 0 0 -5.75041e+08 -3.32731e+08 -0 1.29383e+08 -0 -0 -3.27532e+09 -2.48708e+08
ITEM: TIMESTEP
11
ITEM: NUMBER OF ATOMS
3
ITEM: BOX BOUNDS xy xz yz pp pp pp
0.0000000000000000e+00 5.0055000000000000e+01 5.4999999999999716e-02
0.0000000000000000e+00 5.0000000000000000e+01 0.0000000000000000e+00
0.0000000000000000e+00 5.0000000000000000e+01 0.0000000000000000e+00
ITEM: ATOMS id type x y z c_1[1] c_1[2] c_1[3] c_1[4] c_1[5] c_1[6] c_1[7] c_1[22]
1 2 0.378968 0.321535 0 -2.98671e+08 -5.19114e+08 -0 -9.43427e+07 -0 -0 1.28752e+09 -1.83586e+09
2 2 0 0 0 -7.82563e+08 -1.86361e+08 -0 -2.10838e+08 -0 -0 -1.91482e+09 -1.58711e+09
3 2 0.5 0 0 -5.74683e+08 -3.32752e+08 -0 1.29359e+08 -0 -0 -3.27287e+09 -2.48756e+08
ITEM: TIMESTEP
12
ITEM: NUMBER OF ATOMS
3
ITEM: BOX BOUNDS xy xz yz pp pp pp
0.0000000000000000e+00 5.0060000000000002e+01 6.0000000000002274e-02
0.0000000000000000e+00 5.0000000000000000e+01 0.0000000000000000e+00
0.0000000000000000e+00 5.0000000000000000e+01 0.0000000000000000e+00
ITEM: ATOMS id type x y z c_1[1] c_1[2] c_1[3] c_1[4] c_1[5] c_1[6] c_1[7] c_1[22]
1 2 0.379 0.321535 0 -2.98856e+08 -5.19251e+08 -0 -9.45228e+07 -0 -0 1.28955e+09 -1.83878e+09
2 2 0 0 0 -7.82433e+08 -1.86477e+08 -0 -2.10994e+08 -0 -0 -1.91036e+09 -1.58997e+09
3 2 0.5 0 0 -5.74326e+08 -3.32774e+08 -0 1.29335e+08 -0 -0 -3.27042e+09 -2.48803e+08
ITEM: TIMESTEP
13
ITEM: NUMBER OF ATOMS
3
ITEM: BOX BOUNDS xy xz yz pp pp pp
0.0000000000000000e+00 5.0064999999999998e+01 6.4999999999997726e-02
0.0000000000000000e+00 5.0000000000000000e+01 0.0000000000000000e+00
0.0000000000000000e+00 5.0000000000000000e+01 0.0000000000000000e+00
ITEM: ATOMS id type x y z c_1[1] c_1[2] c_1[3] c_1[4] c_1[5] c_1[6] c_1[7] c_1[22]
1 2 0.379032 0.321535 0 -2.99042e+08 -5.19388e+08 -0 -9.47032e+07 -0 -0 1.29158e+09 -1.84169e+09
2 2 0 0 0 -7.82303e+08 -1.86593e+08 -0 -2.11149e+08 -0 -0 -1.9059e+09 -1.59284e+09
3 2 0.5 0 0 -5.73969e+08 -3.32795e+08 -0 1.29311e+08 -0 -0 -3.26796e+09 -2.4885e+08
ITEM: TIMESTEP
14
ITEM: NUMBER OF ATOMS
3
ITEM: BOX BOUNDS xy xz yz pp pp pp
0.0000000000000000e+00 5.0070000000000000e+01 7.0000000000000284e-02
0.0000000000000000e+00 5.0000000000000000e+01 0.0000000000000000e+00
0.0000000000000000e+00 5.0000000000000000e+01 0.0000000000000000e+00
ITEM: ATOMS id type x y z c_1[1] c_1[2] c_1[3] c_1[4] c_1[5] c_1[6] c_1[7] c_1[22]
1 2 0.379064 0.321535 0 -2.99227e+08 -5.19525e+08 -0 -9.48839e+07 -0 -0 1.2936e+09 -1.8446e+09
2 2 0 0 0 -7.82173e+08 -1.86709e+08 -0 -2.11305e+08 -0 -0 -1.90144e+09 -1.5957e+09
3 2 0.5 0 0 -5.73612e+08 -3.32816e+08 -0 1.29287e+08 -0 -0 -3.2655e+09 -2.48898e+08
ITEM: TIMESTEP
15
ITEM: NUMBER OF ATOMS
3
ITEM: BOX BOUNDS xy xz yz pp pp pp
0.0000000000000000e+00 5.0075000000000003e+01 7.5000000000002842e-02
0.0000000000000000e+00 5.0000000000000000e+01 0.0000000000000000e+00
0.0000000000000000e+00 5.0000000000000000e+01 0.0000000000000000e+00
ITEM: ATOMS id type x y z c_1[1] c_1[2] c_1[3] c_1[4] c_1[5] c_1[6] c_1[7] c_1[22]
1 2 0.379096 0.321535 0 -2.99414e+08 -5.19662e+08 -0 -9.50648e+07 -0 -0 1.29563e+09 -1.84751e+09
2 2 0 0 0 -7.82044e+08 -1.86825e+08 -0 -2.11461e+08 -0 -0 -1.89697e+09 -1.59856e+09
3 2 0.5 0 0 -5.73255e+08 -3.32837e+08 -0 1.29263e+08 -0 -0 -3.26304e+09 -2.48945e+08
ITEM: TIMESTEP
16
ITEM: NUMBER OF ATOMS
3
ITEM: BOX BOUNDS xy xz yz pp pp pp
0.0000000000000000e+00 5.0079999999999998e+01 7.9999999999998295e-02
0.0000000000000000e+00 5.0000000000000000e+01 0.0000000000000000e+00
0.0000000000000000e+00 5.0000000000000000e+01 0.0000000000000000e+00
ITEM: ATOMS id type x y z c_1[1] c_1[2] c_1[3] c_1[4] c_1[5] c_1[6] c_1[7] c_1[22]
1 2 0.379128 0.321535 0 -2.996e+08 -5.198e+08 -0 -9.52461e+07 -0 -0 1.29765e+09 -1.85041e+09
2 2 0 0 0 -7.81916e+08 -1.86941e+08 -0 -2.11618e+08 -0 -0 -1.89251e+09 -1.60142e+09
3 2 0.5 0 0 -5.72898e+08 -3.32858e+08 -0 1.29239e+08 -0 -0 -3.26056e+09 -2.48992e+08
ITEM: TIMESTEP
17
ITEM: NUMBER OF ATOMS
3
ITEM: BOX BOUNDS xy xz yz pp pp pp
0.0000000000000000e+00 5.0085000000000001e+01 8.5000000000000853e-02
0.0000000000000000e+00 5.0000000000000000e+01 0.0000000000000000e+00
0.0000000000000000e+00 5.0000000000000000e+01 0.0000000000000000e+00
ITEM: ATOMS id type x y z c_1[1] c_1[2] c_1[3] c_1[4] c_1[5] c_1[6] c_1[7] c_1[22]
1 2 0.379161 0.321535 0 -2.99787e+08 -5.19938e+08 -0 -9.54277e+07 -0 -0 1.29967e+09 -1.85332e+09
2 2 0 0 0 -7.81788e+08 -1.87058e+08 -0 -2.11775e+08 -0 -0 -1.88803e+09 -1.60428e+09
3 2 0.5 0 0 -5.72541e+08 -3.3288e+08 -0 1.29215e+08 -0 -0 -3.25809e+09 -2.4904e+08
ITEM: TIMESTEP
18
ITEM: NUMBER OF ATOMS
3
ITEM: BOX BOUNDS xy xz yz pp pp pp
0.0000000000000000e+00 5.0090000000000003e+01 9.0000000000003411e-02
0.0000000000000000e+00 5.0000000000000000e+01 0.0000000000000000e+00
0.0000000000000000e+00 5.0000000000000000e+01 0.0000000000000000e+00
ITEM: ATOMS id type x y z c_1[1] c_1[2] c_1[3] c_1[4] c_1[5] c_1[6] c_1[7] c_1[22]
1 2 0.379193 0.321535 0 -2.99975e+08 -5.20076e+08 -0 -9.56095e+07 -0 -0 1.30168e+09 -1.85623e+09
2 2 0 0 0 -7.8166e+08 -1.87175e+08 -0 -2.11932e+08 -0 -0 -1.88356e+09 -1.60714e+09
3 2 0.5 0 0 -5.72184e+08 -3.32901e+08 -0 1.29191e+08 -0 -0 -3.2556e+09 -2.49087e+08
ITEM: TIMESTEP
19
ITEM: NUMBER OF ATOMS
3
ITEM: BOX BOUNDS xy xz yz pp pp pp
0.0000000000000000e+00 5.0094999999999999e+01 9.4999999999998863e-02
0.0000000000000000e+00 5.0000000000000000e+01 0.0000000000000000e+00
0.0000000000000000e+00 5.0000000000000000e+01 0.0000000000000000e+00
ITEM: ATOMS id type x y z c_1[1] c_1[2] c_1[3] c_1[4] c_1[5] c_1[6] c_1[7] c_1[22]
1 2 0.379225 0.321535 0 -3.00163e+08 -5.20214e+08 -0 -9.57917e+07 -0 -0 1.3037e+09 -1.85913e+09
2 2 0 0 0 -7.81533e+08 -1.87292e+08 -0 -2.12089e+08 -0 -0 -1.87908e+09 -1.60999e+09
3 2 0.5 0 0 -5.71828e+08 -3.32922e+08 -0 1.29167e+08 -0 -0 -3.25311e+09 -2.49135e+08
ITEM: TIMESTEP
20
ITEM: NUMBER OF ATOMS
3
ITEM: BOX BOUNDS xy xz yz pp pp pp
0.0000000000000000e+00 5.0100000000000001e+01 1.0000000000000142e-01
0.0000000000000000e+00 5.0000000000000000e+01 0.0000000000000000e+00
0.0000000000000000e+00 5.0000000000000000e+01 0.0000000000000000e+00
ITEM: ATOMS id type x y z c_1[1] c_1[2] c_1[3] c_1[4] c_1[5] c_1[6] c_1[7] c_1[22]
1 2 0.379257 0.321535 0 -3.00351e+08 -5.20352e+08 -0 -9.59741e+07 -0 -0 1.30571e+09 -1.86203e+09
2 2 0 0 0 -7.81406e+08 -1.87409e+08 -0 -2.12247e+08 -0 -0 -1.8746e+09 -1.61285e+09
3 2 0.5 0 0 -5.71471e+08 -3.32943e+08 -0 1.29143e+08 -0 -0 -3.25062e+09 -2.49182e+08
