ITEM: TIMESTEP
0
ITEM: NUMBER OF ATOMS
3
ITEM: BOX BOUNDS xy xz yz pp pp pp
0.0000000000000000e+00 5.0000000000000000e+01 0.0000000000000000e+00
0.0000000000000000e+00 5.0000000000000000e+01 0.0000000000000000e+00
0.0000000000000000e+00 5.0000000000000000e+01 0.0000000000000000e+00
ITEM: ATOMS id type x y z c_1[1] c_1[2] c_1[3] c_1[4] c_1[5] c_1[6] c_1[7] c_1[22]
1 2 0.4 0.34 0 -4.29166e+09 -2.20496e+10 -0 -9.72777e+09 -0 -0 -4.70176e+10 -2.41566e+11
2 2 0 0 0 -3.1753e+10 -0 -0 -0 -0 -0 -1.74553e+15 -0
3 2 0.25 0 0 -3.60447e+10 -2.20496e+10 -0 -9.72777e+09 -0 -0 -1.74558e+15 -2.41566e+11
ITEM: TIMESTEP
1
ITEM: NUMBER OF ATOMS
3
ITEM: BOX BOUNDS xy xz yz pp pp pp
0.0000000000000000e+00 5.0000500000000002e+01 5.0000000000238742e-04
0.0000000000000000e+00 5.0000000000000000e+01 0.0000000000000000e+00
0.0000000000000000e+00 5.0000000000000000e+01 0.0000000000000000e+00
ITEM: ATOMS id type x y z c_1[1] c_1[2] c_1[3] c_1[4] c_1[5] c_1[6] c_1[7] c_1[22]
1 2 0.400003 0.34 0 -4.29166e+09 -2.20496e+10 -0 -9.72777e+09 -0 -0 -4.70176e+10 -2.41566e+11
2 2 0 0 0 -3.1753e+10 -0 -0 -0 -0 -0 -1.74553e+15 -0
3 2 0.25 0 0 -3.60447e+10 -2.20496e+10 -0 -9.72777e+09 -0 -0 -1.74558e+15 -2.41566e+11
ITEM: TIMESTEP
2
ITEM: NUMBER OF ATOMS
3
ITEM: BOX BOUNDS xy xz yz pp pp pp
0.0000000000000000e+00 5.0000999999999998e+01 9.9999999999766942e-04
0.0000000000000000e+00 5.0000000000000000e+01 0.0000000000000000e+00
0.0000000000000000e+00 5.0000000000000000e+01 0.0000000000000000e+00
ITEM: ATOMS id type x y z c_1[1] c_1[2] c_1[3] c_1[4] c_1[5] c_1[6] c_1[7] c_1[22]
1 2 0.400007 0.34 0 -4.29181e+09 -2.20494e+10 -0 -9.72789e+09 -0 -0 -4.81818e+18 -2.47536e+19
2 2 0 0 0 -3.1753e+10 -0 -0 -0 -0 -0 -1.17869e+23 -0
3 2 0.25 0 0 -3.60448e+10 -2.20494e+10 -0 -9.72789e+09 -0 -0 -1.17874e+23 -2.47536e+19
ITEM: TIMESTEP
3
ITEM: NUMBER OF ATOMS
3
ITEM: BOX BOUNDS xy xz yz pp pp pp
0.0000000000000000e+00 5.0001500000000000e+01 1.5000000000000568e-03
0.0000000000000000e+00 5.0000000000000000e+01 0.0000000000000000e+00
0.0000000000000000e+00 5.0000000000000000e+01 0.0000000000000000e+00
ITEM: ATOMS id type x y z c_1[1] c_1[2] c_1[3] c_1[4] c_1[5] c_1[6] c_1[7] c_1[22]
1 2 0.40001 0.34 0 -4.29196e+09 -2.20492e+10 -0 -9.72801e+09 -0 -0 -3.2506e+26 -1.66993e+27
2 2 0 0 0 -3.1753e+10 -0 -0 -0 -0 -0 -7.95154e+30 -0
3 2 0.25 0 0 -3.6045e+10 -2.20492e+10 -0 -9.72801e+09 -0 -0 -7.95186e+30 -1.66993e+27
ITEM: TIMESTEP
4
ITEM: NUMBER OF ATOMS
3
ITEM: BOX BOUNDS xy xz yz pp pp pp
0.0000000000000000e+00 5.0002000000000002e+01 2.0000000000024443e-03
0.0000000000000000e+00 5.0000000000000000e+01 0.0000000000000000e+00
0.0000000000000000e+00 5.0000000000000000e+01 0.0000000000000000e+00
ITEM: ATOMS id type x y z c_1[1] c_1[2] c_1[3] c_1[4] c_1[5] c_1[6] c_1[7] c_1[22]
1 2 0.400014 0.34 0 -4.29211e+09 -2.20489e+10 -0 -9.72813e+09 -0 -0 -2.193e+34 -1.12656e+35
2 2 0 0 0 -3.1753e+10 -0 -0 -0 -0 -0 -5.36412e+38 -0
3 2 0.25 0 0 -3.60451e+10 -2.20489e+10 -0 -9.72813e+09 -0 -0 -5.36434e+38 -1.12656e+35
ITEM: TIMESTEP
5
ITEM: NUMBER OF ATOMS
3
ITEM: BOX BOUNDS xy xz yz pp pp pp
0.0000000000000000e+00 5.0002499999999998e+01 2.4999999999977263e-03
0.0000000000000000e+00 5.0000000000000000e+01 0.0000000000000000e+00
0.0000000000000000e+00 5.0000000000000000e+01 0.0000000000000000e+00
ITEM: ATOMS id type x y z c_1[1] c_1[2] c_1[3] c_1[4] c_1[5] c_1[6] c_1[7] c_1[22]
1 2 0.400017 0.34 0 -4.29227e+09 -2.20487e+10 -0 -9.72825e+09 -0 -0 -1.47948e+42 -7.59986e+42
2 2 0 0 0 -3.1753e+10 -0 -0 -0 -0 -0 -3.6186e+46 -0
3 2 0.25 0 0 -3.60453e+10 -2.20487e+10 -0 -9.72825e+09 -0 -0 -3.61875e+46 -7.59986e+42
ITEM: TIMESTEP
6
ITEM: NUMBER OF ATOMS
3
ITEM: BOX BOUNDS xy xz yz pp pp pp
0.0000000000000000e+00 5.0003000000000000e+01 3.0000000000001137e-03
0.0000000000000000e+00 5.0000000000000000e+01 0.0000000000000000e+00
0.0000000000000000e+00 5.0000000000000000e+01 0.0000000000000000e+00
ITEM: ATOMS id type x y z c_1[1] c_1[2] c_1[3] c_1[4] c_1[5] c_1[6] c_1[7] c_1[22]
1 2 0.40002 0.34 0 -4.29242e+09 -2.20485e+10 -0 -9.72837e+09 -0 -0 -9.98102e+49 -5.12686e+50
2 2 0 0 0 -3.1753e+10 -0 -0 -0 -0 -0 -2.44106e+54 -0
3 2 0.25 0 0 -3.60454e+10 -2.20485e+10 -0 -9.72837e+09 -0 -0 -2.44116e+54 -5.12686e+50
ITEM: TIMESTEP
7
ITEM: NUMBER OF ATOMS
3
ITEM: BOX BOUNDS xy xz yz pp pp pp
0.0000000000000000e+00 5.0003500000000003e+01 3.5000000000025011e-03
0.0000000000000000e+00 5.0000000000000000e+01 0.0000000000000000e+00
0.0000000000000000e+00 5.0000000000000000e+01 0.0000000000000000e+00
ITEM: ATOMS id type x y z c_1[1] c_1[2] c_1[3] c_1[4] c_1[5] c_1[6] c_1[7] c_1[22]
1 2 0.400024 0.34 0 -4.29257e+09 -2.20483e+10 -0 -9.72849e+09 -0 -0 -6.73343e+57 -3.45854e+58
2 2 0 0 0 -3.1753e+10 -0 -0 -0 -0 -0 -1.64669e+62 -0
3 2 0.25 0 0 -3.60456e+10 -2.20483e+10 -0 -9.72849e+09 -0 -0 -1.64676e+62 -3.45854e+58
ITEM: TIMESTEP
8
ITEM: NUMBER OF ATOMS
3
ITEM: BOX BOUNDS xy xz yz pp pp pp
0.0000000000000000e+00 5.0003999999999998e+01 3.9999999999977831e-03
0.0000000000000000e+00 5.0000000000000000e+01 0.0000000000000000e+00
0.0000000000000000e+00 5.0000000000000000e+01 0.0000000000000000e+00
ITEM: ATOMS id type x y z c_1[1] c_1[2] c_1[3] c_1[4] c_1[5] c_1[6] c_1[7] c_1[22]
1 2 0.400027 0.34 0 -4.29272e+09 -2.2048e+10 -0 -9.72861e+09 -0 -0 -4.54248e+65 -2.33308e+66
2 2 0 0 0 -3.1753e+10 -0 -0 -0 -0 -0 -1.11081e+70 -0
3 2 0.25 0 0 -3.60457e+10 -2.2048e+10 -0 -9.72861e+09 -0 -0 -1.11086e+70 -2.33308e+66
ITEM: TIMESTEP
9
ITEM: NUMBER OF ATOMS
3
ITEM: BOX BOUNDS xy xz yz pp pp pp
0.0000000000000000e+00 5.0004500000000000e+01 4.5000000000001705e-03
0.0000000000000000e+00 5.0000000000000000e+01 0.0000000000000000e+00
0.0000000000000000e+00 5.0000000000000000e+01 0.0000000000000000e+00
ITEM: ATOMS id type x y z c_1[1] c_1[2] c_1[3] c_1[4] c_1[5] c_1[6] c_1[7] c_1[22]
1 2 0.400031 0.34 0 -4.29287e+09 -2.20478e+10 -0 -9.72873e+09 -0 -0 -3.0644e+73 -1.57385e+74
2 2 0 0 0 -3.1753e+10 -0 -0 -0 -0 -0 -7.49317e+77 -0
3 2 0.25 0 0 -3.60459e+10 -2.20478e+10 -0 -9.72873e+09 -0 -0 -7.49347e+77 -1.57385e+74
ITEM: TIMESTEP
10
ITEM: NUMBER OF ATOMS
3
ITEM: BOX BOUNDS xy xz yz pp pp pp
0.0000000000000000e+00 5.0005000000000003e+01 5.0000000000025580e-03
0.0000000000000000e+00 5.0000000000000000e+01 0.0000000000000000e+00
0.0000000000000000e+00 5.0000000000000000e+01 0.0000000000000000e+00
ITEM: ATOMS id type x y z c_1[1] c_1[2] c_1[3] c_1[4] c_1[5] c_1[6] c_1[7] c_1[22]
1 2 0.400034 0.34 0 -4.29302e+09 -2.20476e+10 -0 -9.72886e+09 -0 -0 -2.06725e+81 -1.06167e+82
2 2 0 0 0 -3.1753e+10 -0 -0 -0 -0 -0 -5.05458e+85 -0
3 2 0.25 0 0 -3.6046e+10 -2.20476e+10 -0 -9.72886e+09 -0 -0 -5.05478e+85 -1.06167e+82
ITEM: TIMESTEP
11
ITEM: NUMBER OF ATOMS
3
ITEM: BOX BOUNDS xy xz yz pp pp pp
0.0000000000000000e+00 5.0005499999999998e+01 5.4999999999978400e-03
0.0000000000000000e+00 5.0000000000000000e+01 0.0000000000000000e+00
0.0000000000000000e+00 5.0000000000000000e+01 0.0000000000000000e+00
ITEM: ATOMS id type x y z c_1[1] c_1[2] c_1[3] c_1[4] c_1[5] c_1[6] c_1[7] c_1[22]
1 2 0.400037 0.34 0 -4.29317e+09 -2.20473e+10 -0 -9.72898e+09 -0 -0 -1.39455e+89 -7.16165e+89
2 2 0 0 0 -3.1753e+10 -0 -0 -0 -0 -0 -3.40957e+93 -0
3 2 0.25 0 0 -3.60462e+10 -2.20473e+10 -0 -9.72898e+09 -0 -0 -3.40971e+93 -7.16165e+89
ITEM: TIMESTEP
12
ITEM: NUMBER OF ATOMS
3
ITEM: BOX BOUNDS xy xz yz pp pp pp
0.0000000000000000e+00 5.0006000000000000e+01 6.0000000000002274e-03
0.0000000000000000e+00 5.0000000000000000e+01 0.0000000000000000e+00
0.0000000000000000e+00 5.0000000000000000e+01 0.0000000000000000e+00
ITEM: ATOMS id type x y z c_1[1] c_1[2] c_1[3] c_1[4] c_1[5] c_1[6] c_1[7] c_1[22]
1 2 0.400041 0.34 0 -4.29332e+09 -2.20471e+10 -0 -9.7291e+09 -0 -0 -9.40747e+96 -4.83094e+97
2 2 0 0 0 -3.1753e+10 -0 -0 -0 -0 -0 -2.29991e+101 -0
3 2 0.25 0 0 -3.60463e+10 -2.20471e+10 -0 -9.7291e+09 -0 -0 -2.3e+101 -4.83094e+97
ITEM: TIMESTEP
13
ITEM: NUMBER OF ATOMS
3
ITEM: BOX BOUNDS xy xz yz pp pp pp
0.0000000000000000e+00 5.0006500000000003e+01 6.5000000000026148e-03
0.0000000000000000e+00 5.0000000000000000e+01 0.0000000000000000e+00
0.0000000000000000e+00 5.0000000000000000e+01 0.0000000000000000e+00
ITEM: ATOMS id type x y z c_1[1] c_1[2] c_1[3] c_1[4] c_1[5] c_1[6] c_1[7] c_1[22]
1 2 0.400044 0.34 0 -4.29347e+09 -2.20469e+10 -0 -9.72922e+09 -0 -0 -6.34609e+104 -3.25871e+105
2 2 0 0 0 -3.1753e+10 -0 -0 -0 -0 -0 -1.55137e+109 -0
3 2 0.25 0 0 -3.60465e+10 -2.20469e+10 -0 -9.72922e+09 -0 -0 -1.55143e+109 -3.25871e+105
ITEM: TIMESTEP
14
ITEM: NUMBER OF ATOMS
3
ITEM: BOX BOUNDS xy xz yz pp pp pp
0.0000000000000000e+00 5.0006999999999998e+01 6.9999999999978968e-03
0.0000000000000000e+00 5.0000000000000000e+01 0.0000000000000000e+00
0.0000000000000000e+00 5.0000000000000000e+01 0.0000000000000000e+00
ITEM: ATOMS id type x y z c_1[1] c_1[2] c_1[3] c_1[4] c_1[5] c_1[6] c_1[7] c_1[22]
1 2 0.400048 0.34 0 -4.29362e+09 -2.20467e+10 -0 -9.72934e+09 -0 -0 -4.2809e+112 -2.19814e+113
2 2 0 0 0 -3.1753e+10 -0 -0 -0 -0 -0 -1.04644e+117 -0
3 2 0.25 0 0 -3.60466e+10 -2.20467e+10 -0 -9.72934e+09 -0 -0 -1.04649e+117 -2.19814e+113
ITEM: TIMESTEP
15
ITEM: NUMBER OF ATOMS
3
ITEM: BOX BOUNDS xy xz yz pp pp pp
0.0000000000000000e+00 5.0007500000000000e+01 7.5000000000002842e-03
0.0000000000000000e+00 5.0000000000000000e+01 0.0000000000000000e+00
0.0000000000000000e+00 5.0000000000000000e+01 0.0000000000000000e+00
ITEM: ATOMS id type x y z c_1[1] c_1[2] c_1[3] c_1[4] c_1[5] c_1[6] c_1[7] c_1[22]
1 2 0.400051 0.34 0 -4.29377e+09 -2.20464e+10 -0 -9.72946e+09 -0 -0 -2.88775e+120 -1.48272e+121
2 2 0 0 0 -3.1753e+10 -0 -0 -0 -0 -0 -7.0585e+124 -0
3 2 0.25 0 0 -3.60468e+10 -2.20464e+10 -0 -9.72946e+09 -0 -0 -7.05879e+124 -1.48272e+121
ITEM: TIMESTEP
16
ITEM: NUMBER OF ATOMS
3
ITEM: BOX BOUNDS xy xz yz pp pp pp
0.0000000000000000e+00 5.0008000000000003e+01 8.0000000000026716e-03
0.0000000000000000e+00 5.0000000000000000e+01 0.0000000000000000e+00
0.0000000000000000e+00 5.0000000000000000e+01 0.0000000000000000e+00
ITEM: ATOMS id type x y z c_1[1] c_1[2] c_1[3] c_1[4] c_1[5] c_1[6] c_1[7] c_1[22]
1 2 0.400054 0.34 0 -4.29392e+09 -2.20462e+10 -0 -9.72958e+09 -0 -0 -1.94796e+128 -1.00014e+129
2 2 0 0 0 -3.1753e+10 -0 -0 -0 -0 -0 -4.76107e+132 -0
3 2 0.25 0 0 -3.60469e+10 -2.20462e+10 -0 -9.72958e+09 -0 -0 -4.76126e+132 -1.00014e+129
ITEM: TIMESTEP
17
ITEM: NUMBER OF ATOMS
3
ITEM: BOX BOUNDS xy xz yz pp pp pp
0.0000000000000000e+00 5.0008499999999998e+01 8.4999999999979536e-03
0.0000000000000000e+00 5.0000000000000000e+01 0.0000000000000000e+00
0.0000000000000000e+00 5.0000000000000000e+01 0.0000000000000000e+00
ITEM: ATOMS id type x y z c_1[1] c_1[2] c_1[3] c_1[4] c_1[5] c_1[6] c_1[7] c_1[22]
1 2 0.400058 0.34 0 -4.29407e+09 -2.2046e+10 -0 -9.7297e+09 -0 -0 -1.314e+136 -6.74612e+136
2 2 0 0 0 -3.1753e+10 -0 -0 -0 -0 -0 -3.21138e+140 -0
3 2 0.25 0 0 -3.60471e+10 -2.2046e+10 -0 -9.7297e+09 -0 -0 -3.21151e+140 -6.74612e+136
ITEM: TIMESTEP
18
ITEM: NUMBER OF ATOMS
3
ITEM: BOX BOUNDS xy xz yz pp pp pp
0.0000000000000000e+00 5.0009000000000000e+01 9.0000000000003411e-03
0.0000000000000000e+00 5.0000000000000000e+01 0.0000000000000000e+00
0.0000000000000000e+00 5.0000000000000000e+01 0.0000000000000000e+00
ITEM: ATOMS id type x y z c_1[1] c_1[2] c_1[3] c_1[4] c_1[5] c_1[6] c_1[7] c_1[22]
1 2 0.400061 0.34 0 -4.29422e+09 -2.20458e+10 -0 -9.72982e+09 -0 -0 -8.86348e+143 -4.55035e+144
2 2 0 0 0 -3.1753e+10 -0 -0 -0 -0 -0 -2.16607e+148 -0
3 2 0.25 0 0 -3.60472e+10 -2.20458e+10 -0 -9.72982e+09 -0 -0 -2.16616e+148 -4.55035e+144
ITEM: TIMESTEP
19
ITEM: NUMBER OF ATOMS
3
ITEM: BOX BOUNDS xy xz yz pp pp pp
0.0000000000000000e+00 5.0009500000000003e+01 9.5000000000027285e-03
0.0000000000000000e+00 5.0000000000000000e+01 0.0000000000000000e+00
0.0000000000000000e+00 5.0000000000000000e+01 0.0000000000000000e+00
ITEM: ATOMS id type x y z c_1[1] c_1[2] c_1[3] c_1[4] c_1[5] c_1[6] c_1[7] c_1[22]
1 2 0.400065 0.34 0 -4.29437e+09 -2.20455e+10 -0 -9.72994e+09 -0 -0 -5.97874e+151 -3.06924e+152
2 2 0 0 0 -3.1753e+10 -0 -0 -0 -0 -0 -1.461e+156 -0
3 2 0.25 0 0 -3.60474e+10 -2.20455e+10 -0 -9.72994e+09 -0 -0 -1.46106e+156 -3.06924e+152
ITEM: TIMESTEP
20
ITEM: NUMBER OF ATOMS
3
ITEM: BOX BOUNDS xy xz yz pp pp pp
0.0000000000000000e+00 5.0009999999999998e+01 9.9999999999980105e-03
0.0000000000000000e+00 5.0000000000000000e+01 0.0000000000000000e+00
0.0000000000000000e+00 5.0000000000000000e+01 0.0000000000000000e+00
ITEM: ATOMS id type x y z c_1[1] c_1[2] c_1[3] c_1[4] c_1[5] c_1[6] c_1[7] c_1[22]
1 2 0.400068 0.34 0 -4.29452e+09 -2.20453e+10 -0 -9.73006e+09 -0 -0 -4.03284e+159 -2.0702e+160
2 2 0 0 0 -3.1753e+10 -0 -0 -0 -0 -0 -9.85426e+163 -0
3 2 0.25 0 0 -3.60475e+10 -2.20453e+10 -0 -9.73006e+09 -0 -0 -9.85467e+163 -2.0702e+160
