ITEM: TIMESTEP
0
ITEM: NUMBER OF ATOMS
665
ITEM: BOX BOUNDS xy xz yz pp pp pp
-1.0000000000000000e+01 1.0000000000000000e+01 0.0000000000000000e+00
-1.0000000000000000e+01 1.0000000000000000e+01 0.0000000000000000e+00
-1.0000000000000000e+01 1.0000000000000000e+01 0.0000000000000000e+00
ITEM: ATOMS id type x y z c_1[1] c_1[2] c_1[3] c_1[4] c_1[5] c_1[6] c_1[7] c_1[22]
1 2 -7.4 -9.25 -9.25 6.25943e+06 -2.49678e+08 -2.49614e+08 32235.9 -29962.8 -3.35291e+07 1.22596e+08 -2.13389e+08
2 2 -3.7 -9.25 -9.25 6.70835e+06 -2.49613e+08 -2.49568e+08 0.0913009 0.0913009 -3.3573e+07 1.05118e+08 -2.1387e+08
3 2 0 -9.25 -9.25 6.70833e+06 -2.49613e+08 -2.49568e+08 4.09699e-08 4.35137e-08 -3.3573e+07 1.05118e+08 -2.1387e+08
4 2 3.7 -9.25 -9.25 6.70833e+06 -2.49613e+08 -2.49568e+08 -0.0920144 -0.0920144 -3.3573e+07 1.05118e+08 -2.1387e+08
5 2 7.4 -9.25 -9.25 6.25941e+06 -2.49678e+08 -2.49614e+08 -32235.9 29962.8 -3.35291e+07 1.22597e+08 -2.13389e+08
6 2 -9.25 -7.4 -9.25 -2.62098e+08 1.86795e+07 -2.49614e+08 32235.8 -3.39772e+07 418206 2.69857e+09 3.36114e+06
7 2 -5.55 -7.4 -9.25 7.57492e+06 3.25272e+07 -4.58683e+08 263.917 -5.50969 392304 1.54251e+08 -610882
8 2 -7.4 -5.55 -9.25 3.2366e+07 1.98332e+07 -4.58683e+08 -6.04829e+06 168220 224079 -3.07634e+06 -1.53254e+08
9 2 -1.85 -7.4 -9.25 7.63696e+06 3.25267e+07 -4.58683e+08 3.53531e-08 -4.52083e-08 392302 1.50578e+08 -611949
10 2 -3.7 -5.55 -9.25 3.22636e+07 3.22014e+07 -4.5861e+08 -5.92397e-10 0.000158286 -7.46959 2.63088e+07 -1.24695e+08
11 2 1.85 -7.4 -9.25 7.63696e+06 3.25267e+07 -4.58683e+08 4.60258e-08 -7.23635e-08 392302 1.50578e+08 -611949
12 2 0 -5.55 -9.25 3.22636e+07 3.22014e+07 -4.5861e+08 -6.53772e-09 7.12887e-08 -7.46959 2.63088e+07 -1.24695e+08
13 2 5.55 -7.4 -9.25 7.6369e+06 3.25272e+07 -4.58683e+08 -263.917 32.6369 392304 1.50586e+08 -610882
14 2 3.7 -5.55 -9.25 3.22636e+07 3.22014e+07 -4.5861e+08 -2.28186e-10 -0.000159254 -7.46959 2.63088e+07 -1.24695e+08
15 2 9.25 -7.4 -9.25 -2.62036e+08 1.86795e+07 -2.49614e+08 -32197.9 2.07744e+07 418206 2.6949e+09 3.36114e+06
16 2 7.4 -5.55 -9.25 3.2366e+07 1.98332e+07 -4.58683e+08 6.04829e+06 -168220 224079 -3.07632e+06 -1.53254e+08
17 2 -9.25 -3.7 -9.25 -2.49775e+08 1.89667e+07 -2.49568e+08 -6.04855e+06 -3.37971e+07 224083 2.6364e+09 -5.83391e+07
18 2 -5.55 -3.7 -9.25 3.22014e+07 3.22636e+07 -4.5861e+08 27.7342 -7.46158 -0.00785247 2.99813e+07 -1.24631e+08
19 2 -7.4 -1.85 -9.25 3.23654e+07 1.98953e+07 -4.58683e+08 -6.04853e+06 168217 224085 -3.07356e+06 -1.53188e+08
20 2 -1.85 -3.7 -9.25 3.22635e+07 3.22635e+07 -4.5861e+08 3.02391e-09 -4.70507e-08 0.000158285 2.63094e+07 -1.24631e+08
21 2 -3.7 -1.85 -9.25 3.22635e+07 3.22635e+07 -4.5861e+08 -0 0.000158286 -4.73731e-08 2.63094e+07 -1.24631e+08
22 2 1.85 -3.7 -9.25 3.22635e+07 3.22635e+07 -4.5861e+08 2.84604e-09 -7.02135e-08 0.000158284 2.63094e+07 -1.24631e+08
23 2 0 -1.85 -9.25 3.22635e+07 3.22635e+07 -4.5861e+08 4.93441e-09 7.13298e-08 -4.92995e-08 2.63094e+07 -1.24631e+08
24 2 5.55 -3.7 -9.25 3.22634e+07 3.22636e+07 -4.5861e+08 -27.7342 34.5888 -0.00785247 2.63155e+07 -1.24631e+08
25 2 3.7 -1.85 -9.25 3.22635e+07 3.22635e+07 -4.5861e+08 8.09342e-09 -0.000159253 -4.92993e-08 2.63094e+07 -1.24631e+08
26 2 9.25 -3.7 -9.25 -2.49713e+08 1.89667e+07 -2.49568e+08 6.04855e+06 2.05943e+07 224083 2.63274e+09 -5.83391e+07
27 2 7.4 -1.85 -9.25 3.23654e+07 1.98953e+07 -4.58683e+08 6.04853e+06 -168217 224085 -3.07354e+06 -1.53188e+08
28 2 -9.25 0 -9.25 -2.49775e+08 1.89667e+07 -2.49568e+08 -6.04855e+06 -3.37971e+07 224083 2.6364e+09 -5.83391e+07
29 2 -5.55 0 -9.25 3.22014e+07 3.22636e+07 -4.5861e+08 27.7342 -7.46158 -0.00801068 2.99813e+07 -1.24631e+08
30 2 -7.4 1.85 -9.25 3.23654e+07 1.98953e+07 -4.58683e+08 -6.04853e+06 168217 224085 -3.07356e+06 -1.53188e+08
31 2 -1.85 0 -9.25 3.22635e+07 3.22635e+07 -4.5861e+08 1.06591e-08 -5.00725e-08 7.19198e-08 2.63094e+07 -1.24631e+08
32 2 -3.7 1.85 -9.25 3.22635e+07 3.22635e+07 -4.5861e+08 -0 0.000158286 -7.21561e-08 2.63094e+07 -1.24631e+08
33 2 1.85 0 -9.25 3.22635e+07 3.22635e+07 -4.5861e+08 -7.43991e-09 -6.97724e-08 6.9998e-08 2.63094e+07 -1.24631e+08
34 2 0 1.85 -9.25 3.22635e+07 3.22635e+07 -4.5861e+08 -7.43987e-09 7.08222e-08 -6.97558e-08 2.63094e+07 -1.24631e+08
35 2 5.55 0 -9.25 3.22634e+07 3.22636e+07 -4.5861e+08 -27.7342 34.5888 -0.00801068 2.63155e+07 -1.24631e+08
36 2 3.7 1.85 -9.25 3.22635e+07 3.22635e+07 -4.5861e+08 1.77877e-10 -0.000159253 -7.02002e-08 2.63094e+07 -1.24631e+08
37 2 9.25 0 -9.25 -2.49713e+08 1.89667e+07 -2.49568e+08 6.04855e+06 2.05943e+07 224083 2.63274e+09 -5.83391e+07
38 2 7.4 1.85 -9.25 3.23654e+07 1.98953e+07 -4.58683e+08 6.04853e+06 -168217 224085 -3.07354e+06 -1.53188e+08
39 2 -9.25 3.7 -9.25 -2.49775e+08 1.89667e+07 -2.49568e+08 -6.04855e+06 -3.37971e+07 224083 2.6364e+09 -5.83391e+07
40 2 -5.55 3.7 -9.25 3.22014e+07 3.22636e+07 -4.5861e+08 27.7342 -7.46158 -0.00817 2.99813e+07 -1.24631e+08
41 2 -7.4 5.55 -9.25 3.23654e+07 1.98952e+07 -4.58683e+08 -6.04853e+06 168220 224117 -3.0736e+06 -1.53188e+08
42 2 -1.85 3.7 -9.25 3.22635e+07 3.22635e+07 -4.5861e+08 5.33614e-09 -4.16678e-08 -0.000159253 2.63094e+07 -1.24631e+08
43 2 -3.7 5.55 -9.25 3.22635e+07 3.22634e+07 -4.5861e+08 -4.36926e-22 0.000158286 34.5808 2.63094e+07 -1.24631e+08
44 2 1.85 3.7 -9.25 3.22635e+07 3.22635e+07 -4.5861e+08 -8.89873e-11 -6.92832e-08 -0.000159254 2.63094e+07 -1.24631e+08
45 2 0 5.55 -9.25 3.22635e+07 3.22634e+07 -4.5861e+08 7.08444e-09 7.4015e-08 34.5808 2.63094e+07 -1.24631e+08
46 2 5.55 3.7 -9.25 3.22634e+07 3.22636e+07 -4.5861e+08 -27.7342 34.5888 -0.00817 2.63155e+07 -1.24631e+08
47 2 3.7 5.55 -9.25 3.22635e+07 3.22634e+07 -4.5861e+08 3.02391e-09 -0.000159254 34.5808 2.63094e+07 -1.24631e+08
48 2 9.25 3.7 -9.25 -2.49713e+08 1.89667e+07 -2.49568e+08 6.04855e+06 2.05943e+07 224083 2.63274e+09 -5.83391e+07
49 2 7.4 5.55 -9.25 3.23654e+07 1.98952e+07 -4.58683e+08 6.04853e+06 -168220 224117 -3.07358e+06 -1.53188e+08
50 2 -9.25 7.4 -9.25 -2.49839e+08 1.85177e+07 -2.49614e+08 -6.08053e+06 -3.37531e+07 254047 2.63717e+09 -5.80397e+07
51 2 -5.55 7.4 -9.25 3.20915e+07 3.22042e+07 -4.58683e+08 24.5456 -4.87303 55864.2 3.14507e+07 -1.23412e+08
52 2 -7.4 9.25 -9.25 3.09378e+07 -2.62197e+08 -2.49614e+08 -6.08049e+06 194122 2.09985e+07 -2.95253e+07 -3.65447e+08
53 2 -1.85 7.4 -9.25 3.21536e+07 3.22042e+07 -4.58683e+08 1.24078e-08 -4.52253e-08 55867.4 2.77787e+07 -1.23412e+08
54 2 -3.7 9.25 -9.25 3.1225e+07 -2.49874e+08 -2.49568e+08 0.000446003 0.0913056 2.08184e+07 -1.76825e+07 -3.36607e+08
55 2 1.85 7.4 -9.25 3.21536e+07 3.22042e+07 -4.58683e+08 -4.23848e-09 -7.06618e-08 55867.4 2.77787e+07 -1.23412e+08
56 2 0 9.25 -9.25 3.1225e+07 -2.49874e+08 -2.49568e+08 5.07565e-08 4.60445e-08 2.08184e+07 -1.76818e+07 -3.36607e+08
57 2 5.55 7.4 -9.25 3.21535e+07 3.22042e+07 -4.58683e+08 -24.5455 32.0002 55864.2 2.77848e+07 -1.23412e+08
58 2 3.7 9.25 -9.25 3.1225e+07 -2.49874e+08 -2.49568e+08 0.000267442 -0.0920191 2.08184e+07 -1.76818e+07 -3.36607e+08
59 2 9.25 7.4 -9.25 -2.49777e+08 1.85177e+07 -2.49614e+08 6.08049e+06 2.05503e+07 254047 2.6335e+09 -5.80397e+07
60 2 7.4 9.25 -9.25 3.09378e+07 -2.62197e+08 -2.49614e+08 6.08049e+06 -194122 2.09985e+07 -2.95246e+07 -3.65447e+08
61 2 -9.25 -9.25 -7.4 -2.62111e+08 -2.62111e+08 3.10859e+07 -3.43807e+07 462916 462916 2.69755e+09 4.13438e+08
62 2 -5.55 -9.25 -7.4 7.57492e+06 -4.7065e+08 4.44935e+07 -5.81832 264.297 392304 1.54251e+08 -3.38067e+08
63 2 -7.4 -9.25 -5.55 3.23796e+07 -4.58647e+08 1.98882e+07 196149 -6.08257e+06 179366 -2.05915e+06 -3.39642e+08
64 2 -1.85 -9.25 -7.4 7.63697e+06 -4.7065e+08 4.4493e+07 -4.42987e-08 3.11285e-08 392301 1.50578e+08 -3.3807e+08
65 2 -3.7 -9.25 -5.55 3.22636e+07 -4.5861e+08 3.22014e+07 0.000158286 2.22347e-10 -7.46959 2.63088e+07 -3.40887e+08
66 2 1.85 -9.25 -7.4 7.63697e+06 -4.7065e+08 4.4493e+07 -7.04096e-08 3.69095e-08 392301 1.50578e+08 -3.3807e+08
67 2 0 -9.25 -5.55 3.22636e+07 -4.5861e+08 3.22014e+07 7.04934e-08 -1.67322e-08 -7.46959 2.63088e+07 -3.40887e+08
68 2 5.55 -9.25 -7.4 7.6369e+06 -4.7065e+08 4.44935e+07 32.9455 -264.297 392304 1.50586e+08 -3.38067e+08
69 2 3.7 -9.25 -5.55 3.22636e+07 -4.5861e+08 3.22014e+07 -0.000159253 -8.00453e-09 -7.46959 2.63088e+07 -3.40887e+08
70 2 9.25 -9.25 -7.4 -2.62049e+08 -2.62111e+08 3.10859e+07 2.11779e+07 -462879 462916 2.69389e+09 4.13438e+08
71 2 7.4 -9.25 -5.55 3.23796e+07 -4.58647e+08 1.98882e+07 -196149 6.08257e+06 179366 -2.05914e+06 -3.39642e+08
72 2 -9.25 -5.55 -7.4 -4.7065e+08 7.57492e+06 4.44935e+07 -5.81832 392304 264.297 3.39875e+09 2.5543e+07
73 2 -9.25 -7.4 -5.55 -4.70613e+08 4.43459e+07 1.98882e+07 196149 179366 -6.08257e+06 3.3984e+09 1.23388e+08
74 2 -7.4 -7.4 -7.4 -4.70396e+07 -4.70396e+07 -4.70396e+07 -1.88932e+06 -1.88932e+06 -1.88932e+06 2.00317e+08 5.53104e+07
75 2 -5.55 -5.55 -7.4 -1.75195e+07 -1.75195e+07 5.81878e+06 9.60123 27.7949 27.7949 1.7943e+08 1.13731e+07
76 2 -5.55 -7.4 -5.55 -1.75195e+07 6.12227e+06 -5.24967e+06 27.7949 9.60123 -6.28661e+06 1.7943e+08 1.44408e+08
77 2 -7.4 -5.55 -5.55 6.42575e+06 -5.24967e+06 -5.24967e+06 -6.28661e+06 -6.28661e+06 9.60123 3.74553e+06 8.88247e+06
78 2 -3.7 -7.4 -7.4 -4.20465e+07 -2.06099e+07 -2.06099e+07 4.80062 4.80062 -1.8889e+06 2.99272e+08 1.04808e+08
79 2 -1.85 -5.55 -7.4 -1.75067e+07 -1.75195e+07 5.81873e+06 4.80062 3.184e-08 27.7949 1.7852e+08 1.13731e+07
80 2 -1.85 -7.4 -5.55 -1.75067e+07 6.12221e+06 -5.24968e+06 3.41524e-08 4.80062 -6.28661e+06 1.7852e+08 1.44408e+08
81 2 -3.7 -5.55 -5.55 7.03295e+06 7.02013e+06 7.02013e+06 5.6795e-11 -1.77877e-10 9.60123 5.77672e+07 3.59125e+07
82 2 0 -7.4 -7.4 -4.20465e+07 -2.06099e+07 -2.06099e+07 4.80062 4.80062 -1.8889e+06 2.99272e+08 1.04808e+08
83 2 1.85 -5.55 -7.4 -1.75067e+07 -1.75195e+07 5.81873e+06 4.80062 4.1979e-08 27.7949 1.7852e+08 1.13731e+07
84 2 1.85 -7.4 -5.55 -1.75067e+07 6.12221e+06 -5.24968e+06 3.20179e-08 4.80062 -6.28661e+06 1.7852e+08 1.44408e+08
85 2 0 -5.55 -5.55 7.03295e+06 7.02013e+06 7.02013e+06 -6.54714e-10 -7.11509e-10 9.60123 5.77672e+07 3.59125e+07
86 2 3.7 -7.4 -7.4 -4.20465e+07 -2.06099e+07 -2.06099e+07 4.80062 4.80062 -1.8889e+06 2.99272e+08 1.04808e+08
87 2 5.55 -5.55 -7.4 -1.75067e+07 -1.75195e+07 5.81878e+06 4.80062 -27.7949 27.7949 1.7852e+08 1.13731e+07
88 2 5.55 -7.4 -5.55 -1.75067e+07 6.12227e+06 -5.24968e+06 -27.7949 4.80062 -6.28661e+06 1.7852e+08 1.44408e+08
89 2 3.7 -5.55 -5.55 7.03295e+06 7.02013e+06 7.02013e+06 -2.61136e-09 -2.66816e-09 9.60123 5.77672e+07 3.59125e+07
90 2 7.4 -7.4 -7.4 -4.64325e+07 -3.47697e+07 -3.47697e+07 8.17601e+06 8.17601e+06 -1.88932e+06 2.54377e+08 8.23401e+07
91 2 9.25 -5.55 -7.4 -4.70333e+08 1.98448e+07 4.44935e+07 6.28669e+06 -392304 264.289 3.42487e+09 5.25726e+07
92 2 9.25 -7.4 -5.55 -4.70297e+08 4.43459e+07 3.2158e+07 -196149 6.10732e+06 -6.08257e+06 3.42452e+09 1.23388e+08
93 2 7.4 -5.55 -5.55 6.42575e+06 -5.24967e+06 -5.24967e+06 6.28661e+06 6.28661e+06 9.60123 3.74553e+06 8.88247e+06
94 2 -9.25 -1.85 -7.4 -4.7065e+08 7.63697e+06 4.4493e+07 -4.29412e-08 392301 2.63535e-08 3.39875e+09 2.56035e+07
95 2 -9.25 -3.7 -5.55 -4.58306e+08 4.45334e+07 3.22014e+07 -6.28664e+06 -7.46959 -8.89386e-11 3.33768e+09 7.34564e+07
96 2 -7.4 -3.7 -7.4 -2.06099e+07 -4.20465e+07 -2.06099e+07 4.80062 -1.8889e+06 4.80062 7.50006e+07 -4.26734e+07
97 2 -5.55 -1.85 -7.4 -1.75195e+07 -1.75067e+07 5.81873e+06 4.80062 27.7949 3.59312e-08 1.7943e+08 1.13862e+07
98 2 -5.55 -3.7 -5.55 7.02013e+06 7.03294e+06 7.02013e+06 4.80062 9.60123 4.80269e-09 5.86774e+07 3.59256e+07
99 2 -7.4 -1.85 -5.55 6.42568e+06 -5.23689e+06 -5.24968e+06 -6.28663e+06 -6.28661e+06 4.80062 3.74584e+06 8.89581e+06
100 2 -3.7 -3.7 -7.4 -1.75067e+07 -1.75067e+07 5.81868e+06 1.6009e-09 4.80062 4.80062 1.7852e+08 1.13861e+07
101 2 -1.85 -1.85 -7.4 -1.75067e+07 -1.75067e+07 5.81868e+06 -1.52481e-08 3.56323e-08 3.57533e-08 1.7852e+08 1.13861e+07
102 2 -1.85 -3.7 -5.55 7.03292e+06 7.03293e+06 7.02012e+06 7.11509e-10 4.80062 8.32592e-10 5.77673e+07 3.59256e+07
103 2 -3.7 -1.85 -5.55 7.03293e+06 7.03292e+06 7.02012e+06 -0 -3.9133e-09 4.80062 5.77673e+07 3.59256e+07
104 2 0 -3.7 -7.4 -1.75067e+07 -1.75067e+07 5.81868e+06 -1.03169e-08 4.80062 4.80062 1.7852e+08 1.13861e+07
105 2 1.85 -1.85 -7.4 -1.75067e+07 -1.75067e+07 5.81868e+06 -1.6009e-09 4.16233e-08 3.50418e-08 1.7852e+08 1.13861e+07
106 2 1.85 -3.7 -5.55 7.03292e+06 7.03293e+06 7.02012e+06 -3.20179e-09 4.80062 1.06726e-09 5.77673e+07 3.59256e+07
107 2 0 -1.85 -5.55 7.03293e+06 7.03292e+06 7.02012e+06 -4.80269e-09 3.37967e-09 4.80062 5.77673e+07 3.59256e+07
108 2 3.7 -3.7 -7.4 -1.75067e+07 -1.75067e+07 5.81868e+06 2.84604e-09 4.80062 4.80062 1.7852e+08 1.13861e+07
109 2 5.55 -1.85 -7.4 -1.75067e+07 -1.75067e+07 5.81873e+06 5.80303e-09 -27.7949 2.56143e-08 1.7852e+08 1.13861e+07
110 2 5.55 -3.7 -5.55 7.03292e+06 7.03294e+06 7.02012e+06 -4.80062 4.80062 -7.39249e-10 5.77674e+07 3.59256e+07
111 2 3.7 -1.85 -5.55 7.03293e+06 7.03292e+06 7.02012e+06 1.06726e-09 -4.62481e-09 4.80062 5.77673e+07 3.59256e+07
112 2 7.4 -3.7 -7.4 -2.00029e+07 -2.97767e+07 -8.34015e+06 6.28668e+06 8.17555e+06 4.7926 1.2906e+08 -1.56437e+07
113 2 9.25 -1.85 -7.4 -4.70333e+08 1.99068e+07 4.4493e+07 6.28668e+06 -392301 -0.00801071 3.42487e+09 5.26332e+07
114 2 9.25 -3.7 -5.55 -4.5799e+08 4.45334e+07 4.44712e+07 6.28664e+06 6.28665e+06 5.3363e-10 3.3638e+09 7.34564e+07
115 2 7.4 -1.85 -5.55 6.42568e+06 -5.23689e+06 -5.24968e+06 6.28663e+06 6.28661e+06 4.80062 3.74584e+06 8.89581e+06
116 2 -9.25 1.85 -7.4 -4.7065e+08 7.63697e+06 4.4493e+07 -7.03041e-08 392301 4.18733e-08 3.39875e+09 2.56035e+07
117 2 -9.25 0 -5.55 -4.58306e+08 4.45334e+07 3.22014e+07 -6.28664e+06 -7.46959 -1.60771e-08 3.33768e+09 7.34564e+07
118 2 -7.4 0 -7.4 -2.06099e+07 -4.20465e+07 -2.06099e+07 4.80062 -1.8889e+06 4.80062 7.50006e+07 -4.26734e+07
119 2 -5.55 1.85 -7.4 -1.75195e+07 -1.75067e+07 5.81873e+06 4.80062 27.7949 4.1979e-08 1.7943e+08 1.13862e+07
120 2 -5.55 0 -5.55 7.02013e+06 7.03294e+06 7.02013e+06 4.80062 9.60123 -9.22188e-10 5.86774e+07 3.59256e+07
121 2 -7.4 1.85 -5.55 6.42568e+06 -5.23689e+06 -5.24968e+06 -6.28663e+06 -6.28661e+06 4.80062 3.74584e+06 8.89581e+06
122 2 -3.7 0 -7.4 -1.75067e+07 -1.75067e+07 5.81868e+06 -6.58146e-09 4.80062 4.80062 1.7852e+08 1.13861e+07
123 2 -1.85 1.85 -7.4 -1.75067e+07 -1.75067e+07 5.81868e+06 2.1812e-09 3.48312e-08 4.1979e-08 1.7852e+08 1.13861e+07
124 2 -1.85 0 -5.55 7.03292e+06 7.03293e+06 7.02012e+06 7.44311e-10 4.80062 2.82204e-09 5.77673e+07 3.59256e+07
125 2 -3.7 1.85 -5.55 7.03293e+06 7.03292e+06 7.02012e+06 -0 -0 4.80062 5.77673e+07 3.59256e+07
126 2 0 0 -7.4 -1.75067e+07 -1.75067e+07 5.81868e+06 3.56634e-09 4.80062 4.80062 1.7852e+08 1.13861e+07
127 2 1.85 1.85 -7.4 -1.75067e+07 -1.75067e+07 5.81868e+06 9.26724e-09 4.54521e-08 4.55366e-08 1.7852e+08 1.13861e+07
128 2 1.85 0 -5.55 7.03292e+06 7.03293e+06 7.02012e+06 -1.11217e-08 4.80062 3.64208e-09 5.77673e+07 3.59256e+07
129 2 0 1.85 -5.55 7.03293e+06 7.03292e+06 7.02012e+06 -9.16508e-09 4.53147e-09 4.80062 5.77673e+07 3.59256e+07
130 2 3.7 0 -7.4 -1.75067e+07 -1.75067e+07 5.81868e+06 1.6009e-09 4.80062 4.80062 1.7852e+08 1.13861e+07
131 2 5.55 1.85 -7.4 -1.75067e+07 -1.75067e+07 5.81873e+06 5.60754e-09 -27.7949 4.16233e-08 1.7852e+08 1.13861e+07
132 2 5.55 0 -5.55 7.03292e+06 7.03294e+06 7.02012e+06 -4.80062 4.80062 6.97508e-09 5.77674e+07 3.59256e+07
133 2 3.7 1.85 -5.55 7.03293e+06 7.03292e+06 7.02012e+06 -5.15844e-09 2.84604e-09 4.80062 5.77673e+07 3.59256e+07
134 2 7.4 0 -7.4 -2.00029e+07 -2.97767e+07 -8.34015e+06 6.28668e+06 8.17555e+06 4.7926 1.2906e+08 -1.56437e+07
135 2 9.25 1.85 -7.4 -4.70333e+08 1.99068e+07 4.4493e+07 6.28668e+06 -392301 -0.00801071 3.42487e+09 5.26332e+07
136 2 9.25 0 -5.55 -4.5799e+08 4.45334e+07 4.44712e+07 6.28664e+06 6.28665e+06 -3.29073e-09 3.3638e+09 7.34564e+07
137 2 7.4 1.85 -5.55 6.42568e+06 -5.23689e+06 -5.24968e+06 6.28663e+06 6.28661e+06 4.80062 3.74584e+06 8.89581e+06
138 2 -9.25 5.55 -7.4 -4.7065e+08 7.63698e+06 4.44935e+07 -2.25333 392304 -264.297 3.39875e+09 2.56039e+07
139 2 -9.25 3.7 -5.55 -4.58306e+08 4.45334e+07 3.22014e+07 -6.28664e+06 -7.46959 -5.69212e-09 3.33768e+09 7.34564e+07
140 2 -7.4 3.7 -7.4 -2.06099e+07 -4.20465e+07 -2.06099e+07 4.80062 -1.8889e+06 4.80062 7.50006e+07 -4.26734e+07
141 2 -5.55 5.55 -7.4 -1.75195e+07 -1.75067e+07 5.81878e+06 4.80062 27.7949 -27.7949 1.7943e+08 1.13862e+07
142 2 -5.55 3.7 -5.55 7.02013e+06 7.03294e+06 7.02013e+06 4.80062 9.60123 -3.02391e-09 5.86774e+07 3.59256e+07
143 2 -7.4 5.55 -5.55 6.42568e+06 -5.23689e+06 -5.24968e+06 -6.28663e+06 -6.28661e+06 4.80062 3.74584e+06 8.89581e+06
144 2 -3.7 3.7 -7.4 -1.75067e+07 -1.75067e+07 5.81868e+06 2.84604e-09 4.80062 4.80062 1.7852e+08 1.13861e+07
145 2 -1.85 5.55 -7.4 -1.75067e+07 -1.75067e+07 5.81873e+06 9.89421e-09 2.81324e-08 -27.7949 1.7852e+08 1.13862e+07
146 2 -1.85 3.7 -5.55 7.03292e+06 7.03293e+06 7.02012e+06 -8.89387e-10 4.80062 -3.08071e-09 5.77673e+07 3.59256e+07
147 2 -3.7 5.55 -5.55 7.03293e+06 7.03292e+06 7.02012e+06 -2.49028e-09 -1.77877e-10 4.80062 5.77673e+07 3.59256e+07
148 2 0 3.7 -7.4 -1.75067e+07 -1.75067e+07 5.81868e+06 -1.77877e-10 4.80062 4.80062 1.7852e+08 1.13861e+07
149 2 1.85 5.55 -7.4 -1.75067e+07 -1.75067e+07 5.81873e+06 9.38963e-09 3.90346e-08 -27.7949 1.7852e+08 1.13862e+07
150 2 1.85 3.7 -5.55 7.03292e+06 7.03293e+06 7.02012e+06 -3.9133e-09 4.80062 2.49028e-09 5.77673e+07 3.59256e+07
151 2 0 5.55 -5.55 7.03293e+06 7.03292e+06 7.02012e+06 -7.37244e-09 1.16567e-09 4.80062 5.77673e+07 3.59256e+07
152 2 3.7 3.7 -7.4 -1.75067e+07 -1.75067e+07 5.81868e+06 6.58146e-09 4.80062 4.80062 1.7852e+08 1.13861e+07
153 2 5.55 5.55 -7.4 -1.75067e+07 -1.75067e+07 5.81878e+06 4.53147e-09 -27.7949 -27.7949 1.7852e+08 1.13862e+07
154 2 5.55 3.7 -5.55 7.03292e+06 7.03294e+06 7.02012e+06 -4.80062 4.80062 1.75103e-09 5.77674e+07 3.59256e+07
155 2 3.7 5.55 -5.55 7.03293e+06 7.03292e+06 7.02012e+06 -8.89387e-10 1.77877e-09 4.80062 5.77673e+07 3.59256e+07
156 2 7.4 3.7 -7.4 -2.00029e+07 -2.97767e+07 -8.34015e+06 6.28668e+06 8.17555e+06 4.7926 1.2906e+08 -1.56437e+07
157 2 9.25 5.55 -7.4 -4.70333e+08 1.99068e+07 4.44935e+07 6.28668e+06 -392304 -264.305 3.42487e+09 5.26336e+07
158 2 9.25 3.7 -5.55 -4.5799e+08 4.45334e+07 4.44712e+07 6.28664e+06 6.28665e+06 -3.11286e-09 3.3638e+09 7.34564e+07
159 2 7.4 5.55 -5.55 6.42568e+06 -5.23689e+06 -5.24968e+06 6.28663e+06 6.28661e+06 4.80062 3.74584e+06 8.89581e+06
160 2 -9.25 9.25 -7.4 -2.62111e+08 -2.62049e+08 3.10859e+07 2.11779e+07 462916 -462878 2.69756e+09 4.13502e+08
161 2 -9.25 7.4 -5.55 -4.58343e+08 4.46494e+07 1.98882e+07 -6.48276e+06 179366 6.08257e+06 3.33803e+09 6.30119e+07
162 2 -7.4 7.4 -7.4 -3.47697e+07 -4.64325e+07 -3.47697e+07 8.17601e+06 -1.88932e+06 8.17601e+06 1.39941e+08 7.20408e+06
163 2 -5.55 9.25 -7.4 1.98448e+07 -4.70333e+08 4.44935e+07 6.28666e+06 264.289 -392304 9.38691e+07 -3.98433e+08
164 2 -5.55 7.4 -5.55 7.02011e+06 6.72916e+06 -5.24967e+06 4.80062 9.60123 6.28661e+06 5.86774e+07 2.36555e+07
165 2 -7.4 9.25 -5.55 5.66157e+07 -4.69994e+08 3.2158e+07 -6.48276e+06 -6.08257e+06 6.10732e+06 -1.49842e+08 -4.75141e+08
166 2 -3.7 7.4 -7.4 -2.97767e+07 -2.00029e+07 -8.34015e+06 6.28668e+06 4.7926 8.17555e+06 2.38896e+08 5.67019e+07
167 2 -1.85 9.25 -7.4 1.99068e+07 -4.70333e+08 4.4493e+07 6.28668e+06 -0.00801072 -392301 9.02021e+07 -3.98433e+08
168 2 -1.85 7.4 -5.55 7.0329e+06 6.72915e+06 -5.24968e+06 -5.0083e-10 4.80062 6.28661e+06 5.77673e+07 2.36555e+07
169 2 -3.7 9.25 -5.55 5.68032e+07 -4.57686e+08 4.44712e+07 9.6977e-07 5.69207e-09 6.28665e+06 -9.44435e+07 -4.49357e+08
170 2 0 7.4 -7.4 -2.97767e+07 -2.00029e+07 -8.34015e+06 6.28668e+06 4.7926 8.17555e+06 2.38896e+08 5.67019e+07
171 2 1.85 9.25 -7.4 1.99068e+07 -4.70333e+08 4.4493e+07 6.28668e+06 -0.0080107 -392301 9.02021e+07 -3.98433e+08
172 2 1.85 7.4 -5.55 7.0329e+06 6.72915e+06 -5.24968e+06 -1.45531e-08 4.80062 6.28661e+06 5.77673e+07 2.36555e+07
173 2 0 9.25 -5.55 5.68032e+07 -4.57686e+08 4.44712e+07 2.5108e-08 -2.0278e-08 6.28665e+06 -9.44435e+07 -4.49357e+08
174 2 3.7 7.4 -7.4 -2.97767e+07 -2.00029e+07 -8.34015e+06 6.28668e+06 4.7926 8.17555e+06 2.38896e+08 5.67019e+07
175 2 5.55 9.25 -7.4 1.99068e+07 -4.70333e+08 4.44935e+07 6.28668e+06 -264.305 -392304 9.02032e+07 -3.98433e+08
176 2 5.55 7.4 -5.55 7.0329e+06 6.72916e+06 -5.24968e+06 -4.80062 4.80062 6.28661e+06 5.77674e+07 2.36555e+07
177 2 3.7 9.25 -5.55 5.68032e+07 -4.57686e+08 4.44712e+07 -5.75297e-09 -1.77877e-10 6.28665e+06 -9.44435e+07 -4.49357e+08
178 2 7.4 7.4 -7.4 -3.22734e+07 -3.22734e+07 -2.24999e+07 1.25734e+07 8.17601e+06 8.17601e+06 1.89438e+08 2.96711e+07
179 2 9.25 9.25 -7.4 -2.47587e+08 -2.47587e+08 3.10859e+07 6.48759e+06 -462880 -462880 2.65598e+09 3.75593e+08
180 2 9.25 7.4 -5.55 -4.58027e+08 4.46494e+07 3.2158e+07 6.48276e+06 6.10732e+06 6.08257e+06 3.36415e+09 6.30119e+07
181 2 7.4 9.25 -5.55 5.66157e+07 -4.69994e+08 3.2158e+07 6.48276e+06 6.08257e+06 6.10732e+06 -1.49842e+08 -4.75141e+08
182 2 -9.25 -9.25 -3.7 -2.49752e+08 -2.49752e+08 3.1225e+07 -3.40212e+07 -5.81403e+06 -5.81403e+06 2.63504e+09 4.22442e+08
183 2 -5.55 -9.25 -3.7 3.22014e+07 -4.58306e+08 4.45334e+07 -7.7702 28.1148 -6.28663e+06 2.99813e+07 -3.28615e+08
184 2 -7.4 -9.25 -1.85 3.2379e+07 -4.58647e+08 1.99502e+07 196147 -6.0828e+06 179371 -2.05637e+06 -3.39642e+08
185 2 -1.85 -9.25 -3.7 3.22635e+07 -4.58306e+08 4.45333e+07 -4.99425e-08 6.22571e-10 -6.28664e+06 2.63094e+07 -3.28617e+08
186 2 -3.7 -9.25 -1.85 3.22635e+07 -4.5861e+08 3.22635e+07 0.000158286 2.15528e-17 -4.86494e-08 2.63094e+07 -3.40887e+08
187 2 1.85 -9.25 -3.7 3.22635e+07 -4.58306e+08 4.45333e+07 -7.00766e-08 -1.33408e-09 -6.28664e+06 2.63094e+07 -3.28617e+08
188 2 0 -9.25 -1.85 3.22635e+07 -4.5861e+08 3.22635e+07 6.96379e-08 1.17707e-08 -5.0784e-08 2.63094e+07 -3.40887e+08
189 2 5.55 -9.25 -3.7 3.22634e+07 -4.58306e+08 4.45334e+07 34.8974 -28.1148 -6.28663e+06 2.63155e+07 -3.28615e+08
190 2 3.7 -9.25 -1.85 3.22635e+07 -4.5861e+08 3.22635e+07 -0.000159254 6.22566e-09 -4.56255e-08 2.63094e+07 -3.40887e+08
191 2 9.25 -9.25 -3.7 -2.4969e+08 -2.49752e+08 3.1225e+07 2.08184e+07 5.81403e+06 -5.81403e+06 2.63138e+09 4.22442e+08
192 2 7.4 -9.25 -1.85 3.2379e+07 -4.58647e+08 1.99502e+07 -196147 6.0828e+06 179371 -2.05636e+06 -3.39642e+08
193 2 -9.25 -5.55 -3.7 -4.58306e+08 3.22014e+07 4.45334e+07 -7.7702 -6.28663e+06 28.1148 3.33768e+09 4.63657e+07
194 2 -9.25 -7.4 -1.85 -4.70613e+08 4.43454e+07 1.99502e+07 196147 179371 -6.0828e+06 3.3984e+09 1.23388e+08
195 2 -7.4 -7.4 -3.7 -2.06099e+07 -2.06099e+07 -4.20465e+07 -1.8889e+06 4.80062 4.80062 7.50006e+07 8.26396e+07
196 2 -5.55 -5.55 -3.7 7.02013e+06 7.02013e+06 7.03293e+06 9.60123 4.80062 4.80062 5.86774e+07 3.59126e+07
197 2 -5.55 -7.4 -1.85 -1.75195e+07 6.1222e+06 -5.23689e+06 27.7949 4.80062 -6.28663e+06 1.7943e+08 1.44408e+08
198 2 -7.4 -5.55 -1.85 6.42568e+06 -5.24968e+06 -5.23689e+06 -6.28661e+06 -6.28663e+06 4.80062 3.74584e+06 8.88246e+06
199 2 -3.7 -7.4 -3.7 -1.75067e+07 5.81868e+06 -1.75067e+07 4.80062 -7.11509e-10 4.80062 1.7852e+08 1.32138e+08
200 2 -1.85 -5.55 -3.7 7.03292e+06 7.02012e+06 7.03292e+06 4.80062 -5.33632e-10 4.80062 5.77673e+07 3.59125e+07
201 2 -1.85 -7.4 -1.85 -1.75067e+07 6.12215e+06 -5.2369e+06 3.73542e-08 -1.45291e-08 -6.28663e+06 1.7852e+08 1.44408e+08
202 2 -3.7 -5.55 -1.85 7.03293e+06 7.02012e+06 7.03292e+06 -3.9133e-09 -0 4.80062 5.77673e+07 3.59125e+07
203 2 0 -7.4 -3.7 -1.75067e+07 5.81868e+06 -1.75067e+07 4.80062 -6.58146e-09 4.80062 1.7852e+08 1.32138e+08
204 2 1.85 -5.55 -3.7 7.03292e+06 7.02012e+06 7.03292e+06 4.80062 -3.20179e-09 4.80062 5.77673e+07 3.59125e+07
205 2 1.85 -7.4 -1.85 -1.75067e+07 6.12215e+06 -5.2369e+06 3.20179e-08 4.09118e-09 -6.28663e+06 1.7852e+08 1.44408e+08
206 2 0 -5.55 -1.85 7.03293e+06 7.02012e+06 7.03292e+06 3.37967e-09 -6.40358e-09 4.80062 5.77673e+07 3.59125e+07
207 2 3.7 -7.4 -3.7 -1.75067e+07 5.81868e+06 -1.75067e+07 4.80062 1.06726e-09 4.80062 1.7852e+08 1.32138e+08
208 2 5.55 -5.55 -3.7 7.03292e+06 7.02012e+06 7.03293e+06 4.80062 -4.80062 4.80062 5.77674e+07 3.59125e+07
209 2 5.55 -7.4 -1.85 -1.75067e+07 6.1222e+06 -5.2369e+06 -27.7949 2.6959e-09 -6.28663e+06 1.7852e+08 1.44408e+08
210 2 3.7 -5.55 -1.85 7.03293e+06 7.02012e+06 7.03292e+06 -4.62481e-09 2.84604e-09 4.80062 5.77673e+07 3.59125e+07
211 2 7.4 -7.4 -3.7 -2.00029e+07 -8.34015e+06 -2.97767e+07 8.17555e+06 6.28668e+06 4.7926 1.2906e+08 1.09669e+08
212 2 9.25 -5.55 -3.7 -4.5799e+08 4.44712e+07 4.45334e+07 6.28665e+06 6.28663e+06 28.1148 3.3638e+09 7.33955e+07
213 2 9.25 -7.4 -1.85 -4.70297e+08 4.43454e+07 3.22201e+07 -196146 6.10731e+06 -6.0828e+06 3.42452e+09 1.23388e+08
214 2 7.4 -5.55 -1.85 6.42568e+06 -5.24968e+06 -5.23689e+06 6.28661e+06 6.28663e+06 4.80062 3.74584e+06 8.88246e+06
215 2 -9.25 -1.85 -3.7 -4.58306e+08 3.22635e+07 4.45333e+07 -5.09268e-08 -6.28664e+06 3.46861e-09 3.33768e+09 4.64266e+07
216 2 -9.25 -3.7 -1.85 -4.58306e+08 4.45333e+07 3.22635e+07 -6.28664e+06 -5.17623e-08 2.84604e-09 3.33768e+09 7.34563e+07
217 2 -7.4 -3.7 -3.7 5.81868e+06 -1.75067e+07 -1.75067e+07 4.80062 4.80062 -2.31241e-09 -5.03134e+07 -1.8134e+07
218 2 -5.55 -1.85 -3.7 7.02012e+06 7.03292e+06 7.03292e+06 4.80062 4.80062 1.42302e-09 5.86774e+07 3.59256e+07
219 2 -5.55 -3.7 -1.85 7.02012e+06 7.03292e+06 7.03292e+06 4.80062 4.80062 -1.06726e-09 5.86774e+07 3.59256e+07
220 2 -7.4 -1.85 -1.85 6.42562e+06 -5.2369e+06 -5.2369e+06 -6.28663e+06 -6.28663e+06 -1.33408e-08 3.74615e+06 8.8958e+06
221 2 -3.7 -3.7 -3.7 7.03291e+06 7.03291e+06 7.03291e+06 3.02391e-09 -7.11509e-10 -3.55755e-10 5.77674e+07 3.59256e+07
222 2 -1.85 -1.85 -3.7 7.03291e+06 7.03291e+06 7.03291e+06 -1.43588e-08 -2.9896e-10 -1.77877e-10 5.77674e+07 3.59256e+07
223 2 -1.85 -3.7 -1.85 7.03291e+06 7.03291e+06 7.03291e+06 8.89387e-10 -1.3284e-08 -2.31241e-09 5.77674e+07 3.59256e+07
224 2 -3.7 -1.85 -1.85 7.03291e+06 7.03291e+06 7.03291e+06 -1.6009e-09 -1.24514e-09 -2.24125e-08 5.77674e+07 3.59256e+07
225 2 0 -3.7 -3.7 7.03291e+06 7.03291e+06 7.03291e+06 3.37967e-09 4.09118e-09 1.77877e-09 5.77674e+07 3.59256e+07
226 2 1.85 -1.85 -3.7 7.03291e+06 7.03291e+06 7.03291e+06 5.5142e-09 -5.86995e-09 1.77877e-10 5.77674e+07 3.59256e+07
227 2 1.85 -3.7 -1.85 7.03291e+06 7.03291e+06 7.03291e+06 -3.9133e-09 5.69207e-09 -1.06726e-09 5.77674e+07 3.59256e+07
228 2 0 -1.85 -1.85 7.03291e+06 7.03291e+06 7.03291e+06 -8.36023e-09 -1.04948e-08 -1.44081e-08 5.77674e+07 3.59256e+07
229 2 3.7 -3.7 -3.7 7.03291e+06 7.03291e+06 7.03291e+06 1.06726e-09 1.06726e-09 -8.89387e-10 5.77674e+07 3.59256e+07
230 2 5.55 -1.85 -3.7 7.03291e+06 7.03291e+06 7.03292e+06 4.02426e-09 -4.80062 -3.02391e-09 5.77674e+07 3.59256e+07
231 2 5.55 -3.7 -1.85 7.03291e+06 7.03292e+06 7.03291e+06 -4.80062 6.96496e-09 -4.80269e-09 5.77674e+07 3.59256e+07
232 2 3.7 -1.85 -1.85 7.03291e+06 7.03291e+06 7.03291e+06 -8.89387e-10 -8.89387e-10 -1.54753e-08 5.77674e+07 3.59256e+07
233 2 7.4 -3.7 -3.7 6.42562e+06 -5.23691e+06 -5.23691e+06 6.28664e+06 6.28664e+06 6.22571e-09 3.74611e+06 8.89578e+06
234 2 9.25 -1.85 -3.7 -4.5799e+08 4.45333e+07 4.45333e+07 6.28664e+06 6.28664e+06 7.55978e-10 3.3638e+09 7.34563e+07
235 2 9.25 -3.7 -1.85 -4.5799e+08 4.45333e+07 4.45333e+07 6.28664e+06 6.28664e+06 2.66816e-10 3.3638e+09 7.34563e+07
236 2 7.4 -1.85 -1.85 6.42562e+06 -5.2369e+06 -5.2369e+06 6.28663e+06 6.28663e+06 -1.35187e-08 3.74615e+06 8.8958e+06
237 2 -9.25 1.85 -3.7 -4.58306e+08 3.22635e+07 4.45333e+07 -7.04147e-08 -6.28664e+06 -1.33408e-09 3.33768e+09 4.64266e+07
238 2 -9.25 0 -1.85 -4.58306e+08 4.45333e+07 3.22635e+07 -6.28664e+06 -5.25627e-08 6.60041e-09 3.33768e+09 7.34563e+07
239 2 -7.4 0 -3.7 5.81868e+06 -1.75067e+07 -1.75067e+07 4.80062 4.80062 -3.20179e-09 -5.03134e+07 -1.8134e+07
240 2 -5.55 1.85 -3.7 7.02012e+06 7.03292e+06 7.03292e+06 4.80062 4.80062 -3.20179e-09 5.86774e+07 3.59256e+07
241 2 -5.55 0 -1.85 7.02012e+06 7.03292e+06 7.03292e+06 4.80062 4.80062 -5.90275e-09 5.86774e+07 3.59256e+07
242 2 -7.4 1.85 -1.85 6.42562e+06 -5.2369e+06 -5.2369e+06 -6.28663e+06 -6.28663e+06 8.53811e-09 3.74615e+06 8.8958e+06
243 2 -3.7 0 -3.7 7.03291e+06 7.03291e+06 7.03291e+06 4.80269e-09 5.69207e-09 1.77877e-10 5.77674e+07 3.59256e+07
244 2 -1.85 1.85 -3.7 7.03291e+06 7.03291e+06 7.03291e+06 4.84936e-09 -3.41247e-09 -5.5142e-09 5.77674e+07 3.59256e+07
245 2 -1.85 0 -1.85 7.03291e+06 7.03291e+06 7.03291e+06 -4.67148e-09 -1.10284e-08 -8.14956e-09 5.77674e+07 3.59256e+07
246 2 -3.7 1.85 -1.85 7.03291e+06 7.03291e+06 7.03291e+06 -1.42302e-09 -0 8.18236e-09 5.77674e+07 3.59256e+07
247 2 0 0 -3.7 7.03291e+06 7.03291e+06 7.03291e+06 8.79697e-12 2.7615e-09 -1.42302e-09 5.77674e+07 3.59256e+07
248 2 1.85 1.85 -3.7 7.03291e+06 7.03291e+06 7.03291e+06 1.49593e-08 3.82877e-09 -0 5.77674e+07 3.59256e+07
249 2 1.85 0 -1.85 7.03291e+06 7.03291e+06 7.03291e+06 -7.66634e-09 7.11509e-09 -5.60754e-09 5.77674e+07 3.59256e+07
250 2 0 1.85 -1.85 7.03291e+06 7.03291e+06 7.03291e+06 -8.02209e-09 -6.14117e-09 8.89387e-09 5.77674e+07 3.59256e+07
251 2 3.7 0 -3.7 7.03291e+06 7.03291e+06 7.03291e+06 5.5142e-09 -4.44693e-09 2.13453e-09 5.77674e+07 3.59256e+07
252 2 5.55 1.85 -3.7 7.03291e+06 7.03291e+06 7.03292e+06 -8.45347e-11 -4.80062 6.22571e-09 5.77674e+07 3.59256e+07
253 2 5.55 0 -1.85 7.03291e+06 7.03292e+06 7.03291e+06 -4.80062 1.35187e-08 6.5603e-11 5.77674e+07 3.59256e+07
254 2 3.7 1.85 -1.85 7.03291e+06 7.03291e+06 7.03291e+06 -4.80269e-09 7.11509e-10 9.4275e-09 5.77674e+07 3.59256e+07
255 2 7.4 0 -3.7 6.42562e+06 -5.23691e+06 -5.23691e+06 6.28664e+06 6.28664e+06 -2.49028e-09 3.74611e+06 8.89578e+06
256 2 9.25 1.85 -3.7 -4.5799e+08 4.45333e+07 4.45333e+07 6.28664e+06 6.28664e+06 1.64536e-09 3.3638e+09 7.34563e+07
257 2 9.25 0 -1.85 -4.5799e+08 4.45333e+07 4.45333e+07 6.28664e+06 6.28664e+06 1.29406e-08 3.3638e+09 7.34563e+07
258 2 7.4 1.85 -1.85 6.42562e+06 -5.2369e+06 -5.2369e+06 6.28663e+06 6.28663e+06 8.00448e-09 3.74615e+06 8.8958e+06
259 2 -9.25 5.55 -3.7 -4.58306e+08 3.22635e+07 4.45334e+07 -0.300612 -6.28663e+06 -28.1148 3.33768e+09 4.64266e+07
260 2 -9.25 3.7 -1.85 -4.58306e+08 4.45333e+07 3.22635e+07 -6.28664e+06 -4.68707e-08 5.73654e-09 3.33768e+09 7.34563e+07