ITEM: TIMESTEP
0
ITEM: NUMBER OF ATOMS
665
ITEM: BOX BOUNDS xy xz yz pp pp pp
-1.0000000000000000e+01 1.0000000000000000e+01 0.0000000000000000e+00
-1.0000000000000000e+01 1.0000000000000000e+01 0.0000000000000000e+00
-1.0000000000000000e+01 1.0000000000000000e+01 0.0000000000000000e+00
ITEM: ATOMS id type x y z c_1[1] c_1[2] c_1[3] c_1[4] c_1[5] c_1[6] c_1[7] c_1[22]
1 2 -7.4 -9.25 -9.25 2.7897e+11 6.63487e+10 6.63487e+10 -2.62886e+10 -2.62886e+10 -1.09219e+09 4.5535e+11 4.72739e+10
2 2 -3.7 -9.25 -9.25 3.70124e+11 9.47753e+10 9.47753e+10 1.84685e+10 1.84685e+10 7.01495e+09 4.79475e+11 2.25224e+10
3 2 0 -9.25 -9.25 2.02117e+11 9.99261e+10 9.99261e+10 -0.00013274 -0.000134029 5.90147e+09 1.01058e+11 -7.90847e+09
4 2 3.7 -9.25 -9.25 3.70124e+11 9.47753e+10 9.47753e+10 -1.84685e+10 -1.84685e+10 7.01495e+09 4.79475e+11 2.25224e+10
5 2 7.4 -9.25 -9.25 2.7897e+11 6.63487e+10 6.63487e+10 2.62886e+10 2.62886e+10 -1.09219e+09 4.5535e+11 4.72739e+10
6 2 -9.25 -7.4 -9.25 6.63487e+10 2.7897e+11 6.63487e+10 -2.62886e+10 -1.09219e+09 -2.62886e+10 6.12603e+10 -9.3722e+10
7 2 -5.55 -7.4 -9.25 1.06319e+11 8.17555e+10 2.54784e+10 1.10282e+10 4.83902e+09 -1.43751e+10 1.62887e+11 4.55649e+10
8 2 -7.4 -5.55 -9.25 8.17555e+10 1.06319e+11 2.54784e+10 1.10282e+10 -1.43751e+10 4.83902e+09 1.4013e+11 2.94228e+10
9 2 -1.85 -7.4 -9.25 3.74743e+10 7.73386e+10 3.20436e+10 -5.74273e-06 1.68497e-05 -1.59727e+10 1.87393e+10 7.58858e+09
10 2 -3.7 -5.55 -9.25 9.75715e+10 1.07231e+11 4.18611e+10 -6.40757e-07 4.99422e+09 2.14168e+09 1.22641e+11 -4.8633e+09
11 2 1.85 -7.4 -9.25 3.74743e+10 7.73386e+10 3.20436e+10 -2.60974e-05 5.18473e-05 -1.59727e+10 1.87393e+10 7.58858e+09
12 2 0 -5.55 -9.25 5.20158e+10 1.07231e+11 4.32743e+10 -2.23759e-06 -6.967e-05 2.14168e+09 2.601e+10 -4.8633e+09
13 2 5.55 -7.4 -9.25 1.06319e+11 8.17555e+10 2.54784e+10 -1.10282e+10 -4.83902e+09 -1.43751e+10 1.62887e+11 4.55649e+10
14 2 3.7 -5.55 -9.25 9.75715e+10 1.07231e+11 4.18611e+10 -3.88073e-06 -4.99422e+09 2.14168e+09 1.22641e+11 -4.8633e+09
15 2 9.25 -7.4 -9.25 6.63487e+10 2.7897e+11 6.63487e+10 2.62886e+10 1.09219e+09 -2.62886e+10 6.12603e+10 -9.3722e+10
16 2 7.4 -5.55 -9.25 8.17555e+10 1.06319e+11 2.54784e+10 -1.10282e+10 1.43751e+10 4.83902e+09 1.4013e+11 2.94228e+10
17 2 -9.25 -3.7 -9.25 9.47753e+10 3.70124e+11 9.47753e+10 1.84685e+10 7.01495e+09 1.84685e+10 5.81709e+10 -1.50517e+11
18 2 -5.55 -3.7 -9.25 1.07231e+11 9.75715e+10 4.18611e+10 -2.442e-07 2.14168e+09 4.99422e+09 1.49592e+11 4.96611e+10
19 2 -7.4 -1.85 -9.25 7.73386e+10 3.74743e+10 3.20436e+10 -4.18937e-06 -1.59727e+10 1.27079e-05 1.38378e+11 4.05729e+10
20 2 -1.85 -3.7 -9.25 5.20158e+10 9.75715e+10 4.77254e+10 4.20191e-07 1.75003e-05 4.99422e+09 2.601e+10 2.60101e+10
21 2 -3.7 -1.85 -9.25 9.75715e+10 5.20158e+10 4.77254e+10 1.5518e-06 4.99422e+09 1.23891e-05 1.22641e+11 2.60101e+10
22 2 1.85 -3.7 -9.25 5.20158e+10 9.75715e+10 4.77254e+10 7.07167e-07 6.07506e-05 4.99422e+09 2.601e+10 2.60101e+10
23 2 0 -1.85 -9.25 5.20158e+10 5.20158e+10 4.91386e+10 -1.58279e-06 -7.00359e-05 1.31177e-05 2.601e+10 2.60101e+10
24 2 5.55 -3.7 -9.25 1.07231e+11 9.75715e+10 4.18611e+10 1.20513e-06 -2.14168e+09 4.99422e+09 1.49592e+11 4.96611e+10
25 2 3.7 -1.85 -9.25 9.75715e+10 5.20158e+10 4.77254e+10 1.43031e-06 -4.99422e+09 1.3482e-05 1.22641e+11 2.60101e+10
26 2 9.25 -3.7 -9.25 9.47753e+10 3.70124e+11 9.47753e+10 -1.84685e+10 -7.01495e+09 1.84685e+10 5.81709e+10 -1.50517e+11
27 2 7.4 -1.85 -9.25 7.73386e+10 3.74743e+10 3.20436e+10 3.4198e-06 1.59727e+10 1.49392e-05 1.38378e+11 4.05729e+10
28 2 -9.25 0 -9.25 9.99261e+10 2.02117e+11 9.99261e+10 -0.00013406 5.90147e+09 -0.000127261 5.73312e+10 -1.63401e+11
29 2 -5.55 0 -9.25 1.07231e+11 5.20158e+10 4.32743e+10 -2.8913e-06 2.14168e+09 -7.26695e-05 1.49592e+11 4.96611e+10
30 2 -7.4 1.85 -9.25 7.73386e+10 3.74743e+10 3.20436e+10 -2.44076e-05 -1.59727e+10 5.19979e-05 1.38378e+11 4.05729e+10
31 2 -1.85 0 -9.25 5.20158e+10 5.20158e+10 4.91386e+10 -4.8434e-07 1.92808e-05 -7.52463e-05 2.601e+10 2.60101e+10
32 2 -3.7 1.85 -9.25 9.75715e+10 5.20158e+10 4.77254e+10 -7.2823e-07 4.99422e+09 6.56589e-05 1.22641e+11 2.60101e+10
33 2 1.85 0 -9.25 5.20158e+10 5.20158e+10 4.91386e+10 3.82449e-07 6.01873e-05 -7.81333e-05 2.601e+10 2.60101e+10
34 2 0 1.85 -9.25 5.20158e+10 5.20158e+10 4.91386e+10 -1.37785e-07 -6.94657e-05 5.91016e-05 2.601e+10 2.60101e+10
35 2 5.55 0 -9.25 1.07231e+11 5.20158e+10 4.32743e+10 3.53231e-06 -2.14168e+09 -7.27471e-05 1.49592e+11 4.96611e+10
36 2 3.7 1.85 -9.25 9.75715e+10 5.20158e+10 4.77254e+10 -3.64833e-07 -4.99422e+09 5.91016e-05 1.22641e+11 2.60101e+10
37 2 9.25 0 -9.25 9.99261e+10 2.02117e+11 9.99261e+10 0.000119488 -5.90147e+09 -0.000129832 5.73312e+10 -1.63401e+11
38 2 7.4 1.85 -9.25 7.73386e+10 3.74743e+10 3.20436e+10 2.61835e-05 1.59727e+10 5.47301e-05 1.38378e+11 4.05729e+10
39 2 -9.25 3.7 -9.25 9.47753e+10 3.70124e+11 9.47753e+10 -1.84685e+10 7.01495e+09 -1.84685e+10 5.81709e+10 -1.50517e+11
40 2 -5.55 3.7 -9.25 1.07231e+11 9.75715e+10 4.18611e+10 -3.79182e-06 2.14168e+09 -4.99422e+09 1.49592e+11 4.96611e+10
41 2 -7.4 5.55 -9.25 8.17555e+10 1.06319e+11 2.54784e+10 -1.10282e+10 -1.43751e+10 -4.83902e+09 1.4013e+11 2.94228e+10
42 2 -1.85 3.7 -9.25 5.20158e+10 9.75715e+10 4.77254e+10 6.17122e-07 1.88643e-05 -4.99422e+09 2.601e+10 2.60101e+10
43 2 -3.7 5.55 -9.25 9.75715e+10 1.07231e+11 4.18611e+10 1.45717e-06 4.99422e+09 -2.14168e+09 1.22641e+11 -4.8633e+09
44 2 1.85 3.7 -9.25 5.20158e+10 9.75715e+10 4.77254e+10 6.58684e-07 6.02228e-05 -4.99422e+09 2.601e+10 2.60101e+10
45 2 0 5.55 -9.25 5.20158e+10 1.07231e+11 4.32743e+10 4.6659e-06 -7.00126e-05 -2.14168e+09 2.601e+10 -4.8633e+09
46 2 5.55 3.7 -9.25 1.07231e+11 9.75715e+10 4.18611e+10 4.14198e-06 -2.14168e+09 -4.99422e+09 1.49592e+11 4.96611e+10
47 2 3.7 5.55 -9.25 9.75715e+10 1.07231e+11 4.18611e+10 4.19718e-06 -4.99422e+09 -2.14168e+09 1.22641e+11 -4.8633e+09
48 2 9.25 3.7 -9.25 9.47753e+10 3.70124e+11 9.47753e+10 1.84685e+10 -7.01495e+09 -1.84685e+10 5.81709e+10 -1.50517e+11
49 2 7.4 5.55 -9.25 8.17555e+10 1.06319e+11 2.54784e+10 1.10282e+10 1.43751e+10 -4.83902e+09 1.4013e+11 2.94228e+10
50 2 -9.25 7.4 -9.25 6.63487e+10 2.7897e+11 6.63487e+10 2.62886e+10 -1.09219e+09 2.62886e+10 6.12603e+10 -9.3722e+10
51 2 -5.55 7.4 -9.25 1.06319e+11 8.17555e+10 2.54784e+10 -1.10282e+10 4.83902e+09 1.43751e+10 1.62887e+11 4.55649e+10
52 2 -7.4 9.25 -9.25 2.7897e+11 6.63487e+10 6.63487e+10 2.62886e+10 -2.62886e+10 1.09219e+09 4.5535e+11 4.72739e+10
53 2 -1.85 7.4 -9.25 3.74743e+10 7.73386e+10 3.20436e+10 4.91795e-06 1.73055e-05 1.59727e+10 1.87393e+10 7.58858e+09
54 2 -3.7 9.25 -9.25 3.70124e+11 9.47753e+10 9.47753e+10 -1.84685e+10 1.84685e+10 -7.01495e+09 4.79475e+11 2.25224e+10
55 2 1.85 7.4 -9.25 3.74743e+10 7.73386e+10 3.20436e+10 2.59786e-05 5.32729e-05 1.59727e+10 1.87393e+10 7.58858e+09
56 2 0 9.25 -9.25 2.02117e+11 9.99261e+10 9.99261e+10 0.000129989 -0.000133846 -5.90147e+09 1.01058e+11 -7.90847e+09
57 2 5.55 7.4 -9.25 1.06319e+11 8.17555e+10 2.54784e+10 1.10282e+10 -4.83902e+09 1.43751e+10 1.62887e+11 4.55649e+10
58 2 3.7 9.25 -9.25 3.70124e+11 9.47753e+10 9.47753e+10 1.84685e+10 -1.84685e+10 -7.01495e+09 4.79475e+11 2.25224e+10
59 2 9.25 7.4 -9.25 6.63487e+10 2.7897e+11 6.63487e+10 -2.62886e+10 1.09219e+09 2.62886e+10 6.12603e+10 -9.3722e+10
60 2 7.4 9.25 -9.25 2.7897e+11 6.63487e+10 6.63487e+10 -2.62886e+10 2.62886e+10 1.09219e+09 4.5535e+11 4.72739e+10
61 2 -9.25 -9.25 -7.4 6.63487e+10 6.63487e+10 2.7897e+11 -1.09219e+09 -2.62886e+10 -2.62886e+10 6.12603e+10 -6.14863e+10
62 2 -5.55 -9.25 -7.4 1.06319e+11 2.54784e+10 8.17555e+10 4.83902e+09 1.10282e+10 -1.43751e+10 1.62887e+11 1.44614e+10
63 2 -7.4 -9.25 -5.55 8.17555e+10 2.54784e+10 1.06319e+11 -1.43751e+10 1.10282e+10 4.83902e+09 1.4013e+11 1.61308e+10
64 2 -1.85 -9.25 -7.4 3.74743e+10 3.20436e+10 7.73386e+10 1.41163e-05 -3.32019e-06 -1.59727e+10 1.87393e+10 -8.7978e+09
65 2 -3.7 -9.25 -5.55 9.75715e+10 4.18611e+10 1.07231e+11 4.99422e+09 -2.25252e-06 2.14168e+09 1.22641e+11 1.75954e+09
66 2 1.85 -9.25 -7.4 3.74743e+10 3.20436e+10 7.73386e+10 5.46439e-05 -2.75952e-05 -1.59727e+10 1.87393e+10 -8.7978e+09
67 2 0 -9.25 -5.55 5.20158e+10 4.32743e+10 1.07231e+11 -6.86633e-05 5.87036e-07 2.14168e+09 2.601e+10 -6.01473e+09
68 2 5.55 -9.25 -7.4 1.06319e+11 2.54784e+10 8.17555e+10 -4.83902e+09 -1.10282e+10 -1.43751e+10 1.62887e+11 1.44614e+10
69 2 3.7 -9.25 -5.55 9.75715e+10 4.18611e+10 1.07231e+11 -4.99422e+09 -3.44561e-06 2.14168e+09 1.22641e+11 1.75954e+09
70 2 9.25 -9.25 -7.4 6.63487e+10 6.63487e+10 2.7897e+11 1.09219e+09 2.62886e+10 -2.62886e+10 6.12603e+10 -6.14863e+10
71 2 7.4 -9.25 -5.55 8.17555e+10 2.54784e+10 1.06319e+11 1.43751e+10 -1.10282e+10 4.83902e+09 1.4013e+11 1.61308e+10
72 2 -9.25 -5.55 -7.4 2.54784e+10 1.06319e+11 8.17555e+10 4.83902e+09 -1.43751e+10 1.10282e+10 -1.15548e+10 -8.31467e+10
73 2 -9.25 -7.4 -5.55 2.54784e+10 8.17555e+10 1.06319e+11 -1.43751e+10 4.83902e+09 1.10282e+10 -1.15548e+10 -4.40266e+10
74 2 -7.4 -7.4 -7.4 1.03464e+10 1.03464e+10 1.03464e+10 6.46283e+09 6.46283e+09 6.46283e+09 4.00794e+10 4.39877e+09
75 2 -5.55 -5.55 -7.4 1.51552e+10 1.51552e+10 1.44003e+10 -3.11271e-07 3.14179e+09 3.14179e+09 3.6919e+10 -8.72079e+09
76 2 -5.55 -7.4 -5.55 1.51552e+10 1.44003e+10 1.51552e+10 3.14179e+09 -1.02443e-07 3.14179e+09 3.6919e+10 3.92392e+09
77 2 -7.4 -5.55 -5.55 1.44003e+10 1.51552e+10 1.51552e+10 3.14179e+09 3.14179e+09 -3.58817e-07 3.66933e+10 -8.98123e+08
78 2 -3.7 -7.4 -7.4 4.10502e+08 1.07335e+10 1.07335e+10 2.26301e-06 1.91254e-06 5.04781e+09 1.87148e+10 -1.00332e+10
79 2 -1.85 -5.55 -7.4 -5.95077e+09 1.51552e+10 1.31686e+10 1.08575e-06 -9.10732e-07 3.14179e+09 -2.97082e+09 -1.48869e+10
80 2 -1.85 -7.4 -5.55 -5.95077e+09 1.31686e+10 1.51552e+10 -9.10732e-07 1.0379e-06 3.14179e+09 -2.97082e+09 -5.95021e+09
81 2 -3.7 -5.55 -5.55 1.23261e+10 1.72585e+10 1.72585e+10 1.07661e-07 1.34951e-07 -2.9444e-07 2.46726e+10 -1.1908e+10
82 2 0 -7.4 -7.4 -1.19086e+10 1.07335e+10 1.07335e+10 2.42903e-06 1.79151e-06 5.04781e+09 -5.94972e+09 -1.00332e+10
83 2 1.85 -5.55 -7.4 -5.95077e+09 1.51552e+10 1.31686e+10 2.20753e-07 -8.46981e-06 3.14179e+09 -2.97082e+09 -1.48869e+10
84 2 1.85 -7.4 -5.55 -5.95077e+09 1.31686e+10 1.51552e+10 -8.10551e-06 3.42599e-07 3.14179e+09 -2.97082e+09 -5.95021e+09
85 2 0 -5.55 -5.55 7.03291e+06 1.72585e+10 1.72585e+10 -1.20505e-07 -9.3215e-08 -1.66294e-07 8.08576e+06 -1.1908e+10
86 2 3.7 -7.4 -7.4 4.10502e+08 1.07335e+10 1.07335e+10 -4.74963e-06 -4.82688e-06 5.04781e+09 1.87148e+10 -1.00332e+10
87 2 5.55 -5.55 -7.4 1.51552e+10 1.51552e+10 1.44003e+10 6.51027e-07 -3.14179e+09 3.14179e+09 3.6919e+10 -8.72079e+09
88 2 5.55 -7.4 -5.55 1.51552e+10 1.44003e+10 1.51552e+10 -3.14179e+09 5.59954e-07 3.14179e+09 3.6919e+10 3.92392e+09
89 2 3.7 -5.55 -5.55 1.23261e+10 1.72585e+10 1.72585e+10 -1.22532e-06 -1.21173e-06 -3.21403e-07 2.46726e+10 -1.1908e+10
90 2 7.4 -7.4 -7.4 1.03464e+10 1.03464e+10 1.03464e+10 -6.46283e+09 -6.46283e+09 6.46283e+09 4.00794e+10 4.39877e+09
91 2 9.25 -5.55 -7.4 2.54784e+10 1.06319e+11 8.17555e+10 -4.83902e+09 1.43751e+10 1.10282e+10 -1.15548e+10 -8.31467e+10
92 2 9.25 -7.4 -5.55 2.54784e+10 8.17555e+10 1.06319e+11 1.43751e+10 -4.83902e+09 1.10282e+10 -1.15548e+10 -4.40266e+10
93 2 7.4 -5.55 -5.55 1.44003e+10 1.51552e+10 1.51552e+10 -3.14179e+09 -3.14179e+09 -2.03648e-07 3.66933e+10 -8.98123e+08
94 2 -9.25 -1.85 -7.4 3.20436e+10 3.74743e+10 7.73386e+10 1.74861e-05 -1.59727e+10 -5.00903e-06 -9.25211e+09 -6.53623e+10
95 2 -9.25 -3.7 -5.55 4.18611e+10 9.75715e+10 1.07231e+11 4.99422e+09 2.14168e+09 -2.3178e-06 -7.67089e+09 -5.05651e+10
96 2 -7.4 -3.7 -7.4 1.07335e+10 4.10502e+08 1.07335e+10 1.73039e-06 5.04781e+09 2.7322e-06 3.76194e+10 4.24098e+09
97 2 -5.55 -1.85 -7.4 1.51552e+10 -5.95077e+09 1.31686e+10 6.46747e-07 3.14179e+09 -7.28586e-07 3.6919e+10 3.19482e+09
98 2 -5.55 -3.7 -5.55 1.72585e+10 1.23261e+10 1.72585e+10 -7.47668e-08 -7.07879e-08 -1.21371e-07 3.45465e+10 6.17372e+09
99 2 -7.4 -1.85 -5.55 1.31686e+10 -5.95077e+09 1.51552e+10 -6.37512e-07 3.14179e+09 1.04203e-06 3.62345e+10 5.55915e+09
100 2 -3.7 -3.7 -7.4 6.36831e+09 6.36831e+09 1.19369e+10 1.35187e-08 2.27683e-06 3.18756e-06 2.16937e+10 -2.9713e+09
101 2 -1.85 -1.85 -7.4 -5.95077e+09 -5.95077e+09 1.19369e+10 -4.8648e-07 -1.09288e-06 -7.28586e-07 -2.97082e+09 -2.9713e+09
102 2 -1.85 -3.7 -5.55 7.03291e+06 1.23261e+10 1.72585e+10 5.39552e-08 9.67645e-07 -1.21378e-07 8.08576e+06 7.59792e+06
103 2 -3.7 -1.85 -5.55 1.23261e+10 7.03291e+06 1.72585e+10 9.46307e-08 3.03587e-08 9.63753e-07 2.46726e+10 7.59792e+06
104 2 0 -3.7 -7.4 -5.95077e+09 6.36831e+09 1.19369e+10 -4.03198e-08 2.85736e-06 3.09649e-06 -2.97082e+09 -2.9713e+09
105 2 1.85 -1.85 -7.4 -5.95077e+09 -5.95077e+09 1.19369e+10 6.79418e-08 -8.56088e-06 -7.28586e-07 -2.97082e+09 -2.9713e+09
106 2 1.85 -3.7 -5.55 7.03291e+06 1.23261e+10 1.72585e+10 1.48469e-07 4.29752e-07 -1.48408e-07 8.08576e+06 7.59792e+06
107 2 0 -1.85 -5.55 7.03291e+06 7.03291e+06 1.72585e+10 -3.92546e-07 -1.64366e-07 9.50242e-07 8.08576e+06 7.59792e+06
108 2 3.7 -3.7 -7.4 6.36831e+09 6.36831e+09 1.19369e+10 -8.14715e-08 -4.18937e-06 3.09649e-06 2.16937e+10 -2.9713e+09
109 2 5.55 -1.85 -7.4 1.51552e+10 -5.95077e+09 1.31686e+10 -2.86735e-07 -3.14179e+09 -7.28586e-07 3.6919e+10 3.19482e+09
110 2 5.55 -3.7 -5.55 1.72585e+10 1.23261e+10 1.72585e+10 -1.82146e-07 6.51027e-07 -1.21378e-07 3.45465e+10 6.17372e+09
111 2 3.7 -1.85 -5.55 1.23261e+10 7.03291e+06 1.72585e+10 1.35187e-08 -1.25246e-06 9.63761e-07 2.46726e+10 7.59792e+06
112 2 7.4 -3.7 -7.4 1.07335e+10 4.10502e+08 1.07335e+10 -2.75241e-06 -5.04781e+09 2.82327e-06 3.76194e+10 4.24098e+09
113 2 9.25 -1.85 -7.4 3.20436e+10 3.74743e+10 7.73386e+10 -1.74861e-05 1.59727e+10 -6.1019e-06 -9.25211e+09 -6.53623e+10
114 2 9.25 -3.7 -5.55 4.18611e+10 9.75715e+10 1.07231e+11 -4.99422e+09 -2.14168e+09 -2.04938e-06 -7.67089e+09 -5.05651e+10
115 2 7.4 -1.85 -5.55 1.31686e+10 -5.95077e+09 1.51552e+10 -4.72229e-07 -3.14179e+09 1.02851e-06 3.62345e+10 5.55915e+09
116 2 -9.25 1.85 -7.4 3.20436e+10 3.74743e+10 7.73386e+10 6.41155e-05 -1.59727e+10 -2.68171e-05 -9.25211e+09 -6.53623e+10
117 2 -9.25 0 -5.55 4.32743e+10 5.20158e+10 1.07231e+11 -7.28586e-05 2.14168e+09 -1.23065e-06 -7.89451e+09 -5.39526e+10
118 2 -7.4 0 -7.4 1.07335e+10 -1.19086e+10 1.07335e+10 1.72881e-06 5.04781e+09 2.30934e-06 3.76194e+10 4.24098e+09
119 2 -5.55 1.85 -7.4 1.51552e+10 -5.95077e+09 1.31686e+10 1.68628e-07 3.14179e+09 -8.37873e-06 3.6919e+10 3.19482e+09
120 2 -5.55 0 -5.55 1.72585e+10 7.03291e+06 1.72585e+10 -3.1469e-07 1.2149e-07 9.7626e-08 3.45465e+10 6.17372e+09
121 2 -7.4 1.85 -5.55 1.31686e+10 -5.95077e+09 1.51552e+10 -8.10551e-06 3.14179e+09 3.45089e-07 3.62345e+10 5.55915e+09
122 2 -3.7 0 -7.4 6.36831e+09 -5.95077e+09 1.19369e+10 1.99223e-10 2.64112e-06 3.03793e-06 2.16937e+10 -2.9713e+09
123 2 -1.85 1.85 -7.4 -5.95077e+09 -5.95077e+09 1.19369e+10 -1.34831e-07 -1.17044e-06 -8.37873e-06 -2.97082e+09 -2.9713e+09
124 2 -1.85 0 -5.55 7.03291e+06 7.03291e+06 1.72585e+10 -2.30024e-07 9.61071e-07 9.76187e-08 8.08576e+06 7.59792e+06
125 2 -3.7 1.85 -5.55 1.23261e+10 7.03291e+06 1.72585e+10 -0 3.03587e-08 3.972e-07 2.46726e+10 7.59792e+06
126 2 0 0 -7.4 -5.95077e+09 -5.95077e+09 1.19369e+10 -3.51116e-07 2.50659e-06 2.94844e-06 -2.97082e+09 -2.9713e+09
127 2 1.85 1.85 -7.4 -5.95077e+09 -5.95077e+09 1.19369e+10 1.08505e-07 -8.57439e-06 -8.37873e-06 -2.97082e+09 -2.9713e+09
128 2 1.85 0 -5.55 7.03291e+06 7.03291e+06 1.72585e+10 2.02399e-07 4.12853e-07 5.70736e-08 8.08576e+06 7.59792e+06
129 2 0 1.85 -5.55 7.03291e+06 7.03291e+06 1.72585e+10 -5.44341e-08 -1.77888e-07 3.29607e-07 8.08576e+06 7.59792e+06
130 2 3.7 0 -7.4 6.36831e+09 -5.95077e+09 1.19369e+10 2.16647e-07 -4.18937e-06 2.94844e-06 2.16937e+10 -2.9713e+09
131 2 5.55 1.85 -7.4 1.51552e+10 -5.95077e+09 1.31686e+10 -2.86735e-07 -3.14179e+09 -8.37873e-06 3.6919e+10 3.19482e+09
132 2 5.55 0 -5.55 1.72585e+10 7.03291e+06 1.72585e+10 4.06417e-07 4.55366e-07 1.11134e-07 3.45465e+10 6.17372e+09
133 2 3.7 1.85 -5.55 1.23261e+10 7.03291e+06 1.72585e+10 -1.62224e-07 -1.25246e-06 3.43125e-07 2.46726e+10 7.59792e+06
134 2 7.4 0 -7.4 1.07335e+10 -1.19086e+10 1.07335e+10 -2.04854e-06 -5.04781e+09 2.21985e-06 3.76194e+10 4.24098e+09
135 2 9.25 1.85 -7.4 3.20436e+10 3.74743e+10 7.73386e+10 -5.82868e-05 1.59727e+10 -2.69081e-05 -9.25211e+09 -6.53623e+10
136 2 9.25 0 -5.55 4.32743e+10 5.20158e+10 1.07231e+11 7.28586e-05 -2.14168e+09 -1.97268e-06 -7.89451e+09 -5.39526e+10
137 2 7.4 1.85 -5.55 1.31686e+10 -5.95077e+09 1.51552e+10 7.77125e-06 -3.14179e+09 3.31563e-07 3.62345e+10 5.55915e+09
138 2 -9.25 5.55 -7.4 2.54784e+10 1.06319e+11 8.17555e+10 -4.83902e+09 -1.43751e+10 -1.10282e+10 -1.15548e+10 -8.31467e+10
139 2 -9.25 3.7 -5.55 4.18611e+10 9.75715e+10 1.07231e+11 -4.99422e+09 2.14168e+09 -4.46053e-06 -7.67089e+09 -5.05651e+10
140 2 -7.4 3.7 -7.4 1.07335e+10 4.10502e+08 1.07335e+10 -4.11181e-06 5.04781e+09 -4.65825e-06 3.76194e+10 4.24098e+09
141 2 -5.55 5.55 -7.4 1.51552e+10 1.51552e+10 1.44003e+10 1.68631e-07 3.14179e+09 -3.14179e+09 3.6919e+10 -8.72079e+09
142 2 -5.55 3.7 -5.55 1.72585e+10 1.23261e+10 1.72585e+10 -1.49912e-06 -8.76935e-08 -1.14129e-06 3.45465e+10 6.17372e+09
143 2 -7.4 5.55 -5.55 1.44003e+10 1.51552e+10 1.51552e+10 -3.14179e+09 3.14179e+09 2.7322e-07 3.66933e+10 -8.98123e+08
144 2 -3.7 3.7 -7.4 6.36831e+09 6.36831e+09 1.19369e+10 -1.74231e-10 2.64112e-06 -4.11181e-06 2.16937e+10 -2.9713e+09
145 2 -1.85 5.55 -7.4 -5.95077e+09 1.51552e+10 1.31686e+10 1.3515e-08 -1.17044e-06 -3.14179e+09 -2.97082e+09 -1.48869e+10
146 2 -1.85 3.7 -5.55 7.03291e+06 1.23261e+10 1.72585e+10 2.16266e-07 9.61071e-07 -1.1413e-06 8.08576e+06 7.59792e+06
147 2 -3.7 5.55 -5.55 1.23261e+10 1.72585e+10 1.72585e+10 -0 4.38774e-08 2.09176e-07 2.46726e+10 -1.1908e+10
148 2 0 3.7 -7.4 -5.95077e+09 6.36831e+09 1.19369e+10 1.08146e-07 2.87088e-06 -3.82507e-06 -2.97082e+09 -2.9713e+09
149 2 1.85 5.55 -7.4 -5.95077e+09 1.51552e+10 1.31686e+10 -9.10732e-08 -8.57439e-06 -3.14179e+09 -2.97082e+09 -1.48869e+10
150 2 1.85 3.7 -5.55 7.03291e+06 1.23261e+10 1.72585e+10 -0 4.26372e-07 -1.18184e-06 8.08576e+06 7.59792e+06
151 2 0 5.55 -5.55 7.03291e+06 1.72585e+10 1.72585e+10 7.12745e-07 -1.6437e-07 2.7322e-07 8.08576e+06 -1.1908e+10
152 2 3.7 3.7 -7.4 6.36831e+09 6.36831e+09 1.19369e+10 2.70118e-08 -4.09829e-06 -3.82507e-06 2.16937e+10 -2.9713e+09
153 2 5.55 5.55 -7.4 1.51552e+10 1.51552e+10 1.44003e+10 -9.10732e-07 -3.14179e+09 -3.14179e+09 3.6919e+10 -8.72079e+09
154 2 5.55 3.7 -5.55 1.72585e+10 1.23261e+10 1.72585e+10 9.20715e-07 4.55366e-07 -1.12778e-06 3.45465e+10 6.17372e+09
155 2 3.7 5.55 -5.55 1.23261e+10 1.72585e+10 1.72585e+10 9.83811e-07 -1.23894e-06 2.7322e-07 2.46726e+10 -1.1908e+10
156 2 7.4 3.7 -7.4 1.07335e+10 4.10502e+08 1.07335e+10 3.86929e-06 -5.04781e+09 -4.82688e-06 3.76194e+10 4.24098e+09
157 2 9.25 5.55 -7.4 2.54784e+10 1.06319e+11 8.17555e+10 4.83902e+09 1.43751e+10 -1.10282e+10 -1.15548e+10 -8.31467e+10
158 2 9.25 3.7 -5.55 4.18611e+10 9.75715e+10 1.07231e+11 4.99422e+09 -2.14168e+09 -4.63208e-06 -7.67089e+09 -5.05651e+10
159 2 7.4 5.55 -5.55 1.44003e+10 1.51552e+10 1.51552e+10 3.14179e+09 -3.14179e+09 3.64293e-07 3.66933e+10 -8.98123e+08
160 2 -9.25 9.25 -7.4 6.63487e+10 6.63487e+10 2.7897e+11 1.09219e+09 -2.62886e+10 2.62886e+10 6.12603e+10 -6.14863e+10
161 2 -9.25 7.4 -5.55 2.54784e+10 8.17555e+10 1.06319e+11 1.43751e+10 4.83902e+09 -1.10282e+10 -1.15548e+10 -4.40266e+10
162 2 -7.4 7.4 -7.4 1.03464e+10 1.03464e+10 1.03464e+10 -6.46283e+09 6.46283e+09 -6.46283e+09 4.00794e+10 4.39877e+09
163 2 -5.55 9.25 -7.4 1.06319e+11 2.54784e+10 8.17555e+10 -4.83902e+09 1.10282e+10 1.43751e+10 1.62887e+11 1.44614e+10
164 2 -5.55 7.4 -5.55 1.51552e+10 1.44003e+10 1.51552e+10 -3.14179e+09 -7.07952e-08 -3.14179e+09 3.6919e+10 3.92392e+09
165 2 -7.4 9.25 -5.55 8.17555e+10 2.54784e+10 1.06319e+11 1.43751e+10 1.10282e+10 -4.83902e+09 1.4013e+11 1.61308e+10
166 2 -3.7 7.4 -7.4 4.10502e+08 1.07335e+10 1.07335e+10 -2.15877e-06 2.27683e-06 -5.04781e+09 1.87148e+10 -1.00332e+10
167 2 -1.85 9.25 -7.4 3.74743e+10 3.20436e+10 7.73386e+10 -1.73039e-05 -2.27683e-06 1.59727e+10 1.87393e+10 -8.7978e+09
168 2 -1.85 7.4 -5.55 -5.95077e+09 1.31686e+10 1.51552e+10 1.09288e-06 1.0043e-06 -3.14179e+09 -2.97082e+09 -5.95021e+09
169 2 -3.7 9.25 -5.55 9.75715e+10 4.18611e+10 1.07231e+11 -4.99422e+09 -1.02469e-06 -2.14168e+09 1.22641e+11 1.75954e+09
170 2 0 7.4 -7.4 -1.19086e+10 1.07335e+10 1.07335e+10 -1.2659e-06 1.94194e-06 -5.04781e+09 -5.94972e+09 -1.00332e+10
171 2 1.85 9.25 -7.4 3.74743e+10 3.20436e+10 7.73386e+10 -5.61011e-05 -2.65934e-05 1.59727e+10 1.87393e+10 -8.7978e+09
172 2 1.85 7.4 -5.55 -5.95077e+09 1.31686e+10 1.51552e+10 8.3919e-06 3.93287e-07 -3.14179e+09 -2.97082e+09 -5.95021e+09
173 2 0 9.25 -5.55 5.20158e+10 4.32743e+10 1.07231e+11 6.9937e-05 -2.20353e-06 -2.14168e+09 2.601e+10 -6.01473e+09
174 2 3.7 7.4 -7.4 4.10502e+08 1.07335e+10 1.07335e+10 4.05826e-06 -4.69489e-06 -5.04781e+09 1.87148e+10 -1.00332e+10
175 2 5.55 9.25 -7.4 1.06319e+11 2.54784e+10 8.17555e+10 4.83902e+09 -1.10282e+10 1.43751e+10 1.62887e+11 1.44614e+10
176 2 5.55 7.4 -5.55 1.51552e+10 1.44003e+10 1.51552e+10 3.14179e+09 5.46439e-07 -3.14179e+09 3.6919e+10 3.92392e+09
177 2 3.7 9.25 -5.55 9.75715e+10 4.18611e+10 1.07231e+11 4.99422e+09 -4.88386e-06 -2.14168e+09 1.22641e+11 1.75954e+09
178 2 7.4 7.4 -7.4 1.03464e+10 1.03464e+10 1.03464e+10 6.46283e+09 -6.46283e+09 -6.46283e+09 4.00794e+10 4.39877e+09
179 2 9.25 9.25 -7.4 6.63487e+10 6.63487e+10 2.7897e+11 -1.09219e+09 2.62886e+10 2.62886e+10 6.12603e+10 -6.14863e+10
180 2 9.25 7.4 -5.55 2.54784e+10 8.17555e+10 1.06319e+11 -1.43751e+10 -4.83902e+09 -1.10282e+10 -1.15548e+10 -4.40266e+10
181 2 7.4 9.25 -5.55 8.17555e+10 2.54784e+10 1.06319e+11 -1.43751e+10 -1.10282e+10 -4.83902e+09 1.4013e+11 1.61308e+10
182 2 -9.25 -9.25 -3.7 9.47753e+10 9.47753e+10 3.70124e+11 7.01495e+09 1.84685e+10 1.84685e+10 5.81709e+10 -5.81553e+10
183 2 -5.55 -9.25 -3.7 1.07231e+11 4.18611e+10 9.75715e+10 2.14168e+09 -5.46439e-07 4.99422e+09 1.49592e+11 1.46067e+10
184 2 -7.4 -9.25 -1.85 7.73386e+10 3.20436e+10 3.74743e+10 -1.59727e+10 -2.18576e-06 1.16574e-05 1.38378e+11 1.6662e+10
185 2 -1.85 -9.25 -3.7 5.20158e+10 4.77254e+10 9.75715e+10 1.25882e-05 -4.63333e-07 4.99422e+09 2.601e+10 -3.62478e+09
186 2 -3.7 -9.25 -1.85 9.75715e+10 4.77254e+10 5.20158e+10 4.99422e+09 1.87599e-07 1.45717e-05 1.22641e+11 4.14949e+09
187 2 1.85 -9.25 -3.7 5.20158e+10 4.77254e+10 9.75715e+10 6.07273e-05 4.5633e-07 4.99422e+09 2.601e+10 -3.62478e+09
188 2 0 -9.25 -1.85 5.20158e+10 4.91386e+10 5.20158e+10 -7.1085e-05 -2.17318e-06 1.74861e-05 2.601e+10 -3.62478e+09
189 2 5.55 -9.25 -3.7 1.07231e+11 4.18611e+10 9.75715e+10 -2.14168e+09 -3.64293e-07 4.99422e+09 1.49592e+11 1.46067e+10
190 2 3.7 -9.25 -1.85 9.75715e+10 4.77254e+10 5.20158e+10 -4.99422e+09 1.01911e-06 1.45717e-05 1.22641e+11 4.14949e+09
191 2 9.25 -9.25 -3.7 9.47753e+10 9.47753e+10 3.70124e+11 -7.01495e+09 -1.84685e+10 1.84685e+10 5.81709e+10 -5.81553e+10
192 2 7.4 -9.25 -1.85 7.73386e+10 3.20436e+10 3.74743e+10 1.59727e+10 2.18576e-06 1.45717e-05 1.38378e+11 1.6662e+10
193 2 -9.25 -5.55 -3.7 4.18611e+10 1.07231e+11 9.75715e+10 2.14168e+09 4.99422e+09 -0 -7.67089e+09 -7.394e+10
194 2 -9.25 -7.4 -1.85 3.20436e+10 7.73386e+10 3.74743e+10 -1.59727e+10 1.16574e-05 -2.91434e-06 -9.25211e+09 -4.52525e+10
195 2 -7.4 -7.4 -3.7 1.07335e+10 1.07335e+10 4.10502e+08 5.04781e+09 1.91254e-06 1.82146e-06 3.76194e+10 5.26298e+09
196 2 -5.55 -5.55 -3.7 1.72585e+10 1.72585e+10 1.23261e+10 -3.11271e-07 -1.12121e-07 9.18829e-08 3.45465e+10 -5.74189e+09
197 2 -5.55 -7.4 -1.85 1.51552e+10 1.31686e+10 -5.95077e+09 3.14179e+09 5.55155e-07 -6.37512e-07 3.6919e+10 3.92392e+09
198 2 -7.4 -5.55 -1.85 1.31686e+10 1.51552e+10 -5.95077e+09 3.14179e+09 -4.55366e-07 8.39841e-07 3.62345e+10 -8.98123e+08
199 2 -3.7 -7.4 -3.7 6.36831e+09 1.19369e+10 6.36831e+09 1.89872e-06 1.35187e-08 2.09468e-06 2.16937e+10 -5.95021e+09
200 2 -1.85 -5.55 -3.7 7.03291e+06 1.72585e+10 1.23261e+10 9.94675e-07 5.43109e-08 9.18719e-08 8.08576e+06 -1.1908e+10
201 2 -1.85 -7.4 -1.85 -5.95077e+09 1.19369e+10 -5.95077e+09 -1.17318e-06 -4.3242e-07 -6.37512e-07 -2.97082e+09 -5.95021e+09
202 2 -3.7 -5.55 -1.85 1.23261e+10 1.72585e+10 7.03291e+06 3.03587e-08 9.44529e-08 7.12829e-07 2.46726e+10 -1.1908e+10
203 2 0 -7.4 -3.7 -5.95077e+09 1.19369e+10 6.36831e+09 3.13058e-06 -4.04977e-08 2.09468e-06 -2.97082e+09 -5.95021e+09
204 2 1.85 -5.55 -3.7 7.03291e+06 1.72585e+10 1.23261e+10 2.20753e-07 1.48825e-07 6.48419e-08 8.08576e+06 -1.1908e+10
205 2 1.85 -7.4 -1.85 -5.95077e+09 1.19369e+10 -5.95077e+09 -8.85505e-06 1.22024e-07 -6.37512e-07 -2.97082e+09 -5.95021e+09
206 2 0 -5.55 -1.85 7.03291e+06 1.72585e+10 7.03291e+06 1.77731e-08 -3.92012e-07 6.72198e-07 8.08576e+06 -1.1908e+10
207 2 3.7 -7.4 -3.7 6.36831e+09 1.19369e+10 6.36831e+09 -4.02104e-06 -8.11121e-08 2.09468e-06 2.16937e+10 -5.95021e+09
208 2 5.55 -5.55 -3.7 1.72585e+10 1.72585e+10 1.23261e+10 6.51027e-07 -1.82146e-07 1.05391e-07 3.45465e+10 -5.74189e+09
209 2 5.55 -7.4 -1.85 1.51552e+10 1.31686e+10 -5.95077e+09 -3.14179e+09 -3.64293e-07 -6.37512e-07 3.6919e+10 3.92392e+09
210 2 3.7 -5.55 -1.85 1.23261e+10 1.72585e+10 7.03291e+06 -1.14787e-06 1.35187e-08 6.85717e-07 2.46726e+10 -1.1908e+10
211 2 7.4 -7.4 -3.7 1.07335e+10 1.07335e+10 4.10502e+08 -5.04781e+09 -2.40163e-06 1.91254e-06 3.76194e+10 5.26298e+09
212 2 9.25 -5.55 -3.7 4.18611e+10 1.07231e+11 9.75715e+10 -2.14168e+09 -4.99422e+09 -3.64293e-07 -7.67089e+09 -7.394e+10
213 2 9.25 -7.4 -1.85 3.20436e+10 7.73386e+10 3.74743e+10 1.59727e+10 -1.16574e-05 -2.91434e-06 -9.25211e+09 -4.52525e+10
214 2 7.4 -5.55 -1.85 1.31686e+10 1.51552e+10 -5.95077e+09 -3.14179e+09 -4.72229e-07 7.85684e-07 3.62345e+10 -8.98123e+08
215 2 -9.25 -1.85 -3.7 4.77254e+10 5.20158e+10 9.75715e+10 2.04004e-05 4.99422e+09 -2.46327e-07 -5.21811e+09 -5.46329e+10
216 2 -9.25 -3.7 -1.85 4.77254e+10 9.75715e+10 5.20158e+10 4.99422e+09 1.74861e-05 1.47816e-06 -5.21811e+09 -5.12454e+10
217 2 -7.4 -3.7 -3.7 1.19369e+10 6.36831e+09 6.36831e+09 1.73039e-06 2.27683e-06 -2.04381e-07 3.57757e+10 5.55915e+09
218 2 -5.55 -1.85 -3.7 1.72585e+10 7.03291e+06 1.23261e+10 5.55674e-07 2.96399e-08 -5.56173e-08 3.45465e+10 6.17372e+09
219 2 -5.55 -3.7 -1.85 1.72585e+10 1.23261e+10 7.03291e+06 -1.5e-08 5.59773e-07 9.55201e-08 3.45465e+10 6.17372e+09
220 2 -7.4 -1.85 -1.85 1.19369e+10 -5.95077e+09 -5.95077e+09 -8.99959e-07 -6.37512e-07 -4.47361e-07 3.57757e+10 5.55915e+09
221 2 -3.7 -3.7 -3.7 1.23261e+10 1.23261e+10 1.23261e+10 1.35187e-08 1.35187e-08 -2.04381e-07 2.46726e+10 7.59792e+06
222 2 -1.85 -1.85 -3.7 7.03291e+06 7.03291e+06 1.23261e+10 -3.7833e-07 5.41403e-08 -5.56173e-08 8.08576e+06 7.59792e+06
223 2 -1.85 -3.7 -1.85 7.03291e+06 1.23261e+10 7.03291e+06 5.43109e-08 -3.78338e-07 9.55201e-08 8.08576e+06 7.59792e+06
224 2 -3.7 -1.85 -1.85 1.23261e+10 7.03291e+06 7.03291e+06 -1.33408e-08 -1.35187e-08 -3.79946e-07 2.46726e+10 7.59792e+06
225 2 0 -3.7 -3.7 7.03291e+06 1.23261e+10 1.23261e+10 -4.03125e-08 -4.04904e-08 -2.04381e-07 8.08576e+06 7.59792e+06
226 2 1.85 -1.85 -3.7 7.03291e+06 7.03291e+06 1.23261e+10 6.79418e-08 1.4864e-07 -5.56173e-08 8.08576e+06 7.59792e+06
227 2 1.85 -3.7 -1.85 7.03291e+06 1.23261e+10 7.03291e+06 1.48825e-07 6.79418e-08 9.55201e-08 8.08576e+06 7.59792e+06
228 2 0 -1.85 -1.85 7.03291e+06 7.03291e+06 7.03291e+06 -2.8403e-07 -2.84034e-07 -3.80124e-07 8.08576e+06 7.59792e+06
229 2 3.7 -3.7 -3.7 1.23261e+10 1.23261e+10 1.23261e+10 -9.49901e-08 -9.46307e-08 -2.04381e-07 2.46726e+10 7.59792e+06
230 2 5.55 -1.85 -3.7 1.72585e+10 7.03291e+06 1.23261e+10 -2.86735e-07 -1.82146e-07 -5.56173e-08 3.45465e+10 6.17372e+09
231 2 5.55 -3.7 -1.85 1.72585e+10 1.23261e+10 7.03291e+06 -1.04588e-07 -2.7322e-07 9.55201e-08 3.45465e+10 6.17372e+09
232 2 3.7 -1.85 -1.85 1.23261e+10 7.03291e+06 7.03291e+06 1.36929e-08 1.35187e-08 -3.80124e-07 2.46726e+10 7.59792e+06
233 2 7.4 -3.7 -3.7 1.19369e+10 6.36831e+09 6.36831e+09 -2.4151e-06 -2.42861e-06 -2.04381e-07 3.57757e+10 5.55915e+09
234 2 9.25 -1.85 -3.7 4.77254e+10 5.20158e+10 9.75715e+10 -1.74861e-05 -4.99422e+09 7.7291e-07 -5.21811e+09 -5.46329e+10
235 2 9.25 -3.7 -1.85 4.77254e+10 9.75715e+10 5.20158e+10 -4.99422e+09 -1.45717e-05 1.45717e-06 -5.21811e+09 -5.12454e+10
236 2 7.4 -1.85 -1.85 1.19369e+10 -5.95077e+09 -5.95077e+09 -5.46195e-08 -4.99213e-07 -4.47717e-07 3.57757e+10 5.55915e+09
237 2 -9.25 1.85 -3.7 4.77254e+10 5.20158e+10 9.75715e+10 6.99442e-05 4.99422e+09 1.26925e-06 -5.21811e+09 -5.46329e+10
238 2 -9.25 0 -1.85 4.91386e+10 5.20158e+10 5.20158e+10 -6.99442e-05 1.74861e-05 -1.44686e-06 -5.44173e+09 -5.46329e+10
239 2 -7.4 0 -3.7 1.19369e+10 -5.95077e+09 6.36831e+09 2.52144e-06 2.09468e-06 5.23829e-08 3.57757e+10 5.55915e+09
240 2 -5.55 1.85 -3.7 1.72585e+10 7.03291e+06 1.23261e+10 7.75545e-08 -6.14297e-08 4.06756e-08 3.45465e+10 6.17372e+09
241 2 -5.55 0 -1.85 1.72585e+10 7.03291e+06 7.03291e+06 -8.12936e-08 4.45227e-07 -5.00361e-07 3.45465e+10 6.17372e+09
242 2 -7.4 1.85 -1.85 1.19369e+10 -5.95077e+09 -5.95077e+09 -7.94432e-06 -4.55366e-07 1.35365e-07 3.57757e+10 5.55915e+09
243 2 -3.7 0 -3.7 1.23261e+10 7.03291e+06 1.23261e+10 2.06516e-10 -9.46307e-08 6.6791e-08 2.46726e+10 7.59792e+06
244 2 -1.85 1.85 -3.7 7.03291e+06 7.03291e+06 1.23261e+10 -1.07794e-07 5.41367e-08 4.06756e-08 8.08576e+06 7.59792e+06
245 2 -1.85 0 -1.85 7.03291e+06 7.03291e+06 7.03291e+06 -2.3017e-07 -3.78345e-07 -5.00361e-07 8.08576e+06 7.59792e+06
246 2 -3.7 1.85 -1.85 1.23261e+10 7.03291e+06 7.03291e+06 -0 9.44529e-08 6.79491e-08 2.46726e+10 7.59792e+06
247 2 0 0 -3.7 7.03291e+06 7.03291e+06 1.23261e+10 -2.97026e-07 6.74775e-08 6.67623e-08 8.08576e+06 7.59792e+06
248 2 1.85 1.85 -3.7 7.03291e+06 7.03291e+06 1.23261e+10 1.08505e-07 1.48643e-07 4.06756e-08 8.08576e+06 7.59792e+06
249 2 1.85 0 -1.85 7.03291e+06 7.03291e+06 7.03291e+06 2.02777e-07 6.75934e-08 -5.00357e-07 8.08576e+06 7.59792e+06
250 2 0 1.85 -1.85 7.03291e+06 7.03291e+06 7.03291e+06 -5.42489e-08 -3.92187e-07 6.77713e-08 8.08576e+06 7.59792e+06