ITEM: TIMESTEP
0
ITEM: NUMBER OF ATOMS
665
ITEM: BOX BOUNDS xy xz yz pp pp pp
-1.0000000000000000e+01 1.0000000000000000e+01 0.0000000000000000e+00
-1.0000000000000000e+01 1.0000000000000000e+01 0.0000000000000000e+00
-1.0000000000000000e+01 1.0000000000000000e+01 0.0000000000000000e+00
ITEM: ATOMS id type x y z c_1[1] c_1[2] c_1[3] c_1[4] c_1[5] c_1[6] c_1[7] c_1[8] c_1[13] c_1[15] c_1[22]
1 2 -7.4 -9.25 -9.25 1.31603e+08 9.65191e+07 9.65191e+07 -1.77842e+07 -1.77842e+07 -2.28751e+07 1.31603e+08 3.04393e-10 9.65191e+07 3.33964e-302 9.65191e+07
2 2 -3.7 -9.25 -9.25 2.19338e+08 1.03729e+08 1.03729e+08 -0 -0 -1.92702e+07 2.19338e+08 -9.13178e-10 1.03729e+08 2.96017e-302 1.03729e+08
3 2 0 -9.25 -9.25 2.19338e+08 1.03729e+08 1.03729e+08 4.26906e-09 4.26906e-09 -1.92702e+07 2.19338e+08 -6.08785e-10 1.03729e+08 -1.04281e-10 1.03729e+08
4 2 3.7 -9.25 -9.25 2.19338e+08 1.03729e+08 1.03729e+08 1.70762e-08 1.70762e-08 -1.92702e+07 2.19338e+08 -9.13178e-10 1.03729e+08 2.00112e-10 1.03729e+08
5 2 7.4 -9.25 -9.25 1.31603e+08 9.65191e+07 9.65191e+07 1.77842e+07 1.77842e+07 -2.28751e+07 1.31603e+08 -1.52196e-09 9.65191e+07 -2.00112e-10 9.65191e+07
6 2 -9.25 -7.4 -9.25 9.65191e+07 1.31603e+08 9.65191e+07 -1.77842e+07 -2.28751e+07 -1.77842e+07 9.65191e+07 -0 1.31603e+08 4.55356e-302 1.31603e+08
7 2 -5.55 -7.4 -9.25 1.4257e+08 9.87021e+07 7.27068e+07 -0 -7.8266e-09 -8.89208e+06 1.4257e+08 -1.21757e-09 9.87021e+07 2.65624e-302 9.87021e+07
8 2 -7.4 -5.55 -9.25 9.87021e+07 1.4257e+08 7.27068e+07 -0 -8.89208e+06 -4.26906e-09 9.87021e+07 -0 1.4257e+08 4.93302e-302 1.4257e+08
9 2 -1.85 -7.4 -9.25 1.4257e+08 9.87021e+07 7.27068e+07 -0 -0 -8.89208e+06 1.4257e+08 -1.21757e-09 9.87021e+07 2.84598e-302 9.87021e+07
10 2 -3.7 -5.55 -9.25 1.4257e+08 1.4257e+08 7.63117e+07 -0 -0 -4.26906e-09 1.4257e+08 -1.21757e-09 1.4257e+08 3.79463e-302 1.4257e+08
11 2 1.85 -7.4 -9.25 1.4257e+08 9.87021e+07 7.27068e+07 -0 7.11509e-09 -8.89208e+06 1.4257e+08 -1.21757e-09 9.87021e+07 2.84598e-302 9.87021e+07
12 2 0 -5.55 -9.25 1.4257e+08 1.4257e+08 7.63117e+07 -1.42302e-09 -5.69207e-09 -4.26906e-09 1.4257e+08 -0 1.4257e+08 1.21757e-09 1.4257e+08
13 2 5.55 -7.4 -9.25 1.4257e+08 9.87021e+07 7.27068e+07 -0 3.55755e-09 -8.89208e+06 1.4257e+08 6.08785e-10 9.87021e+07 1.51785e-302 9.87021e+07
14 2 3.7 -5.55 -9.25 1.4257e+08 1.4257e+08 7.63117e+07 -0 8.53811e-09 -4.26906e-09 1.4257e+08 -0 1.4257e+08 4.93302e-302 1.4257e+08
15 2 9.25 -7.4 -9.25 9.65191e+07 1.31603e+08 9.65191e+07 1.77842e+07 2.28751e+07 -1.77842e+07 9.65191e+07 -1.21757e-09 1.31603e+08 4.1741e-302 1.31603e+08
16 2 7.4 -5.55 -9.25 9.87021e+07 1.4257e+08 7.27068e+07 -1.42302e-09 8.89208e+06 -4.26906e-09 9.87021e+07 -6.08785e-10 1.4257e+08 1.52196e-09 1.4257e+08
17 2 -9.25 -3.7 -9.25 1.03729e+08 2.19338e+08 1.03729e+08 -0 -1.92702e+07 -0 1.03729e+08 -0 2.19338e+08 7.58927e-302 2.19338e+08
18 2 -5.55 -3.7 -9.25 1.4257e+08 1.4257e+08 7.63117e+07 -0 -7.8266e-09 -0 1.4257e+08 -0 1.4257e+08 4.93302e-302 1.4257e+08
19 2 -7.4 -1.85 -9.25 9.87021e+07 1.4257e+08 7.27068e+07 -0 -8.89208e+06 -0 9.87021e+07 -0 1.4257e+08 4.93302e-302 1.4257e+08
20 2 -1.85 -3.7 -9.25 1.4257e+08 1.4257e+08 7.63117e+07 -0 -0 -0 1.4257e+08 -0 1.4257e+08 4.93302e-302 1.4257e+08
21 2 -3.7 -1.85 -9.25 1.4257e+08 1.4257e+08 7.63117e+07 -0 -0 -0 1.4257e+08 -1.21757e-09 1.4257e+08 3.41517e-302 1.4257e+08
22 2 1.85 -3.7 -9.25 1.4257e+08 1.4257e+08 7.63117e+07 -0 7.11509e-09 -0 1.4257e+08 1.21757e-09 1.4257e+08 2.08705e-302 1.4257e+08
23 2 0 -1.85 -9.25 1.4257e+08 1.4257e+08 7.63117e+07 1.42302e-09 -5.69207e-09 -0 1.4257e+08 -0 1.4257e+08 -1.21757e-09 1.4257e+08
24 2 5.55 -3.7 -9.25 1.4257e+08 1.4257e+08 7.63117e+07 -0 3.55755e-09 -0 1.4257e+08 -1.82636e-09 1.4257e+08 3.03571e-302 1.4257e+08
25 2 3.7 -1.85 -9.25 1.4257e+08 1.4257e+08 7.63117e+07 -0 8.53811e-09 -0 1.4257e+08 -0 1.4257e+08 4.93302e-302 1.4257e+08
26 2 9.25 -3.7 -9.25 1.03729e+08 2.19338e+08 1.03729e+08 -0 1.92702e+07 -0 1.03729e+08 1.21757e-09 2.19338e+08 4.93302e-302 2.19338e+08
27 2 7.4 -1.85 -9.25 9.87021e+07 1.4257e+08 7.27068e+07 1.42302e-09 8.89208e+06 -0 9.87021e+07 -6.08785e-10 1.4257e+08 -1.52196e-09 1.4257e+08
28 2 -9.25 0 -9.25 1.03729e+08 2.19338e+08 1.03729e+08 4.26906e-09 -1.92702e+07 2.84604e-09 1.03729e+08 2.00112e-10 2.19338e+08 1.57987e-25 2.19338e+08
29 2 -5.55 0 -9.25 1.4257e+08 1.4257e+08 7.63117e+07 -1.42302e-09 -7.8266e-09 -7.11509e-09 1.4257e+08 3.04393e-10 1.4257e+08 1.52196e-09 1.4257e+08
30 2 -7.4 1.85 -9.25 9.87021e+07 1.4257e+08 7.27068e+07 -0 -8.89208e+06 7.11509e-09 9.87021e+07 -0 1.4257e+08 3.79463e-302 1.4257e+08
31 2 -1.85 0 -9.25 1.4257e+08 1.4257e+08 7.63117e+07 1.42302e-09 -0 -7.11509e-09 1.4257e+08 3.04393e-10 1.4257e+08 -1.52196e-09 1.4257e+08
32 2 -3.7 1.85 -9.25 1.4257e+08 1.4257e+08 7.63117e+07 -0 -0 7.11509e-09 1.4257e+08 6.08785e-10 1.4257e+08 2.27678e-302 1.4257e+08
33 2 1.85 0 -9.25 1.4257e+08 1.4257e+08 7.63117e+07 1.42302e-09 7.11509e-09 -7.11509e-09 1.4257e+08 6.08785e-10 1.4257e+08 -1.82636e-09 1.4257e+08
34 2 0 1.85 -9.25 1.4257e+08 1.4257e+08 7.63117e+07 1.42302e-09 -5.69207e-09 7.11509e-09 1.4257e+08 6.08785e-10 1.4257e+08 -1.82636e-09 1.4257e+08
35 2 5.55 0 -9.25 1.4257e+08 1.4257e+08 7.63117e+07 -1.42302e-09 3.55755e-09 -7.11509e-09 1.4257e+08 3.04393e-10 1.4257e+08 6.08785e-10 1.4257e+08
36 2 3.7 1.85 -9.25 1.4257e+08 1.4257e+08 7.63117e+07 -0 8.53811e-09 7.11509e-09 1.4257e+08 -0 1.4257e+08 3.79463e-302 1.4257e+08
37 2 9.25 0 -9.25 1.03729e+08 2.19338e+08 1.03729e+08 -4.26906e-09 1.92702e+07 2.84604e-09 1.03729e+08 8.08897e-10 2.19338e+08 -1.82636e-09 2.19338e+08
38 2 7.4 1.85 -9.25 9.87021e+07 1.4257e+08 7.27068e+07 -0 8.89208e+06 7.11509e-09 9.87021e+07 9.13178e-10 1.4257e+08 -1.21757e-09 1.4257e+08
39 2 -9.25 3.7 -9.25 1.03729e+08 2.19338e+08 1.03729e+08 1.70762e-08 -1.92702e+07 1.70762e-08 1.03729e+08 -0 2.19338e+08 1.21757e-09 2.19338e+08
40 2 -5.55 3.7 -9.25 1.4257e+08 1.4257e+08 7.63117e+07 -0 -7.8266e-09 1.13841e-08 1.4257e+08 -1.21757e-09 1.4257e+08 3.41517e-302 1.4257e+08
41 2 -7.4 5.55 -9.25 9.87021e+07 1.4257e+08 7.27068e+07 -0 -8.89208e+06 3.55755e-09 9.87021e+07 -6.08785e-10 1.4257e+08 2.27678e-302 1.4257e+08
42 2 -1.85 3.7 -9.25 1.4257e+08 1.4257e+08 7.63117e+07 -0 -0 1.13841e-08 1.4257e+08 -1.21757e-09 1.4257e+08 3.6049e-302 1.4257e+08
43 2 -3.7 5.55 -9.25 1.4257e+08 1.4257e+08 7.63117e+07 -0 -0 3.55755e-09 1.4257e+08 -1.21757e-09 1.4257e+08 1.13839e-302 1.4257e+08
44 2 1.85 3.7 -9.25 1.4257e+08 1.4257e+08 7.63117e+07 -0 7.11509e-09 1.13841e-08 1.4257e+08 -1.21757e-09 1.4257e+08 3.6049e-302 1.4257e+08
45 2 0 5.55 -9.25 1.4257e+08 1.4257e+08 7.63117e+07 -1.42302e-09 -5.69207e-09 3.55755e-09 1.4257e+08 -1.52196e-09 1.4257e+08 6.08785e-10 1.4257e+08
46 2 5.55 3.7 -9.25 1.4257e+08 1.4257e+08 7.63117e+07 -0 3.55755e-09 1.13841e-08 1.4257e+08 6.08785e-10 1.4257e+08 3.03571e-302 1.4257e+08
47 2 3.7 5.55 -9.25 1.4257e+08 1.4257e+08 7.63117e+07 -0 8.53811e-09 3.55755e-09 1.4257e+08 -6.08785e-10 1.4257e+08 3.22544e-302 1.4257e+08
48 2 9.25 3.7 -9.25 1.03729e+08 2.19338e+08 1.03729e+08 -1.70762e-08 1.92702e+07 1.70762e-08 1.03729e+08 -1.21757e-09 2.19338e+08 -1.21757e-09 2.19338e+08
49 2 7.4 5.55 -9.25 9.87021e+07 1.4257e+08 7.27068e+07 -1.42302e-09 8.89208e+06 3.55755e-09 9.87021e+07 -9.13178e-10 1.4257e+08 -0 1.4257e+08
50 2 -9.25 7.4 -9.25 9.65191e+07 1.31603e+08 9.65191e+07 1.77842e+07 -2.28751e+07 1.77842e+07 9.65191e+07 -1.10484e-09 1.31603e+08 -1.21757e-09 1.31603e+08
51 2 -5.55 7.4 -9.25 1.4257e+08 9.87021e+07 7.27068e+07 -1.42302e-09 -7.8266e-09 8.89208e+06 1.4257e+08 6.08785e-10 9.87021e+07 1.52196e-09 9.87021e+07
52 2 -7.4 9.25 -9.25 1.31603e+08 9.65191e+07 9.65191e+07 1.77842e+07 -1.77842e+07 2.28751e+07 1.31603e+08 3.04393e-10 9.65191e+07 2.20125e-302 9.65191e+07
53 2 -1.85 7.4 -9.25 1.4257e+08 9.87021e+07 7.27068e+07 1.42302e-09 -0 8.89208e+06 1.4257e+08 6.08785e-10 9.87021e+07 -1.52196e-09 9.87021e+07
54 2 -3.7 9.25 -9.25 2.19338e+08 1.03729e+08 1.03729e+08 -0 -0 1.92702e+07 2.19338e+08 2.13075e-09 1.03729e+08 6.23662e-303 1.03729e+08
55 2 1.85 7.4 -9.25 1.4257e+08 9.87021e+07 7.27068e+07 -0 7.11509e-09 8.89208e+06 1.4257e+08 3.04393e-10 9.87021e+07 -1.21757e-09 9.87021e+07
56 2 0 9.25 -9.25 2.19338e+08 1.03729e+08 1.03729e+08 -2.13453e-09 2.84604e-09 1.92702e+07 2.19338e+08 1.21757e-09 1.03729e+08 -1.72207e-09 1.03729e+08
57 2 5.55 7.4 -9.25 1.4257e+08 9.87021e+07 7.27068e+07 -1.42302e-09 3.55755e-09 8.89208e+06 1.4257e+08 -3.04393e-10 9.87021e+07 1.1454e-24 9.87021e+07
58 2 3.7 9.25 -9.25 2.19338e+08 1.03729e+08 1.03729e+08 -1.70762e-08 1.70762e-08 1.92702e+07 2.19338e+08 -9.13178e-10 1.03729e+08 -2.00112e-10 1.03729e+08
59 2 9.25 7.4 -9.25 9.65191e+07 1.31603e+08 9.65191e+07 -1.77842e+07 2.28751e+07 1.77842e+07 9.65191e+07 -1.91663e-10 1.31603e+08 -4.58162e-24 1.31603e+08
60 2 7.4 9.25 -9.25 1.31603e+08 9.65191e+07 9.65191e+07 -1.77842e+07 1.77842e+07 2.28751e+07 1.31603e+08 2.64628e-24 9.65191e+07 -1.01746e-09 9.65191e+07
61 2 -9.25 -9.25 -7.4 9.65191e+07 9.65191e+07 1.31603e+08 -2.28751e+07 -1.77842e+07 -1.77842e+07 9.65191e+07 5.0028e-11 9.65191e+07 -1.36765e-09 9.65191e+07
62 2 -5.55 -9.25 -7.4 1.4257e+08 7.27068e+07 9.87021e+07 -6.40358e-09 -0 -8.89208e+06 1.4257e+08 -6.08785e-10 7.27068e+07 6.00336e-10 7.27068e+07
63 2 -7.4 -9.25 -5.55 9.87021e+07 7.27068e+07 1.4257e+08 -8.89208e+06 -0 -5.69207e-09 9.87021e+07 -3.04393e-10 7.27068e+07 2.51571e-302 7.27068e+07
64 2 -1.85 -9.25 -7.4 1.4257e+08 7.27068e+07 9.87021e+07 7.11509e-10 -0 -8.89208e+06 1.4257e+08 -6.08785e-10 7.27068e+07 -4.00224e-10 7.27068e+07
65 2 -3.7 -9.25 -5.55 1.4257e+08 7.63117e+07 1.4257e+08 -0 -0 -5.69207e-09 1.4257e+08 -9.13178e-10 7.63117e+07 1.70232e-302 7.63117e+07
66 2 1.85 -9.25 -7.4 1.4257e+08 7.27068e+07 9.87021e+07 7.11509e-09 -0 -8.89208e+06 1.4257e+08 -6.08785e-10 7.27068e+07 -6.00336e-10 7.27068e+07
67 2 0 -9.25 -5.55 1.4257e+08 7.63117e+07 1.4257e+08 -5.69207e-09 -1.42302e-09 -5.69207e-09 1.4257e+08 -4.56589e-10 7.63117e+07 4.00224e-10 7.63117e+07
68 2 5.55 -9.25 -7.4 1.4257e+08 7.27068e+07 9.87021e+07 3.55755e-09 -0 -8.89208e+06 1.4257e+08 -0 7.27068e+07 9.58314e-11 7.27068e+07
69 2 3.7 -9.25 -5.55 1.4257e+08 7.63117e+07 1.4257e+08 8.53811e-09 -0 -5.69207e-09 1.4257e+08 -9.13178e-10 7.63117e+07 2.00112e-10 7.63117e+07
70 2 9.25 -9.25 -7.4 9.65191e+07 9.65191e+07 1.31603e+08 2.28751e+07 1.77842e+07 -1.77842e+07 9.65191e+07 -5.58757e-10 9.65191e+07 9.6743e-10 9.65191e+07
71 2 7.4 -9.25 -5.55 9.87021e+07 7.27068e+07 1.4257e+08 8.89208e+06 -1.42302e-09 -5.69207e-09 9.87021e+07 -6.08785e-10 7.27068e+07 3.04393e-10 7.27068e+07
72 2 -9.25 -5.55 -7.4 7.27068e+07 1.4257e+08 9.87021e+07 -5.69207e-09 -8.89208e+06 -0 7.27068e+07 4.00224e-10 1.4257e+08 2.43514e-09 1.4257e+08
73 2 -9.25 -7.4 -5.55 7.27068e+07 9.87021e+07 1.4257e+08 -8.89208e+06 -5.69207e-09 -0 7.27068e+07 -8.00448e-10 9.87021e+07 3.41517e-302 9.87021e+07
74 2 -7.4 -7.4 -7.4 6.58014e+07 6.58014e+07 6.58014e+07 -0 -0 -0 6.58014e+07 -0 6.58014e+07 2.27678e-302 6.58014e+07
75 2 -5.55 -5.55 -7.4 8.77352e+07 8.77352e+07 6.58014e+07 -0 -0 -0 8.77352e+07 -3.04393e-10 8.77352e+07 3.03571e-302 8.77352e+07
76 2 -5.55 -7.4 -5.55 8.77352e+07 6.58014e+07 8.77352e+07 -0 -0 -0 8.77352e+07 -6.08785e-10 6.58014e+07 2.27678e-302 6.58014e+07
77 2 -7.4 -5.55 -5.55 6.58014e+07 8.77352e+07 8.77352e+07 -0 -0 -0 6.58014e+07 -0 8.77352e+07 3.03571e-302 8.77352e+07
78 2 -3.7 -7.4 -7.4 8.77352e+07 6.58014e+07 6.58014e+07 -0 -0 -0 8.77352e+07 -1.21757e-09 6.58014e+07 2.27678e-302 6.58014e+07
79 2 -1.85 -5.55 -7.4 8.77352e+07 8.77352e+07 6.58014e+07 -0 -0 -0 8.77352e+07 -3.04393e-10 8.77352e+07 3.03571e-302 8.77352e+07
80 2 -1.85 -7.4 -5.55 8.77352e+07 6.58014e+07 8.77352e+07 -0 -0 -0 8.77352e+07 -6.08785e-10 6.58014e+07 2.27678e-302 6.58014e+07
81 2 -3.7 -5.55 -5.55 8.77352e+07 8.77352e+07 8.77352e+07 -0 -0 -0 8.77352e+07 -6.08785e-10 8.77352e+07 3.03571e-302 8.77352e+07
82 2 0 -7.4 -7.4 8.77352e+07 6.58014e+07 6.58014e+07 -0 -0 -0 8.77352e+07 -0 6.58014e+07 2.27678e-302 6.58014e+07
83 2 1.85 -5.55 -7.4 8.77352e+07 8.77352e+07 6.58014e+07 7.11509e-10 -0 -0 8.77352e+07 3.04393e-10 8.77352e+07 -3.04393e-10 8.77352e+07
84 2 1.85 -7.4 -5.55 8.77352e+07 6.58014e+07 8.77352e+07 -0 7.11509e-10 -0 8.77352e+07 -0 6.58014e+07 2.27678e-302 6.58014e+07
85 2 0 -5.55 -5.55 8.77352e+07 8.77352e+07 8.77352e+07 -7.11509e-10 -7.11509e-10 -0 8.77352e+07 3.04393e-10 8.77352e+07 3.04393e-10 8.77352e+07
86 2 3.7 -7.4 -7.4 8.77352e+07 6.58014e+07 6.58014e+07 -0 -0 -0 8.77352e+07 -0 6.58014e+07 2.27678e-302 6.58014e+07
87 2 5.55 -5.55 -7.4 8.77352e+07 8.77352e+07 6.58014e+07 -0 -0 -0 8.77352e+07 -6.08785e-10 8.77352e+07 -3.04393e-10 8.77352e+07
88 2 5.55 -7.4 -5.55 8.77352e+07 6.58014e+07 8.77352e+07 -0 -0 -0 8.77352e+07 -0 6.58014e+07 -0 6.58014e+07
89 2 3.7 -5.55 -5.55 8.77352e+07 8.77352e+07 8.77352e+07 -0 -0 -0 8.77352e+07 -0 8.77352e+07 3.03571e-302 8.77352e+07
90 2 7.4 -7.4 -7.4 6.58014e+07 6.58014e+07 6.58014e+07 -0 -0 -0 6.58014e+07 -0 6.58014e+07 1.13839e-302 6.58014e+07
91 2 9.25 -5.55 -7.4 7.27068e+07 1.4257e+08 9.87021e+07 8.53811e-09 8.89208e+06 -0 7.27068e+07 7.04617e-10 1.4257e+08 -2.73953e-09 1.4257e+08
92 2 9.25 -7.4 -5.55 7.27068e+07 9.87021e+07 1.4257e+08 8.89208e+06 5.69207e-09 -0 7.27068e+07 -8.00448e-10 9.87021e+07 3.41517e-302 9.87021e+07
93 2 7.4 -5.55 -5.55 6.58014e+07 8.77352e+07 8.77352e+07 -7.11509e-10 -7.11509e-10 -0 6.58014e+07 -3.04393e-10 8.77352e+07 6.08785e-10 8.77352e+07
94 2 -9.25 -1.85 -7.4 7.27068e+07 1.4257e+08 9.87021e+07 -0 -8.89208e+06 -0 7.27068e+07 8.00448e-10 1.4257e+08 -0 1.4257e+08
95 2 -9.25 -3.7 -5.55 7.63117e+07 1.4257e+08 1.4257e+08 -0 -5.69207e-09 -0 7.63117e+07 -8.00448e-10 1.4257e+08 4.93302e-302 1.4257e+08
96 2 -7.4 -3.7 -7.4 6.58014e+07 8.77352e+07 6.58014e+07 -0 -0 -0 6.58014e+07 -0 8.77352e+07 3.03571e-302 8.77352e+07
97 2 -5.55 -1.85 -7.4 8.77352e+07 8.77352e+07 6.58014e+07 -0 -0 -0 8.77352e+07 -3.04393e-10 8.77352e+07 3.03571e-302 8.77352e+07
98 2 -5.55 -3.7 -5.55 8.77352e+07 8.77352e+07 8.77352e+07 -0 -0 -0 8.77352e+07 -0 8.77352e+07 3.03571e-302 8.77352e+07
99 2 -7.4 -1.85 -5.55 6.58014e+07 8.77352e+07 8.77352e+07 -0 -0 -0 6.58014e+07 -0 8.77352e+07 3.03571e-302 8.77352e+07
100 2 -3.7 -3.7 -7.4 8.77352e+07 8.77352e+07 6.58014e+07 -0 -0 -0 8.77352e+07 -0 8.77352e+07 3.03571e-302 8.77352e+07
101 2 -1.85 -1.85 -7.4 8.77352e+07 8.77352e+07 6.58014e+07 -0 -0 -0 8.77352e+07 -3.04393e-10 8.77352e+07 3.03571e-302 8.77352e+07
102 2 -1.85 -3.7 -5.55 8.77352e+07 8.77352e+07 8.77352e+07 -0 -0 -0 8.77352e+07 -0 8.77352e+07 3.03571e-302 8.77352e+07
103 2 -3.7 -1.85 -5.55 8.77352e+07 8.77352e+07 8.77352e+07 -0 -0 -0 8.77352e+07 -6.08785e-10 8.77352e+07 3.03571e-302 8.77352e+07
104 2 0 -3.7 -7.4 8.77352e+07 8.77352e+07 6.58014e+07 -0 -0 -0 8.77352e+07 6.08785e-10 8.77352e+07 9.48659e-303 8.77352e+07
105 2 1.85 -1.85 -7.4 8.77352e+07 8.77352e+07 6.58014e+07 -7.11509e-10 -0 -0 8.77352e+07 3.04393e-10 8.77352e+07 3.04393e-10 8.77352e+07
106 2 1.85 -3.7 -5.55 8.77352e+07 8.77352e+07 8.77352e+07 -0 7.11509e-10 -0 8.77352e+07 6.08785e-10 8.77352e+07 1.13839e-302 8.77352e+07
107 2 0 -1.85 -5.55 8.77352e+07 8.77352e+07 8.77352e+07 7.11509e-10 -7.11509e-10 -0 8.77352e+07 3.04393e-10 8.77352e+07 -3.04393e-10 8.77352e+07
108 2 3.7 -3.7 -7.4 8.77352e+07 8.77352e+07 6.58014e+07 -0 -0 -0 8.77352e+07 -0 8.77352e+07 3.03571e-302 8.77352e+07
109 2 5.55 -1.85 -7.4 8.77352e+07 8.77352e+07 6.58014e+07 -0 -0 -0 8.77352e+07 -6.08785e-10 8.77352e+07 3.04393e-10 8.77352e+07
110 2 5.55 -3.7 -5.55 8.77352e+07 8.77352e+07 8.77352e+07 -0 -0 -0 8.77352e+07 -1.21757e-09 8.77352e+07 7.58927e-303 8.77352e+07
111 2 3.7 -1.85 -5.55 8.77352e+07 8.77352e+07 8.77352e+07 -0 -0 -0 8.77352e+07 -0 8.77352e+07 3.03571e-302 8.77352e+07
112 2 7.4 -3.7 -7.4 6.58014e+07 8.77352e+07 6.58014e+07 -0 -0 -0 6.58014e+07 -6.08785e-10 8.77352e+07 7.89934e-26 8.77352e+07
113 2 9.25 -1.85 -7.4 7.27068e+07 1.4257e+08 9.87021e+07 -2.84604e-09 8.89208e+06 -0 7.27068e+07 1.10484e-09 1.4257e+08 3.04393e-10 1.4257e+08
114 2 9.25 -3.7 -5.55 7.63117e+07 1.4257e+08 1.4257e+08 -0 5.69207e-09 -0 7.63117e+07 -1.91663e-10 1.4257e+08 3.03571e-302 1.4257e+08
115 2 7.4 -1.85 -5.55 6.58014e+07 8.77352e+07 8.77352e+07 7.11509e-10 -7.11509e-10 -0 6.58014e+07 -3.04393e-10 8.77352e+07 -6.08785e-10 8.77352e+07
116 2 -9.25 1.85 -7.4 7.27068e+07 1.4257e+08 9.87021e+07 8.53811e-09 -8.89208e+06 -0 7.27068e+07 -0 1.4257e+08 -3.04393e-09 1.4257e+08
117 2 -9.25 0 -5.55 7.63117e+07 1.4257e+08 1.4257e+08 -5.69207e-09 -5.69207e-09 -1.42302e-09 7.63117e+07 -4.00224e-10 1.4257e+08 1.52196e-09 1.4257e+08
118 2 -7.4 0 -7.4 6.58014e+07 8.77352e+07 6.58014e+07 -0 -0 -0 6.58014e+07 -0 8.77352e+07 3.03571e-302 8.77352e+07
119 2 -5.55 1.85 -7.4 8.77352e+07 8.77352e+07 6.58014e+07 7.11509e-10 -0 -0 8.77352e+07 3.04393e-10 8.77352e+07 -3.04393e-10 8.77352e+07
120 2 -5.55 0 -5.55 8.77352e+07 8.77352e+07 8.77352e+07 -7.11509e-10 -0 -7.11509e-10 8.77352e+07 3.04393e-10 8.77352e+07 3.04393e-10 8.77352e+07
121 2 -7.4 1.85 -5.55 6.58014e+07 8.77352e+07 8.77352e+07 -0 -0 7.11509e-10 6.58014e+07 -0 8.77352e+07 3.03571e-302 8.77352e+07
122 2 -3.7 0 -7.4 8.77352e+07 8.77352e+07 6.58014e+07 -0 -0 -0 8.77352e+07 6.08785e-10 8.77352e+07 9.48659e-303 8.77352e+07
123 2 -1.85 1.85 -7.4 8.77352e+07 8.77352e+07 6.58014e+07 -7.11509e-10 -0 -0 8.77352e+07 3.04393e-10 8.77352e+07 3.04393e-10 8.77352e+07
124 2 -1.85 0 -5.55 8.77352e+07 8.77352e+07 8.77352e+07 7.11509e-10 -0 -7.11509e-10 8.77352e+07 3.04393e-10 8.77352e+07 -3.04393e-10 8.77352e+07
125 2 -3.7 1.85 -5.55 8.77352e+07 8.77352e+07 8.77352e+07 -0 -0 7.11509e-10 8.77352e+07 6.08785e-10 8.77352e+07 1.70759e-302 8.77352e+07
126 2 0 0 -7.4 8.77352e+07 8.77352e+07 6.58014e+07 -7.11509e-10 -0 -0 8.77352e+07 9.13178e-10 8.77352e+07 9.13178e-10 8.77352e+07
127 2 1.85 1.85 -7.4 8.77352e+07 8.77352e+07 6.58014e+07 -7.11509e-10 -0 -0 8.77352e+07 9.13178e-10 8.77352e+07 9.13178e-10 8.77352e+07
128 2 1.85 0 -5.55 8.77352e+07 8.77352e+07 8.77352e+07 7.11509e-10 7.11509e-10 -7.11509e-10 8.77352e+07 9.13178e-10 8.77352e+07 -9.13178e-10 8.77352e+07
129 2 0 1.85 -5.55 8.77352e+07 8.77352e+07 8.77352e+07 7.11509e-10 -7.11509e-10 7.11509e-10 8.77352e+07 9.13178e-10 8.77352e+07 -9.13178e-10 8.77352e+07
130 2 3.7 0 -7.4 8.77352e+07 8.77352e+07 6.58014e+07 -0 -0 -0 8.77352e+07 -0 8.77352e+07 3.03571e-302 8.77352e+07
131 2 5.55 1.85 -7.4 8.77352e+07 8.77352e+07 6.58014e+07 7.11509e-10 -0 -0 8.77352e+07 -0 8.77352e+07 -3.04393e-10 8.77352e+07
132 2 5.55 0 -5.55 8.77352e+07 8.77352e+07 8.77352e+07 -7.11509e-10 -0 -7.11509e-10 8.77352e+07 -0 8.77352e+07 3.04393e-10 8.77352e+07
133 2 3.7 1.85 -5.55 8.77352e+07 8.77352e+07 8.77352e+07 -0 -0 7.11509e-10 8.77352e+07 -0 8.77352e+07 3.03571e-302 8.77352e+07
134 2 7.4 0 -7.4 6.58014e+07 8.77352e+07 6.58014e+07 -0 -0 -0 6.58014e+07 9.13178e-10 8.77352e+07 6.08785e-10 8.77352e+07
135 2 9.25 1.85 -7.4 7.27068e+07 1.4257e+08 9.87021e+07 -7.11509e-09 8.89208e+06 -0 7.27068e+07 9.13178e-10 1.4257e+08 3.9571e-09 1.4257e+08
136 2 9.25 0 -5.55 7.63117e+07 1.4257e+08 1.4257e+08 5.69207e-09 5.69207e-09 -1.42302e-09 7.63117e+07 5.12954e-10 1.4257e+08 -2.43514e-09 1.4257e+08
137 2 7.4 1.85 -5.55 6.58014e+07 8.77352e+07 8.77352e+07 -0 -7.11509e-10 7.11509e-10 6.58014e+07 9.13178e-10 8.77352e+07 -6.08785e-10 8.77352e+07
138 2 -9.25 5.55 -7.4 7.27068e+07 1.4257e+08 9.87021e+07 5.69207e-09 -8.89208e+06 7.11509e-10 7.27068e+07 -4.00224e-10 1.4257e+08 3.04393e-10 1.4257e+08
139 2 -9.25 3.7 -5.55 7.63117e+07 1.4257e+08 1.4257e+08 8.53811e-09 -5.69207e-09 -0 7.63117e+07 -4.00224e-10 1.4257e+08 -2.3698e-24 1.4257e+08
140 2 -7.4 3.7 -7.4 6.58014e+07 8.77352e+07 6.58014e+07 -0 -0 -0 6.58014e+07 -0 8.77352e+07 3.03571e-302 8.77352e+07
141 2 -5.55 5.55 -7.4 8.77352e+07 8.77352e+07 6.58014e+07 -0 -0 -0 8.77352e+07 -3.04393e-10 8.77352e+07 -3.04393e-10 8.77352e+07
142 2 -5.55 3.7 -5.55 8.77352e+07 8.77352e+07 8.77352e+07 -0 -0 -0 8.77352e+07 -6.08785e-10 8.77352e+07 3.03571e-302 8.77352e+07
143 2 -7.4 5.55 -5.55 6.58014e+07 8.77352e+07 8.77352e+07 -0 -0 -0 6.58014e+07 -0 8.77352e+07 -0 8.77352e+07
144 2 -3.7 3.7 -7.4 8.77352e+07 8.77352e+07 6.58014e+07 -0 -0 -0 8.77352e+07 -1.21757e-09 8.77352e+07 3.03571e-302 8.77352e+07
145 2 -1.85 5.55 -7.4 8.77352e+07 8.77352e+07 6.58014e+07 -0 -0 -0 8.77352e+07 -3.04393e-10 8.77352e+07 3.04393e-10 8.77352e+07
146 2 -1.85 3.7 -5.55 8.77352e+07 8.77352e+07 8.77352e+07 -0 -0 -0 8.77352e+07 -6.08785e-10 8.77352e+07 3.03571e-302 8.77352e+07
147 2 -3.7 5.55 -5.55 8.77352e+07 8.77352e+07 8.77352e+07 -0 -0 -0 8.77352e+07 -6.08785e-10 8.77352e+07 -0 8.77352e+07
148 2 0 3.7 -7.4 8.77352e+07 8.77352e+07 6.58014e+07 -0 -0 -0 8.77352e+07 -0 8.77352e+07 3.03571e-302 8.77352e+07
149 2 1.85 5.55 -7.4 8.77352e+07 8.77352e+07 6.58014e+07 7.11509e-10 -0 -0 8.77352e+07 -0 8.77352e+07 -3.04393e-10 8.77352e+07
150 2 1.85 3.7 -5.55 8.77352e+07 8.77352e+07 8.77352e+07 -0 7.11509e-10 -0 8.77352e+07 -0 8.77352e+07 3.03571e-302 8.77352e+07
151 2 0 5.55 -5.55 8.77352e+07 8.77352e+07 8.77352e+07 -7.11509e-10 -7.11509e-10 -0 8.77352e+07 -0 8.77352e+07 3.04393e-10 8.77352e+07
152 2 3.7 3.7 -7.4 8.77352e+07 8.77352e+07 6.58014e+07 -0 -0 -0 8.77352e+07 -0 8.77352e+07 3.03571e-302 8.77352e+07
153 2 5.55 5.55 -7.4 8.77352e+07 8.77352e+07 6.58014e+07 -0 -0 -0 8.77352e+07 -0 8.77352e+07 6.08785e-10 8.77352e+07
154 2 5.55 3.7 -5.55 8.77352e+07 8.77352e+07 8.77352e+07 -0 -0 -0 8.77352e+07 -0 8.77352e+07 7.58927e-303 8.77352e+07
155 2 3.7 5.55 -5.55 8.77352e+07 8.77352e+07 8.77352e+07 -0 -0 -0 8.77352e+07 -0 8.77352e+07 9.48659e-303 8.77352e+07
156 2 7.4 3.7 -7.4 6.58014e+07 8.77352e+07 6.58014e+07 -0 -0 -0 6.58014e+07 -0 8.77352e+07 1.13839e-302 8.77352e+07
157 2 9.25 5.55 -7.4 7.27068e+07 1.4257e+08 9.87021e+07 -2.84604e-09 8.89208e+06 7.11509e-10 7.27068e+07 -4.00224e-10 1.4257e+08 -6.08785e-10 1.4257e+08
158 2 9.25 3.7 -5.55 7.63117e+07 1.4257e+08 1.4257e+08 -8.53811e-09 5.69207e-09 -0 7.63117e+07 -4.00224e-10 1.4257e+08 2.3698e-24 1.4257e+08
159 2 7.4 5.55 -5.55 6.58014e+07 8.77352e+07 8.77352e+07 -7.11509e-10 -7.11509e-10 -0 6.58014e+07 -0 8.77352e+07 -3.04393e-10 8.77352e+07
160 2 -9.25 9.25 -7.4 9.65191e+07 9.65191e+07 1.31603e+08 2.28751e+07 -1.77842e+07 1.77842e+07 9.65191e+07 -3.50196e-10 9.65191e+07 7.58869e-10 9.65191e+07
161 2 -9.25 7.4 -5.55 7.27068e+07 9.87021e+07 1.4257e+08 8.89208e+06 -5.69207e-09 -7.11509e-10 7.27068e+07 -8.00448e-10 9.87021e+07 -6.08785e-10 9.87021e+07
162 2 -7.4 7.4 -7.4 6.58014e+07 6.58014e+07 6.58014e+07 -0 -0 -0 6.58014e+07 -0 6.58014e+07 7.58927e-303 6.58014e+07
163 2 -5.55 9.25 -7.4 1.4257e+08 7.27068e+07 9.87021e+07 5.69207e-09 -0 8.89208e+06 1.4257e+08 3.04393e-10 7.27068e+07 -9.04729e-10 7.27068e+07
164 2 -5.55 7.4 -5.55 8.77352e+07 6.58014e+07 8.77352e+07 -7.11509e-10 -0 -7.11509e-10 8.77352e+07 6.08785e-10 6.58014e+07 6.08785e-10 6.58014e+07
165 2 -7.4 9.25 -5.55 9.87021e+07 7.27068e+07 1.4257e+08 8.89208e+06 -0 5.69207e-09 9.87021e+07 -3.04393e-10 7.27068e+07 2.51571e-302 7.27068e+07
166 2 -3.7 7.4 -7.4 8.77352e+07 6.58014e+07 6.58014e+07 -0 -0 -0 8.77352e+07 1.21757e-09 6.58014e+07 1.89732e-303 6.58014e+07
167 2 -1.85 9.25 -7.4 1.4257e+08 7.27068e+07 9.87021e+07 -2.84604e-09 -0 8.89208e+06 1.4257e+08 3.04393e-10 7.27068e+07 7.04617e-10 7.27068e+07
168 2 -1.85 7.4 -5.55 8.77352e+07 6.58014e+07 8.77352e+07 7.11509e-10 -0 -7.11509e-10 8.77352e+07 6.08785e-10 6.58014e+07 -6.08785e-10 6.58014e+07
169 2 -3.7 9.25 -5.55 1.4257e+08 7.63117e+07 1.4257e+08 -0 -0 5.69207e-09 1.4257e+08 9.13178e-10 7.63117e+07 2.49465e-303 7.63117e+07
170 2 0 7.4 -7.4 8.77352e+07 6.58014e+07 6.58014e+07 -0 -0 -0 8.77352e+07 9.13178e-10 6.58014e+07 6.08785e-10 6.58014e+07
171 2 1.85 9.25 -7.4 1.4257e+08 7.27068e+07 9.87021e+07 -8.53811e-09 -0 8.89208e+06 1.4257e+08 3.04393e-10 7.27068e+07 1.51351e-09 7.27068e+07
172 2 1.85 7.4 -5.55 8.77352e+07 6.58014e+07 8.77352e+07 -0 7.11509e-10 -7.11509e-10 8.77352e+07 9.13178e-10 6.58014e+07 -6.08785e-10 6.58014e+07
173 2 0 9.25 -5.55 1.4257e+08 7.63117e+07 1.4257e+08 5.69207e-09 -1.42302e-09 5.69207e-09 1.4257e+08 4.56589e-10 7.63117e+07 -1.3134e-09 7.63117e+07
174 2 3.7 7.4 -7.4 8.77352e+07 6.58014e+07 6.58014e+07 -0 -0 -0 8.77352e+07 -0 6.58014e+07 7.58927e-303 6.58014e+07
175 2 5.55 9.25 -7.4 1.4257e+08 7.27068e+07 9.87021e+07 -2.84604e-09 -0 8.89208e+06 1.4257e+08 -0 7.27068e+07 -4.00224e-10 7.27068e+07
176 2 5.55 7.4 -5.55 8.77352e+07 6.58014e+07 8.77352e+07 -7.11509e-10 -0 -7.11509e-10 8.77352e+07 -0 6.58014e+07 -3.04393e-10 6.58014e+07
177 2 3.7 9.25 -5.55 1.4257e+08 7.63117e+07 1.4257e+08 -8.53811e-09 -0 5.69207e-09 1.4257e+08 -9.13178e-10 7.63117e+07 -2.00112e-10 7.63117e+07
178 2 7.4 7.4 -7.4 6.58014e+07 6.58014e+07 6.58014e+07 7.11509e-10 -0 -0 6.58014e+07 9.13178e-10 6.58014e+07 9.13178e-10 6.58014e+07
179 2 9.25 9.25 -7.4 9.65191e+07 9.65191e+07 1.31603e+08 -2.28751e+07 1.77842e+07 1.77842e+07 9.65191e+07 -4.58034e-11 9.65191e+07 5.54533e-10 9.65191e+07
180 2 9.25 7.4 -5.55 7.27068e+07 9.87021e+07 1.4257e+08 -8.89208e+06 5.69207e-09 -7.11509e-10 7.27068e+07 1.1273e-10 9.87021e+07 -3.31772e-24 9.87021e+07
181 2 7.4 9.25 -5.55 9.87021e+07 7.27068e+07 1.4257e+08 -8.89208e+06 -1.42302e-09 5.69207e-09 9.87021e+07 3.04393e-10 7.27068e+07 -9.13178e-10 7.27068e+07
182 2 -9.25 -9.25 -3.7 1.03729e+08 1.03729e+08 2.19338e+08 -1.92702e+07 -2.84604e-09 -1.42302e-09 1.03729e+08 -6.04561e-10 1.03729e+08 -1.31763e-09 1.03729e+08
183 2 -5.55 -9.25 -3.7 1.4257e+08 7.63117e+07 1.4257e+08 -6.40358e-09 -0 -0 1.4257e+08 -6.08785e-10 7.63117e+07 -2.00112e-10 7.63117e+07
184 2 -7.4 -9.25 -1.85 9.87021e+07 7.27068e+07 1.4257e+08 -8.89208e+06 -0 2.84604e-09 9.87021e+07 -3.04393e-10 7.27068e+07 2.51571e-302 7.27068e+07
185 2 -1.85 -9.25 -3.7 1.4257e+08 7.63117e+07 1.4257e+08 7.11509e-10 -0 -0 1.4257e+08 -6.08785e-10 7.63117e+07 4.00224e-10 7.63117e+07
186 2 -3.7 -9.25 -1.85 1.4257e+08 7.63117e+07 1.4257e+08 -0 -0 2.84604e-09 1.4257e+08 -9.13178e-10 7.63117e+07 4.39196e-303 7.63117e+07
187 2 1.85 -9.25 -3.7 1.4257e+08 7.63117e+07 1.4257e+08 7.11509e-09 -0 -0 1.4257e+08 -3.04393e-10 7.63117e+07 -6.00336e-10 7.63117e+07
188 2 0 -9.25 -1.85 1.4257e+08 7.63117e+07 1.4257e+08 -5.69207e-09 1.42302e-09 2.84604e-09 1.4257e+08 -4.56589e-10 7.63117e+07 4.00224e-10 7.63117e+07
189 2 5.55 -9.25 -3.7 1.4257e+08 7.63117e+07 1.4257e+08 3.55755e-09 -0 -0 1.4257e+08 3.04393e-10 7.63117e+07 -3.04393e-10 7.63117e+07
190 2 3.7 -9.25 -1.85 1.4257e+08 7.63117e+07 1.4257e+08 8.53811e-09 -0 2.84604e-09 1.4257e+08 -9.13178e-10 7.63117e+07 2.00112e-10 7.63117e+07
191 2 9.25 -9.25 -3.7 1.03729e+08 1.03729e+08 2.19338e+08 1.92702e+07 -0 -1.42302e-09 1.03729e+08 -3.00168e-10 1.03729e+08 9.17402e-10 1.03729e+08
192 2 7.4 -9.25 -1.85 9.87021e+07 7.27068e+07 1.4257e+08 8.89208e+06 1.42302e-09 2.84604e-09 9.87021e+07 -6.08785e-10 7.27068e+07 3.04393e-10 7.27068e+07
193 2 -9.25 -5.55 -3.7 7.63117e+07 1.4257e+08 1.4257e+08 -5.69207e-09 -0 -0 7.63117e+07 -0 1.4257e+08 2.43514e-09 1.4257e+08
194 2 -9.25 -7.4 -1.85 7.27068e+07 9.87021e+07 1.4257e+08 -8.89208e+06 2.84604e-09 -0 7.27068e+07 -8.00448e-10 9.87021e+07 3.41517e-302 9.87021e+07
195 2 -7.4 -7.4 -3.7 6.58014e+07 6.58014e+07 8.77352e+07 -0 -0 -0 6.58014e+07 -0 6.58014e+07 2.27678e-302 6.58014e+07
196 2 -5.55 -5.55 -3.7 8.77352e+07 8.77352e+07 8.77352e+07 -0 -0 -0 8.77352e+07 -3.04393e-10 8.77352e+07 3.03571e-302 8.77352e+07
197 2 -5.55 -7.4 -1.85 8.77352e+07 6.58014e+07 8.77352e+07 -0 -0 -0 8.77352e+07 -6.08785e-10 6.58014e+07 2.27678e-302 6.58014e+07
198 2 -7.4 -5.55 -1.85 6.58014e+07 8.77352e+07 8.77352e+07 -0 -0 -0 6.58014e+07 -0 8.77352e+07 3.03571e-302 8.77352e+07
199 2 -3.7 -7.4 -3.7 8.77352e+07 6.58014e+07 8.77352e+07 -0 -0 -0 8.77352e+07 -1.21757e-09 6.58014e+07 2.27678e-302 6.58014e+07
200 2 -1.85 -5.55 -3.7 8.77352e+07 8.77352e+07 8.77352e+07 -0 -0 -0 8.77352e+07 -3.04393e-10 8.77352e+07 3.03571e-302 8.77352e+07
201 2 -1.85 -7.4 -1.85 8.77352e+07 6.58014e+07 8.77352e+07 -0 -0 -0 8.77352e+07 -6.08785e-10 6.58014e+07 2.27678e-302 6.58014e+07
202 2 -3.7 -5.55 -1.85 8.77352e+07 8.77352e+07 8.77352e+07 -0 -0 -0 8.77352e+07 -6.08785e-10 8.77352e+07 3.03571e-302 8.77352e+07
203 2 0 -7.4 -3.7 8.77352e+07 6.58014e+07 8.77352e+07 -0 -0 -0 8.77352e+07 -0 6.58014e+07 2.27678e-302 6.58014e+07
204 2 1.85 -5.55 -3.7 8.77352e+07 8.77352e+07 8.77352e+07 7.11509e-10 -0 -0 8.77352e+07 3.04393e-10 8.77352e+07 -3.04393e-10 8.77352e+07
205 2 1.85 -7.4 -1.85 8.77352e+07 6.58014e+07 8.77352e+07 -0 -7.11509e-10 -0 8.77352e+07 -0 6.58014e+07 2.27678e-302 6.58014e+07
206 2 0 -5.55 -1.85 8.77352e+07 8.77352e+07 8.77352e+07 -7.11509e-10 7.11509e-10 -0 8.77352e+07 3.04393e-10 8.77352e+07 3.04393e-10 8.77352e+07
207 2 3.7 -7.4 -3.7 8.77352e+07 6.58014e+07 8.77352e+07 -0 -0 -0 8.77352e+07 -0 6.58014e+07 2.27678e-302 6.58014e+07
208 2 5.55 -5.55 -3.7 8.77352e+07 8.77352e+07 8.77352e+07 -0 -0 -0 8.77352e+07 -6.08785e-10 8.77352e+07 -3.04393e-10 8.77352e+07
209 2 5.55 -7.4 -1.85 8.77352e+07 6.58014e+07 8.77352e+07 -0 -0 -0 8.77352e+07 -0 6.58014e+07 3.79463e-303 6.58014e+07
210 2 3.7 -5.55 -1.85 8.77352e+07 8.77352e+07 8.77352e+07 -0 -0 -0 8.77352e+07 -0 8.77352e+07 3.03571e-302 8.77352e+07
211 2 7.4 -7.4 -3.7 6.58014e+07 6.58014e+07 8.77352e+07 -0 -0 -0 6.58014e+07 -0 6.58014e+07 1.13839e-302 6.58014e+07
212 2 9.25 -5.55 -3.7 7.63117e+07 1.4257e+08 1.4257e+08 8.53811e-09 -0 -0 7.63117e+07 3.04393e-10 1.4257e+08 -2.73953e-09 1.4257e+08
213 2 9.25 -7.4 -1.85 7.27068e+07 9.87021e+07 1.4257e+08 8.89208e+06 -2.84604e-09 -0 7.27068e+07 -8.00448e-10 9.87021e+07 3.41517e-302 9.87021e+07
214 2 7.4 -5.55 -1.85 6.58014e+07 8.77352e+07 8.77352e+07 -7.11509e-10 7.11509e-10 -0 6.58014e+07 -3.04393e-10 8.77352e+07 6.08785e-10 8.77352e+07
215 2 -9.25 -1.85 -3.7 7.63117e+07 1.4257e+08 1.4257e+08 -0 -2.84604e-09 -0 7.63117e+07 4.00224e-10 1.4257e+08 -0 1.4257e+08
216 2 -9.25 -3.7 -1.85 7.63117e+07 1.4257e+08 1.4257e+08 -0 2.84604e-09 -0 7.63117e+07 -8.00448e-10 1.4257e+08 4.93302e-302 1.4257e+08
217 2 -7.4 -3.7 -3.7 6.58014e+07 8.77352e+07 8.77352e+07 -0 -0 -0 6.58014e+07 -0 8.77352e+07 3.03571e-302 8.77352e+07