ITEM: TIMESTEP
0
ITEM: NUMBER OF ATOMS
665
ITEM: BOX BOUNDS xy xz yz pp pp pp
-1.0000000000000000e+01 1.0000000000000000e+01 0.0000000000000000e+00
-1.0000000000000000e+01 1.0000000000000000e+01 0.0000000000000000e+00
-1.0000000000000000e+01 1.0000000000000000e+01 0.0000000000000000e+00
ITEM: ATOMS id type x y z c_1[1] c_1[2] c_1[3] c_1[4] c_1[5] c_1[6] c_1[7] c_1[8] c_1[13] c_1[15] c_1[22]
1 2 -7.4 -9.25 -9.25 1.35608e+08 6.27429e+07 6.27429e+07 -1.77839e+07 -1.77839e+07 -2.21416e+07 1.37231e+06 -1.40326e+06 3.0902e+08 -5898.44 -3.92458e+07
2 2 -3.7 -9.25 -9.25 2.23355e+08 6.99526e+07 6.99526e+07 -0 -0 -1.85367e+07 460751 -1.20341e+06 3.16229e+08 -0 -3.92313e+07
3 2 0 -9.25 -9.25 2.23355e+08 6.99526e+07 6.99526e+07 7.11509e-10 2.13453e-09 -1.85367e+07 460751 -1.20341e+06 3.16229e+08 1.07647e-08 -3.92313e+07
4 2 3.7 -9.25 -9.25 2.23355e+08 6.99526e+07 6.99526e+07 1.70762e-08 1.70762e-08 -1.85367e+07 460751 -1.20341e+06 3.16229e+08 -9.13706e-11 -3.92313e+07
5 2 7.4 -9.25 -9.25 1.35608e+08 6.27429e+07 6.27429e+07 1.77839e+07 1.77839e+07 -2.21416e+07 1.37231e+06 -1.40326e+06 3.0902e+08 5898.44 -3.92458e+07
6 2 -9.25 -7.4 -9.25 6.27429e+07 1.35608e+08 6.27429e+07 -1.77839e+07 -2.21416e+07 -1.77839e+07 2.12501e+08 -1.54108e+06 1.32975e+08 -35888.7 -1.46393e+06
7 2 -5.55 -7.4 -9.25 1.48325e+08 1.04456e+08 3.94843e+07 -0 -4.26906e-09 -8.89207e+06 3.98947e+06 -1.59229e+06 1.02859e+08 -2.69248e-12 4.04366e+06
8 2 -7.4 -5.55 -9.25 1.04456e+08 1.48325e+08 3.94843e+07 -0 -8.89207e+06 -7.11509e-09 4.15695e+06 -1.65133e+06 1.46559e+08 -0 4.0454e+06
9 2 -1.85 -7.4 -9.25 1.48325e+08 1.04456e+08 3.94843e+07 -0 -0 -8.89207e+06 3.98947e+06 -1.59229e+06 1.02859e+08 8.68542e-14 4.04366e+06
10 2 -3.7 -5.55 -9.25 1.48325e+08 1.48325e+08 4.30892e+07 -0 -0 -7.11509e-09 3.98947e+06 -1.59229e+06 1.46559e+08 -0 4.0454e+06
11 2 1.85 -7.4 -9.25 1.48325e+08 1.04456e+08 3.94843e+07 -0 7.11509e-09 -8.89207e+06 3.98947e+06 -1.59229e+06 1.02859e+08 8.68542e-14 4.04366e+06
12 2 0 -5.55 -9.25 1.48325e+08 1.48325e+08 4.30892e+07 -0 -2.13453e-09 -7.11509e-09 3.98947e+06 -1.59229e+06 1.46559e+08 -1.8388e-08 4.0454e+06
13 2 5.55 -7.4 -9.25 1.48325e+08 1.04456e+08 3.94843e+07 -0 1.42302e-09 -8.89207e+06 3.98947e+06 -1.59229e+06 1.02859e+08 -2.17135e-14 4.04366e+06
14 2 3.7 -5.55 -9.25 1.48325e+08 1.48325e+08 4.30892e+07 -0 8.53811e-09 -7.11509e-09 3.98947e+06 -1.59229e+06 1.46559e+08 -0 4.0454e+06
15 2 9.25 -7.4 -9.25 6.27429e+07 1.35608e+08 6.27429e+07 1.77839e+07 2.21416e+07 -1.77839e+07 2.12501e+08 -1.54108e+06 1.32975e+08 35888.7 -1.46393e+06
16 2 7.4 -5.55 -9.25 1.04456e+08 1.48325e+08 3.94843e+07 -1.42302e-09 8.89207e+06 -7.11509e-09 4.15695e+06 -1.65133e+06 1.46559e+08 -1.78544e-08 4.0454e+06
17 2 -9.25 -3.7 -9.25 6.99526e+07 2.23355e+08 6.99526e+07 -0 -1.85367e+07 -0 2.125e+08 -1.53796e+06 2.19799e+08 1.11173e-10 -1.43801e+06
18 2 -5.55 -3.7 -9.25 1.48325e+08 1.48325e+08 4.30892e+07 -0 -7.11509e-09 -0 3.98947e+06 -1.59229e+06 1.46559e+08 -6.94833e-13 4.0454e+06
19 2 -7.4 -1.85 -9.25 1.04456e+08 1.48325e+08 3.94843e+07 -0 -8.89207e+06 -2.84604e-09 4.15695e+06 -1.65133e+06 1.46559e+08 -0 4.0454e+06
20 2 -1.85 -3.7 -9.25 1.48325e+08 1.48325e+08 4.30892e+07 -0 7.11509e-10 -0 3.98947e+06 -1.59229e+06 1.46559e+08 -1.98679e-12 4.0454e+06
21 2 -3.7 -1.85 -9.25 1.48325e+08 1.48325e+08 4.30892e+07 -0 -0 1.42302e-09 3.98947e+06 -1.59229e+06 1.46559e+08 -0 4.0454e+06
22 2 1.85 -3.7 -9.25 1.48325e+08 1.48325e+08 4.30892e+07 -0 4.98057e-09 -0 3.98947e+06 -1.59229e+06 1.46559e+08 2.75762e-12 4.0454e+06
23 2 0 -1.85 -9.25 1.48325e+08 1.48325e+08 4.30892e+07 -0 -4.26906e-09 -1.42302e-09 3.98947e+06 -1.59229e+06 1.46559e+08 1.83903e-08 4.0454e+06
24 2 5.55 -3.7 -9.25 1.48325e+08 1.48325e+08 4.30892e+07 -0 -1.42302e-09 -0 3.98947e+06 -1.59229e+06 1.46559e+08 2.43192e-12 4.0454e+06
25 2 3.7 -1.85 -9.25 1.48325e+08 1.48325e+08 4.30892e+07 -0 9.96113e-09 -2.84604e-09 3.98947e+06 -1.59229e+06 1.46559e+08 -0 4.0454e+06
26 2 9.25 -3.7 -9.25 6.99526e+07 2.23355e+08 6.99526e+07 -0 1.85367e+07 -0 2.125e+08 -1.53796e+06 2.19799e+08 -3.3352e-11 -1.43801e+06
27 2 7.4 -1.85 -9.25 1.04456e+08 1.48325e+08 3.94843e+07 1.42302e-09 8.89207e+06 4.26906e-09 4.15695e+06 -1.65133e+06 1.46559e+08 1.78549e-08 4.0454e+06
28 2 -9.25 0 -9.25 6.99526e+07 2.23355e+08 6.99526e+07 -0 -1.85367e+07 2.84604e-09 2.125e+08 -1.53796e+06 2.19799e+08 2.10673e-08 -1.43801e+06
29 2 -5.55 0 -9.25 1.48325e+08 1.48325e+08 4.30892e+07 -0 -4.26906e-09 -2.84604e-09 3.98947e+06 -1.59229e+06 1.46559e+08 -1.80296e-08 4.0454e+06
30 2 -7.4 1.85 -9.25 1.04456e+08 1.48325e+08 3.94843e+07 -0 -8.89207e+06 9.96113e-09 4.15695e+06 -1.65133e+06 1.46559e+08 -0 4.0454e+06
31 2 -1.85 0 -9.25 1.48325e+08 1.48325e+08 4.30892e+07 -0 7.11509e-10 -4.26906e-09 3.98947e+06 -1.59229e+06 1.46559e+08 1.80351e-08 4.0454e+06
32 2 -3.7 1.85 -9.25 1.48325e+08 1.48325e+08 4.30892e+07 -0 -0 5.69207e-09 3.98947e+06 -1.59229e+06 1.46559e+08 -0 4.0454e+06
33 2 1.85 0 -9.25 1.48325e+08 1.48325e+08 4.30892e+07 -1.42302e-09 7.8266e-09 -4.26906e-09 3.98947e+06 -1.59229e+06 1.46559e+08 2.76846e-08 4.0454e+06
34 2 0 1.85 -9.25 1.48325e+08 1.48325e+08 4.30892e+07 -1.42302e-09 -5.69207e-09 1.13841e-08 3.98947e+06 -1.59229e+06 1.46559e+08 2.76877e-08 4.0454e+06
35 2 5.55 0 -9.25 1.48325e+08 1.48325e+08 4.30892e+07 1.42302e-09 1.42302e-09 -4.26906e-09 3.98947e+06 -1.59229e+06 1.46559e+08 -1.13174e-08 4.0454e+06
36 2 3.7 1.85 -9.25 1.48325e+08 1.48325e+08 4.30892e+07 -0 9.96113e-09 9.96113e-09 3.98947e+06 -1.59229e+06 1.46559e+08 -0 4.0454e+06
37 2 9.25 0 -9.25 6.99526e+07 2.23355e+08 6.99526e+07 -2.84604e-09 1.85367e+07 -0 2.125e+08 -1.53796e+06 2.19799e+08 6.42026e-09 -1.43801e+06
38 2 7.4 1.85 -9.25 1.04456e+08 1.48325e+08 3.94843e+07 -0 8.89207e+06 1.13841e-08 4.15695e+06 -1.65133e+06 1.46559e+08 1.63618e-08 4.0454e+06
39 2 -9.25 3.7 -9.25 6.99526e+07 2.23355e+08 6.99526e+07 1.70762e-08 -1.85367e+07 1.49417e-08 2.125e+08 -1.53796e+06 2.19799e+08 -2.66816e-10 -1.43801e+06
40 2 -5.55 3.7 -9.25 1.48325e+08 1.48325e+08 4.30892e+07 -0 -4.26906e-09 9.96113e-09 3.98947e+06 -1.59229e+06 1.46559e+08 5.34153e-12 4.0454e+06
41 2 -7.4 5.55 -9.25 1.04456e+08 1.48325e+08 3.94843e+07 -0 -8.89207e+06 -1.42302e-09 4.15695e+06 -1.65133e+06 1.46559e+08 -0 4.0454e+06
42 2 -1.85 3.7 -9.25 1.48325e+08 1.48325e+08 4.30892e+07 -0 -0 8.53811e-09 3.98947e+06 -1.59229e+06 1.46559e+08 -2.94218e-12 4.0454e+06
43 2 -3.7 5.55 -9.25 1.48325e+08 1.48325e+08 4.30892e+07 -0 -0 -1.42302e-09 3.98947e+06 -1.59229e+06 1.46559e+08 -0 4.0454e+06
44 2 1.85 3.7 -9.25 1.48325e+08 1.48325e+08 4.30892e+07 -0 7.11509e-09 8.53811e-09 3.98947e+06 -1.59229e+06 1.46559e+08 -2.95304e-12 4.0454e+06
45 2 0 5.55 -9.25 1.48325e+08 1.48325e+08 4.30892e+07 1.42302e-09 -2.84604e-09 -1.42302e-09 3.98947e+06 -1.59229e+06 1.46559e+08 -1.05674e-08 4.0454e+06
46 2 5.55 3.7 -9.25 1.48325e+08 1.48325e+08 4.30892e+07 -0 1.42302e-09 8.53811e-09 3.98947e+06 -1.59229e+06 1.46559e+08 3.79987e-13 4.0454e+06
47 2 3.7 5.55 -9.25 1.48325e+08 1.48325e+08 4.30892e+07 -0 8.53811e-09 -1.42302e-09 3.98947e+06 -1.59229e+06 1.46559e+08 -0 4.0454e+06
48 2 9.25 3.7 -9.25 6.99526e+07 2.23355e+08 6.99526e+07 -1.70762e-08 1.85367e+07 1.63647e-08 2.125e+08 -1.53796e+06 2.19799e+08 8.338e-11 -1.43801e+06
49 2 7.4 5.55 -9.25 1.04456e+08 1.48325e+08 3.94843e+07 7.11509e-10 8.89207e+06 -1.42302e-09 4.15695e+06 -1.65133e+06 1.46559e+08 -2.77987e-09 4.0454e+06
50 2 -9.25 7.4 -9.25 6.27429e+07 1.35608e+08 6.27429e+07 1.77839e+07 -2.21416e+07 1.77839e+07 2.12501e+08 -1.54108e+06 1.32975e+08 35888.7 -1.46393e+06
51 2 -5.55 7.4 -9.25 1.48325e+08 1.04456e+08 3.94843e+07 -1.42302e-09 -7.11509e-09 8.89207e+06 3.98947e+06 -1.59229e+06 1.02859e+08 -1.78767e-08 4.04366e+06
52 2 -7.4 9.25 -9.25 1.35608e+08 6.27429e+07 6.27429e+07 1.77839e+07 -1.77839e+07 2.21416e+07 1.37231e+06 -1.40326e+06 3.0902e+08 5898.44 -3.92458e+07
53 2 -1.85 7.4 -9.25 1.48325e+08 1.04456e+08 3.94843e+07 1.42302e-09 7.11509e-10 8.89207e+06 3.98947e+06 -1.59229e+06 1.02859e+08 1.78767e-08 4.04366e+06
54 2 -3.7 9.25 -9.25 2.23355e+08 6.99526e+07 6.99526e+07 -0 -0 1.85367e+07 460751 -1.20341e+06 3.16229e+08 -1.70907e-10 -3.92313e+07
55 2 1.85 7.4 -9.25 1.48325e+08 1.04456e+08 3.94843e+07 -0 7.8266e-09 8.89207e+06 3.98947e+06 -1.59229e+06 1.02859e+08 1.71207e-08 4.04366e+06
56 2 0 9.25 -9.25 2.23355e+08 6.99526e+07 6.99526e+07 -2.84604e-09 7.11509e-10 1.85367e+07 460751 -1.20341e+06 3.16229e+08 1.68632e-08 -3.92313e+07
57 2 5.55 7.4 -9.25 1.48325e+08 1.04456e+08 3.94843e+07 7.11509e-10 1.42302e-09 8.89207e+06 3.98947e+06 -1.59229e+06 1.02859e+08 -3.53531e-09 4.04366e+06
58 2 3.7 9.25 -9.25 2.23355e+08 6.99526e+07 6.99526e+07 -1.56532e-08 1.70762e-08 1.85367e+07 460751 -1.20341e+06 3.16229e+08 2.3379e-10 -3.92313e+07
59 2 9.25 7.4 -9.25 6.27429e+07 1.35608e+08 6.27429e+07 -1.77839e+07 2.21416e+07 1.77839e+07 2.12501e+08 -1.54108e+06 1.32975e+08 -35888.7 -1.46393e+06
60 2 7.4 9.25 -9.25 1.35608e+08 6.27429e+07 6.27429e+07 -1.77839e+07 1.77839e+07 2.21416e+07 1.37231e+06 -1.40326e+06 3.0902e+08 -5898.44 -3.92458e+07
61 2 -9.25 -9.25 -7.4 6.27429e+07 6.27429e+07 1.35608e+08 -2.21416e+07 -1.77839e+07 -1.77839e+07 2.12501e+08 -1.22403e+06 3.0902e+08 4.14127e+06 -4.83535e+07
62 2 -5.55 -9.25 -7.4 1.48325e+08 3.94843e+07 1.04456e+08 -4.26906e-09 -0 -8.89207e+06 3.98947e+06 -1.15205e+06 2.86576e+08 -7.82427e-09 -4.21972e+07
63 2 -7.4 -9.25 -5.55 1.04456e+08 3.94843e+07 1.48325e+08 -8.89207e+06 -0 -8.53811e-09 4.15695e+06 -1.18271e+06 2.86576e+08 -120.295 -4.21975e+07
64 2 -1.85 -9.25 -7.4 1.48325e+08 3.94843e+07 1.04456e+08 -0 -0 -8.89207e+06 3.98947e+06 -1.15205e+06 2.86576e+08 7.82743e-09 -4.21972e+07
65 2 -3.7 -9.25 -5.55 1.48325e+08 4.30892e+07 1.48325e+08 -0 -0 -8.53811e-09 3.98947e+06 -1.15205e+06 2.90181e+08 -7.98407e-11 -4.21972e+07
66 2 1.85 -9.25 -7.4 1.48325e+08 3.94843e+07 1.04456e+08 7.11509e-09 -0 -8.89207e+06 3.98947e+06 -1.15205e+06 2.86576e+08 -5.33958e-09 -4.21972e+07
67 2 0 -9.25 -5.55 1.48325e+08 4.30892e+07 1.48325e+08 -3.55755e-09 -7.11509e-10 -8.53811e-09 3.98947e+06 -1.15205e+06 2.90181e+08 3.23811e-10 -4.21972e+07
68 2 5.55 -9.25 -7.4 1.48325e+08 3.94843e+07 1.04456e+08 1.42302e-09 -0 -8.89207e+06 3.98947e+06 -1.15205e+06 2.86576e+08 1.81426e-08 -4.21972e+07
69 2 3.7 -9.25 -5.55 1.48325e+08 4.30892e+07 1.48325e+08 8.53811e-09 -0 -8.53811e-09 3.98947e+06 -1.15205e+06 2.90181e+08 -8.35537e-11 -4.21972e+07
70 2 9.25 -9.25 -7.4 6.27429e+07 6.27429e+07 1.35608e+08 2.21416e+07 1.77839e+07 -1.77839e+07 2.12501e+08 -1.22403e+06 3.0902e+08 -4.14127e+06 -4.83535e+07
71 2 7.4 -9.25 -5.55 1.04456e+08 3.94843e+07 1.48325e+08 8.89207e+06 -2.13453e-09 -8.53811e-09 4.15695e+06 -1.18271e+06 2.86576e+08 120.295 -4.21975e+07
72 2 -9.25 -5.55 -7.4 3.94843e+07 1.48325e+08 1.04456e+08 -4.26906e-09 -8.89207e+06 -7.11509e-10 2.13869e+08 -1.20221e+06 1.46559e+08 -3.39721e-09 -3.21895e+06
73 2 -9.25 -7.4 -5.55 3.94843e+07 1.04456e+08 1.48325e+08 -8.89207e+06 -5.69207e-09 -0 2.13869e+08 -1.20243e+06 1.02859e+08 -731.931 -3.22099e+06
74 2 -7.4 -7.4 -7.4 7.28339e+07 7.28339e+07 7.28339e+07 -0 -0 -0 8.12375e+06 576059 7.39251e+07 -0 7.59757e+06
75 2 -5.55 -5.55 -7.4 9.47681e+07 9.47681e+07 7.28339e+07 -0 -0 -0 8.08527e+06 587106 9.58205e+07 1.33408e-10 7.59792e+06
76 2 -5.55 -7.4 -5.55 9.47681e+07 7.28339e+07 9.47681e+07 -0 -0 -0 8.08527e+06 587106 7.39251e+07 -0 7.59757e+06
77 2 -7.4 -5.55 -5.55 7.28339e+07 9.47681e+07 9.47681e+07 -0 -0 -0 8.12375e+06 576059 9.58205e+07 -0 7.59792e+06
78 2 -3.7 -7.4 -7.4 9.47681e+07 7.28339e+07 7.28339e+07 -0 -0 -0 8.08527e+06 587106 7.39251e+07 -0 7.59757e+06
79 2 -1.85 -5.55 -7.4 9.47681e+07 9.47681e+07 7.28339e+07 -0 -0 -0 8.08527e+06 587106 9.58205e+07 -1.33408e-10 7.59792e+06
80 2 -1.85 -7.4 -5.55 9.47681e+07 7.28339e+07 9.47681e+07 -0 -0 -0 8.08527e+06 587106 7.39251e+07 -0 7.59757e+06
81 2 -3.7 -5.55 -5.55 9.47681e+07 9.47681e+07 9.47681e+07 -0 -0 -0 8.08527e+06 587106 9.58205e+07 -0 7.59792e+06
82 2 0 -7.4 -7.4 9.47681e+07 7.28339e+07 7.28339e+07 -0 -0 -0 8.08527e+06 587106 7.39251e+07 -1.04225e-12 7.59757e+06
83 2 1.85 -5.55 -7.4 9.47681e+07 9.47681e+07 7.28339e+07 -0 -0 -0 8.08527e+06 587106 9.58205e+07 5.5809e-09 7.59792e+06
84 2 1.85 -7.4 -5.55 9.47681e+07 7.28339e+07 9.47681e+07 -0 -0 -0 8.08527e+06 587106 7.39251e+07 -0 7.59757e+06
85 2 0 -5.55 -5.55 9.47681e+07 9.47681e+07 9.47681e+07 -0 -0 -0 8.08527e+06 587106 9.58205e+07 -5.5809e-09 7.59792e+06
86 2 3.7 -7.4 -7.4 9.47681e+07 7.28339e+07 7.28339e+07 -0 -0 -0 8.08527e+06 587106 7.39251e+07 -0 7.59757e+06
87 2 5.55 -5.55 -7.4 9.47681e+07 9.47681e+07 7.28339e+07 7.11509e-10 -0 -0 8.08527e+06 587106 9.58205e+07 1.77877e-10 7.59792e+06
88 2 5.55 -7.4 -5.55 9.47681e+07 7.28339e+07 9.47681e+07 -0 7.11509e-10 -0 8.08527e+06 587106 7.39251e+07 -0 7.59757e+06
89 2 3.7 -5.55 -5.55 9.47681e+07 9.47681e+07 9.47681e+07 -0 -0 -0 8.08527e+06 587106 9.58205e+07 -0 7.59792e+06
90 2 7.4 -7.4 -7.4 7.28339e+07 7.28339e+07 7.28339e+07 -0 -0 -0 8.12375e+06 576059 7.39251e+07 6.94833e-13 7.59757e+06
91 2 9.25 -5.55 -7.4 3.94843e+07 1.48325e+08 1.04456e+08 4.26906e-09 8.89207e+06 -7.11509e-10 2.13869e+08 -1.20221e+06 1.46559e+08 8.73353e-09 -3.21895e+06
92 2 9.25 -7.4 -5.55 3.94843e+07 1.04456e+08 1.48325e+08 8.89207e+06 5.69207e-09 -0 2.13869e+08 -1.20243e+06 1.02859e+08 731.931 -3.22099e+06
93 2 7.4 -5.55 -5.55 7.28339e+07 9.47681e+07 9.47681e+07 -7.11509e-10 -7.11509e-10 -0 8.12375e+06 576059 9.58205e+07 -5.75878e-09 7.59792e+06
94 2 -9.25 -1.85 -7.4 3.94843e+07 1.48325e+08 1.04456e+08 -0 -8.89207e+06 -0 2.13869e+08 -1.20221e+06 1.46559e+08 3.34858e-09 -3.21895e+06
95 2 -9.25 -3.7 -5.55 4.30892e+07 1.48325e+08 1.48325e+08 -0 -5.69207e-09 -0 2.13869e+08 -1.20232e+06 1.46559e+08 -7.0265e-11 -3.21895e+06
96 2 -7.4 -3.7 -7.4 7.28339e+07 9.47681e+07 7.28339e+07 -0 -0 -0 8.12375e+06 576059 9.58205e+07 -0 7.59792e+06
97 2 -5.55 -1.85 -7.4 9.47681e+07 9.47681e+07 7.28339e+07 -0 -0 -0 8.08527e+06 587106 9.58205e+07 -1.33408e-10 7.59792e+06
98 2 -5.55 -3.7 -5.55 9.47681e+07 9.47681e+07 9.47681e+07 -0 -0 -0 8.08527e+06 587106 9.58205e+07 -6.94833e-13 7.59792e+06
99 2 -7.4 -1.85 -5.55 7.28339e+07 9.47681e+07 9.47681e+07 -0 -0 -0 8.12375e+06 576059 9.58205e+07 -0 7.59792e+06
100 2 -3.7 -3.7 -7.4 9.47681e+07 9.47681e+07 7.28339e+07 -0 -0 -0 8.08527e+06 587106 9.58205e+07 -0 7.59792e+06
101 2 -1.85 -1.85 -7.4 9.47681e+07 9.47681e+07 7.28339e+07 -0 -0 -0 8.08527e+06 587106 9.58205e+07 1.33408e-10 7.59792e+06
102 2 -1.85 -3.7 -5.55 9.47681e+07 9.47681e+07 9.47681e+07 -0 -0 -0 8.08527e+06 587106 9.58205e+07 6.94833e-13 7.59792e+06
103 2 -3.7 -1.85 -5.55 9.47681e+07 9.47681e+07 9.47681e+07 -0 -0 -0 8.08527e+06 587106 9.58205e+07 -0 7.59792e+06
104 2 0 -3.7 -7.4 9.47681e+07 9.47681e+07 7.28339e+07 -0 -0 -0 8.08527e+06 587106 9.58205e+07 -3.47417e-13 7.59792e+06
105 2 1.85 -1.85 -7.4 9.47681e+07 9.47681e+07 7.28339e+07 -0 -0 -0 8.08527e+06 587106 9.58205e+07 -5.5809e-09 7.59792e+06
106 2 1.85 -3.7 -5.55 9.47681e+07 9.47681e+07 9.47681e+07 -0 -0 -0 8.08527e+06 587106 9.58205e+07 1.04225e-12 7.59792e+06
107 2 0 -1.85 -5.55 9.47681e+07 9.47681e+07 9.47681e+07 -0 -0 -0 8.08527e+06 587106 9.58205e+07 5.5809e-09 7.59792e+06
108 2 3.7 -3.7 -7.4 9.47681e+07 9.47681e+07 7.28339e+07 -0 -0 -0 8.08527e+06 587106 9.58205e+07 -0 7.59792e+06
109 2 5.55 -1.85 -7.4 9.47681e+07 9.47681e+07 7.28339e+07 -7.11509e-10 -0 -0 8.08527e+06 587106 9.58205e+07 -1.77877e-10 7.59792e+06
110 2 5.55 -3.7 -5.55 9.47681e+07 9.47681e+07 9.47681e+07 -0 7.11509e-10 -0 8.08527e+06 587106 9.58205e+07 -6.94833e-13 7.59792e+06
111 2 3.7 -1.85 -5.55 9.47681e+07 9.47681e+07 9.47681e+07 -0 -0 -0 8.08527e+06 587106 9.58205e+07 -0 7.59792e+06
112 2 7.4 -3.7 -7.4 7.28339e+07 9.47681e+07 7.28339e+07 -0 -0 -0 8.12375e+06 576059 9.58205e+07 -3.47417e-13 7.59792e+06
113 2 9.25 -1.85 -7.4 3.94843e+07 1.48325e+08 1.04456e+08 -0 8.89207e+06 -0 2.13869e+08 -1.20221e+06 1.46559e+08 -8.6849e-09 -3.21895e+06
114 2 9.25 -3.7 -5.55 4.30892e+07 1.48325e+08 1.48325e+08 -0 5.69207e-09 -0 2.13869e+08 -1.20232e+06 1.46559e+08 1.56511e-10 -3.21895e+06
115 2 7.4 -1.85 -5.55 7.28339e+07 9.47681e+07 9.47681e+07 7.11509e-10 -7.11509e-10 -0 8.12375e+06 576059 9.58205e+07 5.75843e-09 7.59792e+06
116 2 -9.25 1.85 -7.4 3.94843e+07 1.48325e+08 1.04456e+08 5.69207e-09 -8.89207e+06 -0 2.13869e+08 -1.20221e+06 1.46559e+08 -2.61848e-08 -3.21895e+06
117 2 -9.25 0 -5.55 4.30892e+07 1.48325e+08 1.48325e+08 -2.84604e-09 -8.53811e-09 -7.11509e-10 2.13869e+08 -1.20232e+06 1.46559e+08 1.77802e-08 -3.21895e+06
118 2 -7.4 0 -7.4 7.28339e+07 9.47681e+07 7.28339e+07 -0 -0 -0 8.12375e+06 576059 9.58205e+07 -0 7.59792e+06
119 2 -5.55 1.85 -7.4 9.47681e+07 9.47681e+07 7.28339e+07 -0 -0 -0 8.08527e+06 587106 9.58205e+07 5.5809e-09 7.59792e+06
120 2 -5.55 0 -5.55 9.47681e+07 9.47681e+07 9.47681e+07 -0 -0 -0 8.08527e+06 587106 9.58205e+07 -5.58055e-09 7.59792e+06
121 2 -7.4 1.85 -5.55 7.28339e+07 9.47681e+07 9.47681e+07 -0 -0 -0 8.12375e+06 576059 9.58205e+07 -0 7.59792e+06
122 2 -3.7 0 -7.4 9.47681e+07 9.47681e+07 7.28339e+07 -0 -0 -0 8.08527e+06 587106 9.58205e+07 -0 7.59792e+06
123 2 -1.85 1.85 -7.4 9.47681e+07 9.47681e+07 7.28339e+07 -0 -0 -0 8.08527e+06 587106 9.58205e+07 -5.5809e-09 7.59792e+06
124 2 -1.85 0 -5.55 9.47681e+07 9.47681e+07 9.47681e+07 -0 -0 -0 8.08527e+06 587106 9.58205e+07 5.58055e-09 7.59792e+06
125 2 -3.7 1.85 -5.55 9.47681e+07 9.47681e+07 9.47681e+07 -0 -0 -0 8.08527e+06 587106 9.58205e+07 -0 7.59792e+06
126 2 0 0 -7.4 9.47681e+07 9.47681e+07 7.28339e+07 7.11509e-10 -0 -0 8.08527e+06 587106 9.58205e+07 6.6704e-11 7.59792e+06
127 2 1.85 1.85 -7.4 9.47681e+07 9.47681e+07 7.28339e+07 7.11509e-10 -0 -0 8.08527e+06 587106 9.58205e+07 6.6704e-11 7.59792e+06
128 2 1.85 0 -5.55 9.47681e+07 9.47681e+07 9.47681e+07 -7.11509e-10 -0 -0 8.08527e+06 587106 9.58205e+07 -6.6704e-11 7.59792e+06
129 2 0 1.85 -5.55 9.47681e+07 9.47681e+07 9.47681e+07 -7.11509e-10 -0 -0 8.08527e+06 587106 9.58205e+07 -6.53143e-11 7.59792e+06
130 2 3.7 0 -7.4 9.47681e+07 9.47681e+07 7.28339e+07 -0 -0 -0 8.08527e+06 587106 9.58205e+07 -0 7.59792e+06
131 2 5.55 1.85 -7.4 9.47681e+07 9.47681e+07 7.28339e+07 -1.42302e-09 -0 -0 8.08527e+06 587106 9.58205e+07 -6.6704e-11 7.59792e+06
132 2 5.55 0 -5.55 9.47681e+07 9.47681e+07 9.47681e+07 1.42302e-09 7.11509e-10 -0 8.08527e+06 587106 9.58205e+07 6.84411e-11 7.59792e+06
133 2 3.7 1.85 -5.55 9.47681e+07 9.47681e+07 9.47681e+07 -0 -0 -0 8.08527e+06 587106 9.58205e+07 -0 7.59792e+06
134 2 7.4 0 -7.4 7.28339e+07 9.47681e+07 7.28339e+07 -7.11509e-10 -0 -0 8.12375e+06 576059 9.58205e+07 -1.04225e-12 7.59792e+06
135 2 9.25 1.85 -7.4 3.94843e+07 1.48325e+08 1.04456e+08 -7.11509e-09 8.89207e+06 -0 2.13869e+08 -1.20221e+06 1.46559e+08 2.65401e-08 -3.21895e+06
136 2 9.25 0 -5.55 4.30892e+07 1.48325e+08 1.48325e+08 2.84604e-09 5.69207e-09 -7.11509e-10 2.13869e+08 -1.20232e+06 1.46559e+08 -1.76443e-08 -3.21895e+06
137 2 7.4 1.85 -5.55 7.28339e+07 9.47681e+07 9.47681e+07 7.11509e-10 -7.11509e-10 -0 8.12375e+06 576059 9.58205e+07 -0 7.59792e+06
138 2 -9.25 5.55 -7.4 3.94843e+07 1.48325e+08 1.04456e+08 -0 -8.89207e+06 7.11509e-10 2.13869e+08 -1.20221e+06 1.46559e+08 1.11886e-08 -3.21895e+06
139 2 -9.25 3.7 -5.55 4.30892e+07 1.48325e+08 1.48325e+08 8.53811e-09 -8.53811e-09 -0 2.13869e+08 -1.20232e+06 1.46559e+08 -2.41455e-11 -3.21895e+06
140 2 -7.4 3.7 -7.4 7.28339e+07 9.47681e+07 7.28339e+07 -0 -0 -0 8.12375e+06 576059 9.58205e+07 -0 7.59792e+06
141 2 -5.55 5.55 -7.4 9.47681e+07 9.47681e+07 7.28339e+07 7.11509e-10 -0 -0 8.08527e+06 587106 9.58205e+07 2.00112e-10 7.59792e+06
142 2 -5.55 3.7 -5.55 9.47681e+07 9.47681e+07 9.47681e+07 -0 -0 -0 8.08527e+06 587106 9.58205e+07 -0 7.59792e+06
143 2 -7.4 5.55 -5.55 7.28339e+07 9.47681e+07 9.47681e+07 -0 -0 7.11509e-10 8.12375e+06 576059 9.58205e+07 -0 7.59792e+06
144 2 -3.7 3.7 -7.4 9.47681e+07 9.47681e+07 7.28339e+07 -0 -0 -0 8.08527e+06 587106 9.58205e+07 -0 7.59792e+06
145 2 -1.85 5.55 -7.4 9.47681e+07 9.47681e+07 7.28339e+07 -7.11509e-10 -0 -0 8.08527e+06 587106 9.58205e+07 -2.00112e-10 7.59792e+06
146 2 -1.85 3.7 -5.55 9.47681e+07 9.47681e+07 9.47681e+07 -0 -0 -0 8.08527e+06 587106 9.58205e+07 -1.04225e-12 7.59792e+06
147 2 -3.7 5.55 -5.55 9.47681e+07 9.47681e+07 9.47681e+07 -0 -0 7.11509e-10 8.08527e+06 587106 9.58205e+07 -0 7.59792e+06
148 2 0 3.7 -7.4 9.47681e+07 9.47681e+07 7.28339e+07 -0 -0 -0 8.08527e+06 587106 9.58205e+07 -3.47417e-13 7.59792e+06
149 2 1.85 5.55 -7.4 9.47681e+07 9.47681e+07 7.28339e+07 -1.42302e-09 -0 -0 8.08527e+06 587106 9.58205e+07 -1.11173e-10 7.59792e+06
150 2 1.85 3.7 -5.55 9.47681e+07 9.47681e+07 9.47681e+07 -0 -0 -0 8.08527e+06 587106 9.58205e+07 -3.47417e-13 7.59792e+06
151 2 0 5.55 -5.55 9.47681e+07 9.47681e+07 9.47681e+07 1.42302e-09 -0 7.11509e-10 8.08527e+06 587106 9.58205e+07 1.10131e-10 7.59792e+06
152 2 3.7 3.7 -7.4 9.47681e+07 9.47681e+07 7.28339e+07 -0 -0 -0 8.08527e+06 587106 9.58205e+07 -0 7.59792e+06
153 2 5.55 5.55 -7.4 9.47681e+07 9.47681e+07 7.28339e+07 1.42302e-09 -0 -0 8.08527e+06 587106 9.58205e+07 4.44693e-11 7.59792e+06
154 2 5.55 3.7 -5.55 9.47681e+07 9.47681e+07 9.47681e+07 -0 7.11509e-10 -0 8.08527e+06 587106 9.58205e+07 2.0845e-12 7.59792e+06
155 2 3.7 5.55 -5.55 9.47681e+07 9.47681e+07 9.47681e+07 -0 -0 7.11509e-10 8.08527e+06 587106 9.58205e+07 -0 7.59792e+06
156 2 7.4 3.7 -7.4 7.28339e+07 9.47681e+07 7.28339e+07 -0 -0 -0 8.12375e+06 576059 9.58205e+07 -1.73708e-12 7.59792e+06
157 2 9.25 5.55 -7.4 3.94843e+07 1.48325e+08 1.04456e+08 -2.84604e-09 8.89207e+06 7.11509e-10 2.13869e+08 -1.20221e+06 1.46559e+08 -1.15445e-08 -3.21895e+06
158 2 9.25 3.7 -5.55 4.30892e+07 1.48325e+08 1.48325e+08 -8.53811e-09 5.69207e-09 -0 2.13869e+08 -1.20232e+06 1.46559e+08 1.75967e-10 -3.21895e+06
159 2 7.4 5.55 -5.55 7.28339e+07 9.47681e+07 9.47681e+07 -0 -7.11509e-10 7.11509e-10 8.12375e+06 576059 9.58205e+07 6.63566e-11 7.59792e+06
160 2 -9.25 9.25 -7.4 6.27429e+07 6.27429e+07 1.35608e+08 2.21416e+07 -1.77839e+07 1.77839e+07 2.12501e+08 -1.22403e+06 3.0902e+08 -4.14127e+06 -4.83535e+07
161 2 -9.25 7.4 -5.55 3.94843e+07 1.04456e+08 1.48325e+08 8.89207e+06 -8.53811e-09 -1.42302e-09 2.13869e+08 -1.20243e+06 1.02859e+08 731.931 -3.22099e+06
162 2 -7.4 7.4 -7.4 7.28339e+07 7.28339e+07 7.28339e+07 -0 -0 -0 8.12375e+06 576059 7.39251e+07 -0 7.59757e+06
163 2 -5.55 9.25 -7.4 1.48325e+08 3.94843e+07 1.04456e+08 4.26906e-09 -0 8.89207e+06 3.98947e+06 -1.15205e+06 2.86576e+08 1.31629e-08 -4.21972e+07
164 2 -5.55 7.4 -5.55 9.47681e+07 7.28339e+07 9.47681e+07 -7.11509e-10 -0 -7.11509e-10 8.08527e+06 587106 7.39251e+07 -5.78101e-09 7.59757e+06
165 2 -7.4 9.25 -5.55 1.04456e+08 3.94843e+07 1.48325e+08 8.89207e+06 -0 5.69207e-09 4.15695e+06 -1.18271e+06 2.86576e+08 120.295 -4.21975e+07
166 2 -3.7 7.4 -7.4 9.47681e+07 7.28339e+07 7.28339e+07 -0 -0 -0 8.08527e+06 587106 7.39251e+07 -0 7.59757e+06
167 2 -1.85 9.25 -7.4 1.48325e+08 3.94843e+07 1.04456e+08 -0 -0 8.89207e+06 3.98947e+06 -1.15205e+06 2.86576e+08 -1.31629e-08 -4.21972e+07
168 2 -1.85 7.4 -5.55 9.47681e+07 7.28339e+07 9.47681e+07 7.11509e-10 -0 -7.11509e-10 8.08527e+06 587106 7.39251e+07 5.78101e-09 7.59757e+06
169 2 -3.7 9.25 -5.55 1.48325e+08 4.30892e+07 1.48325e+08 -0 -0 5.69207e-09 3.98947e+06 -1.15205e+06 2.90181e+08 7.98624e-11 -4.21972e+07
170 2 0 7.4 -7.4 9.47681e+07 7.28339e+07 7.28339e+07 -7.11509e-10 -0 -0 8.08527e+06 587106 7.39251e+07 -4.44693e-11 7.59757e+06
171 2 1.85 9.25 -7.4 1.48325e+08 3.94843e+07 1.04456e+08 -5.69207e-09 -0 8.89207e+06 3.98947e+06 -1.15205e+06 2.86576e+08 5.33632e-09 -4.21972e+07
172 2 1.85 7.4 -5.55 9.47681e+07 7.28339e+07 9.47681e+07 7.11509e-10 -0 -7.11509e-10 8.08527e+06 587106 7.39251e+07 4.44693e-11 7.59757e+06
173 2 0 9.25 -5.55 1.48325e+08 4.30892e+07 1.48325e+08 5.69207e-09 -7.11509e-10 5.69207e-09 3.98947e+06 -1.15205e+06 2.90181e+08 -6.33598e-10 -4.21972e+07
174 2 3.7 7.4 -7.4 9.47681e+07 7.28339e+07 7.28339e+07 -0 -0 -0 8.08527e+06 587106 7.39251e+07 -0 7.59757e+06
175 2 5.55 9.25 -7.4 1.48325e+08 3.94843e+07 1.04456e+08 -2.84604e-09 -0 8.89207e+06 3.98947e+06 -1.15205e+06 2.86576e+08 -1.81435e-08 -4.21972e+07
176 2 5.55 7.4 -5.55 9.47681e+07 7.28339e+07 9.47681e+07 -0 7.11509e-10 -7.11509e-10 8.08527e+06 587106 7.39251e+07 2.22347e-11 7.59757e+06
177 2 3.7 9.25 -5.55 1.48325e+08 4.30892e+07 1.48325e+08 -9.96113e-09 -0 5.69207e-09 3.98947e+06 -1.15205e+06 2.90181e+08 8.36406e-11 -4.21972e+07
178 2 7.4 7.4 -7.4 7.28339e+07 7.28339e+07 7.28339e+07 -7.11509e-10 -0 -0 8.12375e+06 576059 7.39251e+07 -6.6704e-11 7.59757e+06
179 2 9.25 9.25 -7.4 6.27429e+07 6.27429e+07 1.35608e+08 -2.21416e+07 1.77839e+07 1.77839e+07 2.12501e+08 -1.22403e+06 3.0902e+08 4.14127e+06 -4.83535e+07
180 2 9.25 7.4 -5.55 3.94843e+07 1.04456e+08 1.48325e+08 -8.89207e+06 8.53811e-09 -1.42302e-09 2.13869e+08 -1.20243e+06 1.02859e+08 -731.931 -3.22099e+06
181 2 7.4 9.25 -5.55 1.04456e+08 3.94843e+07 1.48325e+08 -8.89207e+06 -2.13453e-09 5.69207e-09 4.15695e+06 -1.18271e+06 2.86576e+08 -120.295 -4.21975e+07
182 2 -9.25 -9.25 -3.7 6.99526e+07 6.99526e+07 2.23355e+08 -1.85367e+07 -0 -0 2.125e+08 -1.22727e+06 3.16229e+08 4.14133e+06 -4.83535e+07
183 2 -5.55 -9.25 -3.7 1.48325e+08 4.30892e+07 1.48325e+08 -6.40358e-09 -0 2.84604e-09 3.98947e+06 -1.15205e+06 2.90181e+08 -9.24707e-09 -4.21972e+07
184 2 -7.4 -9.25 -1.85 1.04456e+08 3.94843e+07 1.48325e+08 -8.89207e+06 -0 2.84604e-09 4.15695e+06 -1.18271e+06 2.86576e+08 -120.295 -4.21975e+07
185 2 -1.85 -9.25 -3.7 1.48325e+08 4.30892e+07 1.48325e+08 7.11509e-10 -0 2.84604e-09 3.98947e+06 -1.15205e+06 2.90181e+08 9.25015e-09 -4.21972e+07
186 2 -3.7 -9.25 -1.85 1.48325e+08 4.30892e+07 1.48325e+08 -0 -0 2.84604e-09 3.98947e+06 -1.15205e+06 2.90181e+08 -7.9819e-11 -4.21972e+07
187 2 1.85 -9.25 -3.7 1.48325e+08 4.30892e+07 1.48325e+08 7.8266e-09 -0 2.84604e-09 3.98947e+06 -1.15205e+06 2.90181e+08 4.6218e-09 -4.21972e+07
188 2 0 -9.25 -1.85 1.48325e+08 4.30892e+07 1.48325e+08 -5.69207e-09 7.11509e-10 -2.84604e-09 3.98947e+06 -1.15205e+06 2.90181e+08 2.77913e-10 -4.21972e+07
189 2 5.55 -9.25 -3.7 1.48325e+08 4.30892e+07 1.48325e+08 -7.11509e-10 -0 -2.84604e-09 3.98947e+06 -1.15205e+06 2.90181e+08 1.88541e-08 -4.21972e+07
190 2 3.7 -9.25 -1.85 1.48325e+08 4.30892e+07 1.48325e+08 9.96113e-09 -0 -2.84604e-09 3.98947e+06 -1.15205e+06 2.90181e+08 -8.36406e-11 -4.21972e+07
191 2 9.25 -9.25 -3.7 6.99526e+07 6.99526e+07 2.23355e+08 1.85367e+07 -0 -0 2.125e+08 -1.22727e+06 3.16229e+08 -4.14133e+06 -4.83535e+07
192 2 7.4 -9.25 -1.85 1.04456e+08 3.94843e+07 1.48325e+08 8.89207e+06 2.13453e-09 -0 4.15695e+06 -1.18271e+06 2.86576e+08 120.295 -4.21975e+07
193 2 -9.25 -5.55 -3.7 4.30892e+07 1.48325e+08 1.48325e+08 -5.69207e-09 2.84604e-09 -0 2.13869e+08 -1.20232e+06 1.46559e+08 -5.51194e-09 -3.21895e+06
194 2 -9.25 -7.4 -1.85 3.94843e+07 1.04456e+08 1.48325e+08 -8.89207e+06 2.84604e-09 -7.11509e-10 2.13869e+08 -1.20243e+06 1.02859e+08 -731.931 -3.22099e+06
195 2 -7.4 -7.4 -3.7 7.28339e+07 7.28339e+07 9.47681e+07 -0 -0 -0 8.12375e+06 576059 7.39251e+07 -0 7.59757e+06
196 2 -5.55 -5.55 -3.7 9.47681e+07 9.47681e+07 9.47681e+07 -0 -0 -0 8.08527e+06 587106 9.58205e+07 1.33408e-10 7.59792e+06
197 2 -5.55 -7.4 -1.85 9.47681e+07 7.28339e+07 9.47681e+07 -0 -0 -0 8.08527e+06 587106 7.39251e+07 -0 7.59757e+06
198 2 -7.4 -5.55 -1.85 7.28339e+07 9.47681e+07 9.47681e+07 -0 -0 -0 8.12375e+06 576059 9.58205e+07 -0 7.59792e+06
199 2 -3.7 -7.4 -3.7 9.47681e+07 7.28339e+07 9.47681e+07 -0 -0 -0 8.08527e+06 587106 7.39251e+07 -0 7.59757e+06
200 2 -1.85 -5.55 -3.7 9.47681e+07 9.47681e+07 9.47681e+07 -0 -0 -0 8.08527e+06 587106 9.58205e+07 -1.33408e-10 7.59792e+06
201 2 -1.85 -7.4 -1.85 9.47681e+07 7.28339e+07 9.47681e+07 -0 -0 -0 8.08527e+06 587106 7.39251e+07 -0 7.59757e+06
202 2 -3.7 -5.55 -1.85 9.47681e+07 9.47681e+07 9.47681e+07 -0 -0 -0 8.08527e+06 587106 9.58205e+07 -0 7.59792e+06
203 2 0 -7.4 -3.7 9.47681e+07 7.28339e+07 9.47681e+07 -0 -0 -0 8.08527e+06 587106 7.39251e+07 -6.94833e-13 7.59757e+06
204 2 1.85 -5.55 -3.7 9.47681e+07 9.47681e+07 9.47681e+07 -0 -0 -0 8.08527e+06 587106 9.58205e+07 5.5809e-09 7.59792e+06
205 2 1.85 -7.4 -1.85 9.47681e+07 7.28339e+07 9.47681e+07 -0 -0 -0 8.08527e+06 587106 7.39251e+07 -0 7.59757e+06
206 2 0 -5.55 -1.85 9.47681e+07 9.47681e+07 9.47681e+07 -0 -0 -0 8.08527e+06 587106 9.58205e+07 -5.5809e-09 7.59792e+06
207 2 3.7 -7.4 -3.7 9.47681e+07 7.28339e+07 9.47681e+07 -0 -0 -0 8.08527e+06 587106 7.39251e+07 -0 7.59757e+06
208 2 5.55 -5.55 -3.7 9.47681e+07 9.47681e+07 9.47681e+07 7.11509e-10 -0 -0 8.08527e+06 587106 9.58205e+07 1.77182e-10 7.59792e+06
209 2 5.55 -7.4 -1.85 9.47681e+07 7.28339e+07 9.47681e+07 -0 -7.11509e-10 -0 8.08527e+06 587106 7.39251e+07 -0 7.59757e+06
210 2 3.7 -5.55 -1.85 9.47681e+07 9.47681e+07 9.47681e+07 -0 -0 -0 8.08527e+06 587106 9.58205e+07 -0 7.59792e+06
211 2 7.4 -7.4 -3.7 7.28339e+07 7.28339e+07 9.47681e+07 -0 -0 -0 8.12375e+06 576059 7.39251e+07 3.47417e-13 7.59757e+06
212 2 9.25 -5.55 -3.7 4.30892e+07 1.48325e+08 1.48325e+08 5.69207e-09 -0 -0 2.13869e+08 -1.20232e+06 1.46559e+08 1.08483e-08 -3.21895e+06
213 2 9.25 -7.4 -1.85 3.94843e+07 1.04456e+08 1.48325e+08 8.89207e+06 2.84604e-09 -7.11509e-10 2.13869e+08 -1.20243e+06 1.02859e+08 731.931 -3.22099e+06
214 2 7.4 -5.55 -1.85 7.28339e+07 9.47681e+07 9.47681e+07 -7.11509e-10 7.11509e-10 -0 8.12375e+06 576059 9.58205e+07 -5.75878e-09 7.59792e+06
215 2 -9.25 -1.85 -3.7 4.30892e+07 1.48325e+08 1.48325e+08 -0 -0 -0 2.13869e+08 -1.20232e+06 1.46559e+08 5.50152e-09 -3.21895e+06
216 2 -9.25 -3.7 -1.85 4.30892e+07 1.48325e+08 1.48325e+08 -0 2.84604e-09 -0 2.13869e+08 -1.20232e+06 1.46559e+08 -0 -3.21895e+06
217 2 -7.4 -3.7 -3.7 7.28339e+07 9.47681e+07 9.47681e+07 -0 -0 -0 8.12375e+06 576059 9.58205e+07 -0 7.59792e+06
218 2 -5.55 -1.85 -3.7 9.47681e+07 9.47681e+07 9.47681e+07 -0 -0 -0 8.08527e+06 587106 9.58205e+07 -1.33408e-10 7.59792e+06
219 2 -5.55 -3.7 -1.85 9.47681e+07 9.47681e+07 9.47681e+07 -0 -0 -0 8.08527e+06 587106 9.58205e+07 -6.94833e-13 7.59792e+06
220 2 -7.4 -1.85 -1.85 7.28339e+07 9.47681e+07 9.47681e+07 -0 -0 -0 8.12375e+06 576059 9.58205e+07 -0 7.59792e+06