ITEM: TIMESTEP
0
ITEM: NUMBER OF ATOMS
3
ITEM: BOX BOUNDS xy xz yz pp pp pp
0.0000000000000000e+00 5.0000000000000000e+01 0.0000000000000000e+00
0.0000000000000000e+00 5.0000000000000000e+01 0.0000000000000000e+00
0.0000000000000000e+00 5.0000000000000000e+01 0.0000000000000000e+00
ITEM: ATOMS id type x y z c_1[1] c_1[2] c_1[3] c_1[4] c_1[5] c_1[6] c_1[7] c_1[8] c_1[13] c_1[15] c_1[22]
1 2 0.25 0.321535 0 -2.84082e+08 -4.69915e+08 -0 -0 -0 -0 -4.73048e+07 3.91665e+08 1.7796e+08 -0 -7.82493e+07
2 2 0 0 0 -1.25128e+09 -2.34957e+08 -0 -1.82684e+08 -0 -0 -1.01552e+09 5.37715e+09 8.89798e+07 2.51868e+08 -3.91247e+07
3 2 0.5 0 0 -1.25128e+09 -2.34957e+08 -0 1.82684e+08 -0 -0 -1.01552e+09 5.37715e+09 8.89798e+07 -2.51868e+08 -3.91247e+07
ITEM: TIMESTEP
1
ITEM: NUMBER OF ATOMS
3
ITEM: BOX BOUNDS xy xz yz pp pp pp
0.0000000000000000e+00 5.0500000000000000e+01 5.0000000000000000e-01
0.0000000000000000e+00 5.0000000000000000e+01 0.0000000000000000e+00
0.0000000000000000e+00 5.0000000000000000e+01 0.0000000000000000e+00
ITEM: ATOMS id type x y z c_1[1] c_1[2] c_1[3] c_1[4] c_1[5] c_1[6] c_1[7] c_1[8] c_1[13] c_1[15] c_1[22]
1 2 0.253215 0.321535 0 -2.84082e+08 -4.69915e+08 -0 -0 -0 -0 -4.73048e+07 3.91665e+08 1.7796e+08 -0 -7.82493e+07
2 2 0 0 0 -1.25128e+09 -2.34957e+08 -0 -1.82684e+08 -0 -0 -1.01552e+09 5.37715e+09 8.89798e+07 2.51868e+08 -3.91247e+07
3 2 0.5 0 0 -1.25128e+09 -2.34957e+08 -0 1.82684e+08 -0 -0 -1.01552e+09 5.37715e+09 8.89798e+07 -2.51868e+08 -3.91247e+07
ITEM: TIMESTEP
2
ITEM: NUMBER OF ATOMS
3
ITEM: BOX BOUNDS xy xz yz pp pp pp
0.0000000000000000e+00 5.1000000000000000e+01 1.0000000000000000e+00
0.0000000000000000e+00 5.0000000000000000e+01 0.0000000000000000e+00
0.0000000000000000e+00 5.0000000000000000e+01 0.0000000000000000e+00
ITEM: ATOMS id type x y z c_1[1] c_1[2] c_1[3] c_1[4] c_1[5] c_1[6] c_1[7] c_1[8] c_1[13] c_1[15] c_1[22]
1 2 0.256431 0.321535 0 -2.84058e+08 -4.69927e+08 -0 -784723 -0 -0 -4.72338e+07 3.91597e+08 1.78022e+08 -2.41372e+06 -7.83297e+07
2 2 0 0 0 -1.25323e+09 -2.32446e+08 -0 -1.83056e+08 -0 -0 -1.01572e+09 5.38106e+09 8.58092e+07 2.50633e+08 -3.50675e+07
3 2 0.5 0 0 -1.24897e+09 -2.37481e+08 -0 1.82272e+08 -0 -0 -1.01946e+09 5.3779e+09 9.22125e+07 -2.53047e+08 -4.32622e+07
ITEM: TIMESTEP
3
ITEM: NUMBER OF ATOMS
3
ITEM: BOX BOUNDS xy xz yz pp pp pp
0.0000000000000000e+00 5.1500000000000000e+01 1.5000000000000000e+00
0.0000000000000000e+00 5.0000000000000000e+01 0.0000000000000000e+00
0.0000000000000000e+00 5.0000000000000000e+01 0.0000000000000000e+00
ITEM: ATOMS id type x y z c_1[1] c_1[2] c_1[3] c_1[4] c_1[5] c_1[6] c_1[7] c_1[8] c_1[13] c_1[15] c_1[22]
1 2 0.259646 0.321535 0 -2.83986e+08 -4.69964e+08 -0 -1.57105e+06 -0 -0 -4.70197e+07 3.91395e+08 1.78212e+08 -4.8276e+06 -7.85687e+07
2 2 0 0 0 -1.25481e+09 -2.29948e+08 -0 -1.83388e+08 -0 -0 -1.02006e+09 5.3896e+09 8.26991e+07 2.49343e+08 -3.10919e+07
3 2 0.5 0 0 -1.24628e+09 -2.40016e+08 -0 1.81817e+08 -0 -0 -1.02753e+09 5.38329e+09 9.55127e+07 -2.5417e+08 -4.74768e+07
ITEM: TIMESTEP
4
ITEM: NUMBER OF ATOMS
3
ITEM: BOX BOUNDS xy xz yz pp pp pp
0.0000000000000000e+00 5.2000000000000000e+01 2.0000000000000000e+00
0.0000000000000000e+00 5.0000000000000000e+01 0.0000000000000000e+00
0.0000000000000000e+00 5.0000000000000000e+01 0.0000000000000000e+00
ITEM: ATOMS id type x y z c_1[1] c_1[2] c_1[3] c_1[4] c_1[5] c_1[6] c_1[7] c_1[8] c_1[13] c_1[15] c_1[22]
1 2 0.262861 0.321535 0 -2.83867e+08 -4.70025e+08 -0 -2.36056e+06 -0 -0 -4.66625e+07 3.91059e+08 1.78528e+08 -7.22222e+06 -7.89663e+07
2 2 0 0 0 -1.25601e+09 -2.27463e+08 -0 -1.83681e+08 -0 -0 -1.02854e+09 5.40277e+09 7.96576e+07 2.48006e+08 -2.71926e+07
3 2 0.5 0 0 -1.24323e+09 -2.42562e+08 -0 1.81321e+08 -0 -0 -1.03974e+09 5.39328e+09 9.88707e+07 -2.55228e+08 -5.17737e+07
ITEM: TIMESTEP
5
ITEM: NUMBER OF ATOMS
3
ITEM: BOX BOUNDS xy xz yz pp pp pp
0.0000000000000000e+00 5.2500000000000000e+01 2.5000000000000000e+00
0.0000000000000000e+00 5.0000000000000000e+01 0.0000000000000000e+00
0.0000000000000000e+00 5.0000000000000000e+01 0.0000000000000000e+00
ITEM: ATOMS id type x y z c_1[1] c_1[2] c_1[3] c_1[4] c_1[5] c_1[6] c_1[7] c_1[8] c_1[13] c_1[15] c_1[22]
1 2 0.266077 0.321535 0 -2.83701e+08 -4.70111e+08 -0 -3.15486e+06 -0 -0 -4.61637e+07 3.90588e+08 1.78971e+08 -9.60934e+06 -7.9523e+07
2 2 0 0 0 -1.25683e+09 -2.24992e+08 -0 -1.83935e+08 -0 -0 -1.04116e+09 5.42049e+09 7.66735e+07 2.46618e+08 -2.33766e+07
3 2 0.5 0 0 -1.23979e+09 -2.45119e+08 -0 1.80781e+08 -0 -0 -1.05607e+09 5.40785e+09 1.02297e+08 -2.56227e+08 -5.61464e+07
ITEM: TIMESTEP
6
ITEM: NUMBER OF ATOMS
3
ITEM: BOX BOUNDS xy xz yz pp pp pp
0.0000000000000000e+00 5.3000000000000000e+01 3.0000000000000000e+00
0.0000000000000000e+00 5.0000000000000000e+01 0.0000000000000000e+00
0.0000000000000000e+00 5.0000000000000000e+01 0.0000000000000000e+00
ITEM: ATOMS id type x y z c_1[1] c_1[2] c_1[3] c_1[4] c_1[5] c_1[6] c_1[7] c_1[8] c_1[13] c_1[15] c_1[22]
1 2 0.269292 0.321535 0 -2.83487e+08 -4.70221e+08 -0 -3.95553e+06 -0 -0 -4.55214e+07 3.89985e+08 1.79541e+08 -1.19699e+07 -8.02357e+07
2 2 0 0 0 -1.25726e+09 -2.22535e+08 -0 -1.84152e+08 -0 -0 -1.05791e+09 5.44272e+09 7.37566e+07 2.45187e+08 -1.96371e+07
3 2 0.5 0 0 -1.23596e+09 -2.47686e+08 -0 1.80197e+08 -0 -0 -1.07653e+09 5.42691e+09 1.05785e+08 -2.57157e+08 -6.05986e+07
ITEM: TIMESTEP
7
ITEM: NUMBER OF ATOMS
3
ITEM: BOX BOUNDS xy xz yz pp pp pp
0.0000000000000000e+00 5.3500000000000000e+01 3.5000000000000000e+00
0.0000000000000000e+00 5.0000000000000000e+01 0.0000000000000000e+00
0.0000000000000000e+00 5.0000000000000000e+01 0.0000000000000000e+00
ITEM: ATOMS id type x y z c_1[1] c_1[2] c_1[3] c_1[4] c_1[5] c_1[6] c_1[7] c_1[8] c_1[13] c_1[15] c_1[22]
1 2 0.272507 0.321535 0 -2.83226e+08 -4.70355e+08 -0 -4.76415e+06 -0 -0 -4.47394e+07 3.89246e+08 1.80231e+08 -1.43033e+07 -8.11087e+07
2 2 0 0 0 -1.25727e+09 -2.20093e+08 -0 -1.84332e+08 -0 -0 -1.07878e+09 5.46935e+09 7.08998e+07 2.43713e+08 -1.59785e+07
3 2 0.5 0 0 -1.23173e+09 -2.50262e+08 -0 1.79568e+08 -0 -0 -1.1011e+09 5.45037e+09 1.09331e+08 -2.58016e+08 -6.51302e+07
ITEM: TIMESTEP
8
ITEM: NUMBER OF ATOMS
3
ITEM: BOX BOUNDS xy xz yz pp pp pp
0.0000000000000000e+00 5.4000000000000000e+01 4.0000000000000000e+00
0.0000000000000000e+00 5.0000000000000000e+01 0.0000000000000000e+00
0.0000000000000000e+00 5.0000000000000000e+01 0.0000000000000000e+00
ITEM: ATOMS id type x y z c_1[1] c_1[2] c_1[3] c_1[4] c_1[5] c_1[6] c_1[7] c_1[8] c_1[13] c_1[15] c_1[22]
1 2 0.275723 0.321535 0 -2.82919e+08 -4.70512e+08 -0 -5.58229e+06 -0 -0 -4.38151e+07 3.88377e+08 1.81051e+08 -1.66106e+07 -8.21349e+07
2 2 0 0 0 -1.25685e+09 -2.17666e+08 -0 -1.84476e+08 -0 -0 -1.10377e+09 5.50028e+09 6.8104e+07 2.42196e+08 -1.23996e+07
3 2 0.5 0 0 -1.22707e+09 -2.52846e+08 -0 1.78894e+08 -0 -0 -1.12977e+09 5.47812e+09 1.12947e+08 -2.58807e+08 -6.97353e+07
ITEM: TIMESTEP
9
ITEM: NUMBER OF ATOMS
3
ITEM: BOX BOUNDS xy xz yz pp pp pp
0.0000000000000000e+00 5.4500000000000000e+01 4.5000000000000000e+00
0.0000000000000000e+00 5.0000000000000000e+01 0.0000000000000000e+00
0.0000000000000000e+00 5.0000000000000000e+01 0.0000000000000000e+00
ITEM: ATOMS id type x y z c_1[1] c_1[2] c_1[3] c_1[4] c_1[5] c_1[6] c_1[7] c_1[8] c_1[13] c_1[15] c_1[22]
1 2 0.278938 0.321535 0 -2.82566e+08 -4.70693e+08 -0 -6.4115e+06 -0 -0 -4.27501e+07 3.87377e+08 1.81992e+08 -1.88742e+07 -8.33164e+07
2 2 0 0 0 -1.25598e+09 -2.15255e+08 -0 -1.84585e+08 -0 -0 -1.13285e+09 5.53536e+09 6.53729e+07 2.40644e+08 -8.89723e+06
3 2 0.5 0 0 -1.22197e+09 -2.55439e+08 -0 1.78174e+08 -0 -0 -1.16252e+09 5.51002e+09 1.16619e+08 -2.59518e+08 -7.44192e+07
ITEM: TIMESTEP
10
ITEM: NUMBER OF ATOMS
3
ITEM: BOX BOUNDS xy xz yz pp pp pp
0.0000000000000000e+00 5.5000000000000000e+01 5.0000000000000000e+00
0.0000000000000000e+00 5.0000000000000000e+01 0.0000000000000000e+00
0.0000000000000000e+00 5.0000000000000000e+01 0.0000000000000000e+00
ITEM: ATOMS id type x y z c_1[1] c_1[2] c_1[3] c_1[4] c_1[5] c_1[6] c_1[7] c_1[8] c_1[13] c_1[15] c_1[22]
1 2 0.282153 0.321535 0 -2.82167e+08 -4.70897e+08 -0 -7.25336e+06 -0 -0 -4.15482e+07 3.86242e+08 1.83051e+08 -2.11013e+07 -8.46548e+07
2 2 0 0 0 -1.25463e+09 -2.12859e+08 -0 -1.8466e+08 -0 -0 -1.16602e+09 5.57442e+09 6.26974e+07 2.39051e+08 -5.47724e+06
3 2 0.5 0 0 -1.2164e+09 -2.58038e+08 -0 1.77406e+08 -0 -0 -1.19932e+09 5.5459e+09 1.20354e+08 -2.60152e+08 -7.91775e+07
ITEM: TIMESTEP
11
ITEM: NUMBER OF ATOMS
3
ITEM: BOX BOUNDS xy xz yz pp pp pp
0.0000000000000000e+00 5.5500000000000000e+01 5.5000000000000000e+00
0.0000000000000000e+00 5.0000000000000000e+01 0.0000000000000000e+00
0.0000000000000000e+00 5.0000000000000000e+01 0.0000000000000000e+00
ITEM: ATOMS id type x y z c_1[1] c_1[2] c_1[3] c_1[4] c_1[5] c_1[6] c_1[7] c_1[8] c_1[13] c_1[15] c_1[22]
1 2 0.285369 0.321535 0 -2.81723e+08 -4.71123e+08 -0 -8.10936e+06 -0 -0 -4.0203e+07 3.84984e+08 1.84241e+08 -2.32761e+07 -8.61386e+07
2 2 0 0 0 -1.25277e+09 -2.1048e+08 -0 -1.84701e+08 -0 -0 -1.20323e+09 5.61728e+09 6.00895e+07 2.3743e+08 -2.12971e+06
3 2 0.5 0 0 -1.21034e+09 -2.60643e+08 -0 1.76591e+08 -0 -0 -1.24016e+09 5.58557e+09 1.24152e+08 -2.60707e+08 -8.40089e+07
ITEM: TIMESTEP
12
ITEM: NUMBER OF ATOMS
3
ITEM: BOX BOUNDS xy xz yz pp pp pp
0.0000000000000000e+00 5.6000000000000000e+01 6.0000000000000000e+00
0.0000000000000000e+00 5.0000000000000000e+01 0.0000000000000000e+00
0.0000000000000000e+00 5.0000000000000000e+01 0.0000000000000000e+00
ITEM: ATOMS id type x y z c_1[1] c_1[2] c_1[3] c_1[4] c_1[5] c_1[6] c_1[7] c_1[8] c_1[13] c_1[15] c_1[22]
1 2 0.288584 0.321535 0 -2.81234e+08 -4.71371e+08 -0 -8.98102e+06 -0 -0 -3.87242e+07 3.83592e+08 1.8554e+08 -2.53991e+07 -8.77791e+07
2 2 0 0 0 -1.25037e+09 -2.08117e+08 -0 -1.84708e+08 -0 -0 -1.24447e+09 5.6637e+09 5.75365e+07 2.35773e+08 1.13654e+06
3 2 0.5 0 0 -1.20374e+09 -2.63254e+08 -0 1.75727e+08 -0 -0 -1.28498e+09 5.62878e+09 1.28003e+08 -2.61172e+08 -8.89156e+07
ITEM: TIMESTEP
13
ITEM: NUMBER OF ATOMS
3
ITEM: BOX BOUNDS xy xz yz pp pp pp
0.0000000000000000e+00 5.6500000000000000e+01 6.5000000000000000e+00
0.0000000000000000e+00 5.0000000000000000e+01 0.0000000000000000e+00
0.0000000000000000e+00 5.0000000000000000e+01 0.0000000000000000e+00
ITEM: ATOMS id type x y z c_1[1] c_1[2] c_1[3] c_1[4] c_1[5] c_1[6] c_1[7] c_1[8] c_1[13] c_1[15] c_1[22]
1 2 0.2918 0.321535 0 -2.80702e+08 -4.7164e+08 -0 -9.86987e+06 -0 -0 -3.71059e+07 3.82077e+08 1.86965e+08 -2.74656e+07 -8.95632e+07
2 2 0 0 0 -1.2474e+09 -2.05771e+08 -0 -1.84684e+08 -0 -0 -1.28966e+09 5.7134e+09 5.50455e+07 2.34089e+08 4.32815e+06
3 2 0.5 0 0 -1.19658e+09 -2.65869e+08 -0 1.74814e+08 -0 -0 -1.33374e+09 5.67528e+09 1.3192e+08 -2.61554e+08 -9.38913e+07
ITEM: TIMESTEP
14
ITEM: NUMBER OF ATOMS
3
ITEM: BOX BOUNDS xy xz yz pp pp pp
0.0000000000000000e+00 5.7000000000000000e+01 7.0000000000000000e+00
0.0000000000000000e+00 5.0000000000000000e+01 0.0000000000000000e+00
0.0000000000000000e+00 5.0000000000000000e+01 0.0000000000000000e+00
ITEM: ATOMS id type x y z c_1[1] c_1[2] c_1[3] c_1[4] c_1[5] c_1[6] c_1[7] c_1[8] c_1[13] c_1[15] c_1[22]
1 2 0.295015 0.321535 0 -2.80127e+08 -4.7193e+08 -0 -1.07773e+07 -0 -0 -3.5353e+07 3.80436e+08 1.88505e+08 -2.94688e+07 -9.14949e+07
2 2 0 0 0 -1.24381e+09 -2.03443e+08 -0 -1.84629e+08 -0 -0 -1.33877e+09 5.76608e+09 5.26124e+07 2.32376e+08 7.44291e+06
3 2 0.5 0 0 -1.18882e+09 -2.68488e+08 -0 1.73851e+08 -0 -0 -1.38638e+09 5.72474e+09 1.35892e+08 -2.61844e+08 -9.89378e+07
ITEM: TIMESTEP
15
ITEM: NUMBER OF ATOMS
3
ITEM: BOX BOUNDS xy xz yz pp pp pp
0.0000000000000000e+00 5.7500000000000000e+01 7.5000000000000000e+00
0.0000000000000000e+00 5.0000000000000000e+01 0.0000000000000000e+00
0.0000000000000000e+00 5.0000000000000000e+01 0.0000000000000000e+00
ITEM: ATOMS id type x y z c_1[1] c_1[2] c_1[3] c_1[4] c_1[5] c_1[6] c_1[7] c_1[8] c_1[13] c_1[15] c_1[22]
1 2 0.29823 0.321535 0 -2.79509e+08 -4.72241e+08 -0 -1.17049e+07 -0 -0 -3.34677e+07 3.78667e+08 1.90152e+08 -3.14016e+07 -9.35735e+07
2 2 0 0 0 -1.23956e+09 -2.01132e+08 -0 -1.84543e+08 -0 -0 -1.3917e+09 5.82137e+09 5.02363e+07 2.30635e+08 1.04812e+07
3 2 0.5 0 0 -1.18042e+09 -2.71109e+08 -0 1.72838e+08 -0 -0 -1.44281e+09 5.77681e+09 1.39916e+08 -2.62037e+08 -1.04055e+08
ITEM: TIMESTEP
16
ITEM: NUMBER OF ATOMS
3
ITEM: BOX BOUNDS xy xz yz pp pp pp
0.0000000000000000e+00 5.8000000000000000e+01 8.0000000000000000e+00
0.0000000000000000e+00 5.0000000000000000e+01 0.0000000000000000e+00
0.0000000000000000e+00 5.0000000000000000e+01 0.0000000000000000e+00
ITEM: ATOMS id type x y z c_1[1] c_1[2] c_1[3] c_1[4] c_1[5] c_1[6] c_1[7] c_1[8] c_1[13] c_1[15] c_1[22]
1 2 0.301446 0.321535 0 -2.7885e+08 -4.7257e+08 -0 -1.2654e+07 -0 -0 -3.14463e+07 3.76782e+08 1.91924e+08 -3.32642e+07 -9.57877e+07
2 2 0 0 0 -1.2346e+09 -1.98838e+08 -0 -1.84427e+08 -0 -0 -1.44836e+09 5.87886e+09 4.79204e+07 2.28874e+08 1.34471e+07
3 2 0.5 0 0 -1.17133e+09 -2.73732e+08 -0 1.71773e+08 -0 -0 -1.50294e+09 5.83107e+09 1.44004e+08 -2.62138e+08 -1.09235e+08
ITEM: TIMESTEP
17
ITEM: NUMBER OF ATOMS
3
ITEM: BOX BOUNDS xy xz yz pp pp pp
0.0000000000000000e+00 5.8500000000000000e+01 8.5000000000000000e+00
0.0000000000000000e+00 5.0000000000000000e+01 0.0000000000000000e+00
0.0000000000000000e+00 5.0000000000000000e+01 0.0000000000000000e+00
ITEM: ATOMS id type x y z c_1[1] c_1[2] c_1[3] c_1[4] c_1[5] c_1[6] c_1[7] c_1[8] c_1[13] c_1[15] c_1[22]
1 2 0.304661 0.321535 0 -2.78151e+08 -4.72918e+08 -0 -1.3626e+07 -0 -0 -2.92977e+07 3.74772e+08 1.93798e+08 -3.50503e+07 -9.81461e+07
2 2 0 0 0 -1.22889e+09 -1.96562e+08 -0 -1.84281e+08 -0 -0 -1.50863e+09 5.93808e+09 4.56567e+07 2.27086e+08 1.63351e+07
3 2 0.5 0 0 -1.1615e+09 -2.76356e+08 -0 1.70655e+08 -0 -0 -1.56664e+09 5.88706e+09 1.48141e+08 -2.62136e+08 -1.14481e+08
ITEM: TIMESTEP
18
ITEM: NUMBER OF ATOMS
3
ITEM: BOX BOUNDS xy xz yz pp pp pp
0.0000000000000000e+00 5.9000000000000000e+01 9.0000000000000000e+00
0.0000000000000000e+00 5.0000000000000000e+01 0.0000000000000000e+00
0.0000000000000000e+00 5.0000000000000000e+01 0.0000000000000000e+00
ITEM: ATOMS id type x y z c_1[1] c_1[2] c_1[3] c_1[4] c_1[5] c_1[6] c_1[7] c_1[8] c_1[13] c_1[15] c_1[22]
1 2 0.307876 0.321535 0 -2.77412e+08 -4.73284e+08 -0 -1.46223e+07 -0 -0 -2.70158e+07 3.72647e+08 1.95781e+08 -3.67446e+07 -1.00637e+08
2 2 0 0 0 -1.22236e+09 -1.94305e+08 -0 -1.84108e+08 -0 -0 -1.57236e+09 5.9985e+09 4.34549e+07 2.25282e+08 1.9155e+07
3 2 0.5 0 0 -1.15088e+09 -2.78979e+08 -0 1.69486e+08 -0 -0 -1.63377e+09 5.94423e+09 1.52326e+08 -2.62027e+08 -1.19792e+08
ITEM: TIMESTEP
19
ITEM: NUMBER OF ATOMS
3
ITEM: BOX BOUNDS xy xz yz pp pp pp
0.0000000000000000e+00 5.9500000000000000e+01 9.5000000000000000e+00
0.0000000000000000e+00 5.0000000000000000e+01 0.0000000000000000e+00
0.0000000000000000e+00 5.0000000000000000e+01 0.0000000000000000e+00
ITEM: ATOMS id type x y z c_1[1] c_1[2] c_1[3] c_1[4] c_1[5] c_1[6] c_1[7] c_1[8] c_1[13] c_1[15] c_1[22]
1 2 0.311092 0.321535 0 -2.76635e+08 -4.73666e+08 -0 -1.56443e+07 -0 -0 -2.46091e+07 3.70405e+08 1.97875e+08 -3.83622e+07 -1.03262e+08
2 2 0 0 0 -1.21498e+09 -1.92065e+08 -0 -1.83907e+08 -0 -0 -1.63937e+09 6.05949e+09 4.1303e+07 2.23455e+08 2.18976e+07
3 2 0.5 0 0 -1.13942e+09 -2.81601e+08 -0 1.68262e+08 -0 -0 -1.70413e+09 6.00197e+09 1.56572e+08 -2.61817e+08 -1.25159e+08
ITEM: TIMESTEP
20
ITEM: NUMBER OF ATOMS
3
ITEM: BOX BOUNDS xy xz yz pp pp pp
0.0000000000000000e+00 6.0000000000000000e+01 1.0000000000000000e+01
0.0000000000000000e+00 5.0000000000000000e+01 0.0000000000000000e+00
0.0000000000000000e+00 5.0000000000000000e+01 0.0000000000000000e+00
ITEM: ATOMS id type x y z c_1[1] c_1[2] c_1[3] c_1[4] c_1[5] c_1[6] c_1[7] c_1[8] c_1[13] c_1[15] c_1[22]
1 2 0.314307 0.321535 0 -2.7582e+08 -4.74065e+08 -0 -1.66932e+07 -0 -0 -2.20733e+07 3.68051e+08 2.00072e+08 -3.98795e+07 -1.06014e+08
2 2 0 0 0 -1.20667e+09 -1.89845e+08 -0 -1.83679e+08 -0 -0 -1.70943e+09 6.12037e+09 3.92102e+07 2.21615e+08 2.4573e+07
3 2 0.5 0 0 -1.12706e+09 -2.8422e+08 -0 1.66985e+08 -0 -0 -1.77751e+09 6.05958e+09 1.60861e+08 -2.61495e+08 -1.30587e+08
ITEM: TIMESTEP
21
ITEM: NUMBER OF ATOMS
3
ITEM: BOX BOUNDS xy xz yz pp pp pp
0.0000000000000000e+00 6.0500000000000000e+01 1.0500000000000000e+01
0.0000000000000000e+00 5.0000000000000000e+01 0.0000000000000000e+00
0.0000000000000000e+00 5.0000000000000000e+01 0.0000000000000000e+00
ITEM: ATOMS id type x y z c_1[1] c_1[2] c_1[3] c_1[4] c_1[5] c_1[6] c_1[7] c_1[8] c_1[13] c_1[15] c_1[22]
1 2 0.317522 0.321535 0 -2.7497e+08 -4.74478e+08 -0 -1.77704e+07 -0 -0 -1.94173e+07 3.65582e+08 2.02361e+08 -4.12998e+07 -1.08896e+08
2 2 0 0 0 -1.19737e+09 -1.87642e+08 -0 -1.83424e+08 -0 -0 -1.78227e+09 6.18033e+09 3.71678e+07 2.19757e+08 2.71744e+07
3 2 0.5 0 0 -1.11374e+09 -2.86836e+08 -0 1.65654e+08 -0 -0 -1.85362e+09 6.11628e+09 1.65193e+08 -2.61056e+08 -1.36071e+08
ITEM: TIMESTEP
22
ITEM: NUMBER OF ATOMS
3
ITEM: BOX BOUNDS xy xz yz pp pp pp
0.0000000000000000e+00 6.1000000000000000e+01 1.1000000000000000e+01
0.0000000000000000e+00 5.0000000000000000e+01 0.0000000000000000e+00
0.0000000000000000e+00 5.0000000000000000e+01 0.0000000000000000e+00
ITEM: ATOMS id type x y z c_1[1] c_1[2] c_1[3] c_1[4] c_1[5] c_1[6] c_1[7] c_1[8] c_1[13] c_1[15] c_1[22]
1 2 0.320738 0.321535 0 -2.74084e+08 -4.74906e+08 -0 -1.8877e+07 -0 -0 -1.66366e+07 3.6301e+08 2.0476e+08 -4.26216e+07 -1.11896e+08
2 2 0 0 0 -1.18702e+09 -1.85459e+08 -0 -1.83144e+08 -0 -0 -1.85757e+09 6.2385e+09 3.51803e+07 2.17886e+08 2.9708e+07
3 2 0.5 0 0 -1.09939e+09 -2.89447e+08 -0 1.64267e+08 -0 -0 -1.93215e+09 6.17117e+09 1.69579e+08 -2.60507e+08 -1.41604e+08
ITEM: TIMESTEP
23
ITEM: NUMBER OF ATOMS
3
ITEM: BOX BOUNDS xy xz yz pp pp pp
0.0000000000000000e+00 6.1500000000000000e+01 1.1500000000000000e+01
0.0000000000000000e+00 5.0000000000000000e+01 0.0000000000000000e+00
0.0000000000000000e+00 5.0000000000000000e+01 0.0000000000000000e+00
ITEM: ATOMS id type x y z c_1[1] c_1[2] c_1[3] c_1[4] c_1[5] c_1[6] c_1[7] c_1[8] c_1[13] c_1[15] c_1[22]
1 2 0.323953 0.321535 0 -2.73165e+08 -4.75346e+08 -0 -2.00143e+07 -0 -0 -1.3738e+07 3.6033e+08 2.07248e+08 -4.3835e+07 -1.15016e+08
2 2 0 0 0 -1.17557e+09 -1.83294e+08 -0 -1.82839e+08 -0 -0 -1.93493e+09 6.29385e+09 3.32439e+07 2.16001e+08 3.21717e+07
3 2 0.5 0 0 -1.08396e+09 -2.92052e+08 -0 1.62825e+08 -0 -0 -2.01269e+09 6.22325e+09 1.74004e+08 -2.59836e+08 -1.47188e+08
ITEM: TIMESTEP
24
ITEM: NUMBER OF ATOMS
3
ITEM: BOX BOUNDS xy xz yz pp pp pp
0.0000000000000000e+00 6.2000000000000000e+01 1.2000000000000000e+01
0.0000000000000000e+00 5.0000000000000000e+01 0.0000000000000000e+00
0.0000000000000000e+00 5.0000000000000000e+01 0.0000000000000000e+00
ITEM: ATOMS id type x y z c_1[1] c_1[2] c_1[3] c_1[4] c_1[5] c_1[6] c_1[7] c_1[8] c_1[13] c_1[15] c_1[22]
1 2 0.327168 0.321535 0 -2.72213e+08 -4.75798e+08 -0 -2.11834e+07 -0 -0 -1.07231e+07 3.57545e+08 2.09822e+08 -4.49348e+07 -1.18253e+08
2 2 0 0 0 -1.16293e+09 -1.81148e+08 -0 -1.8251e+08 -0 -0 -2.01388e+09 6.34527e+09 3.13587e+07 2.14105e+08 3.45673e+07
3 2 0.5 0 0 -1.06738e+09 -2.9465e+08 -0 1.61327e+08 -0 -0 -2.09478e+09 6.27139e+09 1.78464e+08 -2.5904e+08 -1.5282e+08
ITEM: TIMESTEP
25
ITEM: NUMBER OF ATOMS
3
ITEM: BOX BOUNDS xy xz yz pp pp pp
0.0000000000000000e+00 6.2500000000000000e+01 1.2500000000000000e+01
0.0000000000000000e+00 5.0000000000000000e+01 0.0000000000000000e+00
0.0000000000000000e+00 5.0000000000000000e+01 0.0000000000000000e+00
ITEM: ATOMS id type x y z c_1[1] c_1[2] c_1[3] c_1[4] c_1[5] c_1[6] c_1[7] c_1[8] c_1[13] c_1[15] c_1[22]
1 2 0.330384 0.321535 0 -2.7123e+08 -4.7626e+08 -0 -2.23854e+07 -0 -0 -7.59194e+06 3.54664e+08 2.12494e+08 -4.59221e+07 -1.21596e+08
2 2 0 0 0 -1.14905e+09 -1.79021e+08 -0 -1.82158e+08 -0 -0 -2.09386e+09 6.39148e+09 2.9525e+07 2.122e+08 3.6897e+07
3 2 0.5 0 0 -1.04958e+09 -2.97239e+08 -0 1.59772e+08 -0 -0 -2.17785e+09 6.31431e+09 1.82969e+08 -2.58122e+08 -1.58493e+08
ITEM: TIMESTEP
26
ITEM: NUMBER OF ATOMS
3
ITEM: BOX BOUNDS xy xz yz pp pp pp
0.0000000000000000e+00 6.3000000000000000e+01 1.3000000000000000e+01
0.0000000000000000e+00 5.0000000000000000e+01 0.0000000000000000e+00
0.0000000000000000e+00 5.0000000000000000e+01 0.0000000000000000e+00
ITEM: ATOMS id type x y z c_1[1] c_1[2] c_1[3] c_1[4] c_1[5] c_1[6] c_1[7] c_1[8] c_1[13] c_1[15] c_1[22]
1 2 0.333599 0.321535 0 -2.70218e+08 -4.76732e+08 -0 -2.36215e+07 -0 -0 -4.35152e+06 3.51684e+08 2.15247e+08 -4.67905e+07 -1.25048e+08
2 2 0 0 0 -1.13386e+09 -1.76913e+08 -0 -1.81782e+08 -0 -0 -2.1742e+09 6.43106e+09 2.77389e+07 2.10285e+08 3.91585e+07
3 2 0.5 0 0 -1.03051e+09 -2.99819e+08 -0 1.58161e+08 -0 -0 -2.26124e+09 6.3506e+09 1.87508e+08 -2.57075e+08 -1.64206e+08
ITEM: TIMESTEP
27
ITEM: NUMBER OF ATOMS
3
ITEM: BOX BOUNDS xy xz yz pp pp pp
0.0000000000000000e+00 6.3500000000000000e+01 1.3500000000000000e+01
0.0000000000000000e+00 5.0000000000000000e+01 0.0000000000000000e+00
0.0000000000000000e+00 5.0000000000000000e+01 0.0000000000000000e+00
ITEM: ATOMS id type x y z c_1[1] c_1[2] c_1[3] c_1[4] c_1[5] c_1[6] c_1[7] c_1[8] c_1[13] c_1[15] c_1[22]
1 2 0.336814 0.321535 0 -2.69178e+08 -4.77212e+08 -0 -2.48927e+07 -0 -0 -999398 3.48613e+08 2.18079e+08 -4.75296e+07 -1.28599e+08
2 2 0 0 0 -1.11731e+09 -1.74825e+08 -0 -1.81384e+08 -0 -0 -2.25413e+09 6.46241e+09 2.60045e+07 2.08365e+08 4.13579e+07
3 2 0.5 0 0 -1.01011e+09 -3.02387e+08 -0 1.56492e+08 -0 -0 -2.34416e+09 6.37866e+09 1.92074e+08 -2.55894e+08 -1.69956e+08
ITEM: TIMESTEP
28
ITEM: NUMBER OF ATOMS
3
ITEM: BOX BOUNDS xy xz yz pp pp pp
0.0000000000000000e+00 6.4000000000000000e+01 1.4000000000000000e+01
0.0000000000000000e+00 5.0000000000000000e+01 0.0000000000000000e+00
0.0000000000000000e+00 5.0000000000000000e+01 0.0000000000000000e+00
ITEM: ATOMS id type x y z c_1[1] c_1[2] c_1[3] c_1[4] c_1[5] c_1[6] c_1[7] c_1[8] c_1[13] c_1[15] c_1[22]
1 2 0.34003 0.321535 0 -2.68111e+08 -4.77698e+08 -0 -2.61999e+07 -0 -0 2.45476e+06 3.4545e+08 2.20988e+08 -4.81462e+07 -1.32248e+08
2 2 0 0 0 -1.09934e+09 -1.72755e+08 -0 -1.80965e+08 -0 -0 -2.3327e+09 6.48377e+09 2.43144e+07 2.06435e+08 4.34894e+07
3 2 0.5 0 0 -9.88319e+08 -3.04943e+08 -0 1.54765e+08 -0 -0 -2.42569e+09 6.39673e+09 1.96673e+08 -2.54581e+08 -1.75738e+08
ITEM: TIMESTEP
29
ITEM: NUMBER OF ATOMS
3
ITEM: BOX BOUNDS xy xz yz pp pp pp
0.0000000000000000e+00 6.4500000000000000e+01 1.4500000000000000e+01
0.0000000000000000e+00 5.0000000000000000e+01 0.0000000000000000e+00
0.0000000000000000e+00 5.0000000000000000e+01 0.0000000000000000e+00
ITEM: ATOMS id type x y z c_1[1] c_1[2] c_1[3] c_1[4] c_1[5] c_1[6] c_1[7] c_1[8] c_1[13] c_1[15] c_1[22]
1 2 0.343245 0.321535 0 -2.67019e+08 -4.7819e+08 -0 -2.7544e+07 -0 -0 6.01698e+06 3.42206e+08 2.23977e+08 -4.86276e+07 -1.35984e+08
2 2 0 0 0 -1.07989e+09 -1.70705e+08 -0 -1.80524e+08 -0 -0 -2.40883e+09 6.49318e+09 2.26756e+07 2.04504e+08 4.55624e+07
3 2 0.5 0 0 -9.65097e+08 -3.07485e+08 -0 1.5298e+08 -0 -0 -2.50472e+09 6.40285e+09 2.01301e+08 -2.53132e+08 -1.81547e+08
ITEM: TIMESTEP
30
ITEM: NUMBER OF ATOMS
3
ITEM: BOX BOUNDS xy xz yz pp pp pp
0.0000000000000000e+00 6.5000000000000000e+01 1.5000000000000000e+01
0.0000000000000000e+00 5.0000000000000000e+01 0.0000000000000000e+00
0.0000000000000000e+00 5.0000000000000000e+01 0.0000000000000000e+00
ITEM: ATOMS id type x y z c_1[1] c_1[2] c_1[3] c_1[4] c_1[5] c_1[6] c_1[7] c_1[8] c_1[13] c_1[15] c_1[22]
1 2 0.34646 0.321535 0 -2.65904e+08 -4.78686e+08 -0 -2.8926e+07 -0 -0 9.67248e+06 3.38874e+08 2.27025e+08 -4.89761e+07 -1.39813e+08
2 2 0 0 0 -1.05894e+09 -1.68674e+08 -0 -1.80063e+08 -0 -0 -2.48124e+09 6.48847e+09 2.10782e+07 2.02565e+08 4.75679e+07
3 2 0.5 0 0 -9.40405e+08 -3.10012e+08 -0 1.51137e+08 -0 -0 -2.57998e+09 6.39486e+09 2.05947e+08 -2.51541e+08 -1.87381e+08
ITEM: TIMESTEP
31
ITEM: NUMBER OF ATOMS
3
ITEM: BOX BOUNDS xy xz yz pp pp pp
0.0000000000000000e+00 6.5500000000000000e+01 1.5500000000000000e+01
0.0000000000000000e+00 5.0000000000000000e+01 0.0000000000000000e+00
0.0000000000000000e+00 5.0000000000000000e+01 0.0000000000000000e+00
ITEM: ATOMS id type x y z c_1[1] c_1[2] c_1[3] c_1[4] c_1[5] c_1[6] c_1[7] c_1[8] c_1[13] c_1[15] c_1[22]
1 2 0.349676 0.321535 0 -2.64767e+08 -4.79185e+08 -0 -3.03467e+07 -0 -0 1.3431e+07 3.35469e+08 2.30141e+08 -4.91781e+07 -1.43716e+08
2 2 0 0 0 -1.03646e+09 -1.66663e+08 -0 -1.79583e+08 -0 -0 -2.54842e+09 6.46726e+09 1.95316e+07 2.00628e+08 4.95185e+07
3 2 0.5 0 0 -9.1422e+08 -3.12522e+08 -0 1.49236e+08 -0 -0 -2.64997e+09 6.37037e+09 2.10609e+08 -2.49806e+08 -1.93234e+08
ITEM: TIMESTEP
32
ITEM: NUMBER OF ATOMS
3
ITEM: BOX BOUNDS xy xz yz pp pp pp
0.0000000000000000e+00 6.6000000000000000e+01 1.6000000000000000e+01
0.0000000000000000e+00 5.0000000000000000e+01 0.0000000000000000e+00
0.0000000000000000e+00 5.0000000000000000e+01 0.0000000000000000e+00
ITEM: ATOMS id type x y z c_1[1] c_1[2] c_1[3] c_1[4] c_1[5] c_1[6] c_1[7] c_1[8] c_1[13] c_1[15] c_1[22]
1 2 0.352891 0.321535 0 -2.63611e+08 -4.79685e+08 -0 -3.18068e+07 -0 -0 1.72761e+07 3.31987e+08 2.33321e+08 -4.9247e+07 -1.47698e+08
2 2 0 0 0 -1.01244e+09 -1.6467e+08 -0 -1.79083e+08 -0 -0 -2.60864e+09 6.42695e+09 1.80245e+07 1.98685e+08 5.14033e+07
3 2 0.5 0 0 -8.86536e+08 -3.15014e+08 -0 1.47276e+08 -0 -0 -2.71295e+09 6.32679e+09 2.15297e+08 -2.47932e+08 -1.99101e+08
ITEM: TIMESTEP
33
ITEM: NUMBER OF ATOMS
3
ITEM: BOX BOUNDS xy xz yz pp pp pp
0.0000000000000000e+00 6.6500000000000000e+01 1.6500000000000000e+01
0.0000000000000000e+00 5.0000000000000000e+01 0.0000000000000000e+00
0.0000000000000000e+00 5.0000000000000000e+01 0.0000000000000000e+00
ITEM: ATOMS id type x y z c_1[1] c_1[2] c_1[3] c_1[4] c_1[5] c_1[6] c_1[7] c_1[8] c_1[13] c_1[15] c_1[22]
1 2 0.356106 0.321535 0 -2.62436e+08 -4.80184e+08 -0 -3.3307e+07 -0 -0 2.12164e+07 3.2844e+08 2.36558e+08 -4.91629e+07 -1.51744e+08
2 2 0 0 0 -9.86887e+08 -1.62697e+08 -0 -1.78564e+08 -0 -0 -2.65986e+09 6.36472e+09 1.65657e+07 1.96745e+08 5.32344e+07
3 2 0.5 0 0 -8.57367e+08 -3.17487e+08 -0 1.45257e+08 -0 -0 -2.76689e+09 6.26129e+09 2.19992e+08 -2.45908e+08 -2.04979e+08
ITEM: TIMESTEP
34
ITEM: NUMBER OF ATOMS
3
ITEM: BOX BOUNDS xy xz yz pp pp pp
0.0000000000000000e+00 6.7000000000000000e+01 1.7000000000000000e+01
0.0000000000000000e+00 5.0000000000000000e+01 0.0000000000000000e+00
0.0000000000000000e+00 5.0000000000000000e+01 0.0000000000000000e+00
ITEM: ATOMS id type x y z c_1[1] c_1[2] c_1[3] c_1[4] c_1[5] c_1[6] c_1[7] c_1[8] c_1[13] c_1[15] c_1[22]
1 2 0.359322 0.321535 0 -2.61248e+08 -4.80685e+08 -0 -3.48512e+07 -0 -0 2.88678e+07 3.2122e+08 2.36898e+08 -5.22365e+07 -1.59522e+08
2 2 0 0 0 -9.59853e+08 -1.60747e+08 -0 -1.7803e+08 -0 -0 -2.69615e+09 6.27393e+09 1.22062e+07 1.91497e+08 5.13401e+07
3 2 0.5 0 0 -8.26757e+08 -3.19938e+08 -0 1.43179e+08 -0 -0 -2.80947e+09 6.17086e+09 2.24691e+08 -2.43733e+08 -2.10862e+08
ITEM: TIMESTEP
35
ITEM: NUMBER OF ATOMS
3
ITEM: BOX BOUNDS xy xz yz pp pp pp
0.0000000000000000e+00 6.7500000000000000e+01 1.7500000000000000e+01
0.0000000000000000e+00 5.0000000000000000e+01 0.0000000000000000e+00
0.0000000000000000e+00 5.0000000000000000e+01 0.0000000000000000e+00
ITEM: ATOMS id type x y z c_1[1] c_1[2] c_1[3] c_1[4] c_1[5] c_1[6] c_1[7] c_1[8] c_1[13] c_1[15] c_1[22]
1 2 0.362537 0.321535 0 -2.60419e+08 -4.81481e+08 -0 -3.67714e+07 -0 -0 1.08035e+08 2.45646e+08 1.82405e+08 -1.18919e+08 -2.38976e+08
2 2 0 0 0 -9.3178e+08 -1.59114e+08 -0 -1.77814e+08 -0 -0 -2.64699e+09 6.08666e+09 -4.69916e+07 1.22489e+08 -2.223e+07
3 2 0.5 0 0 -7.94778e+08 -3.22367e+08 -0 1.41042e+08 -0 -0 -2.83801e+09 6.05226e+09 2.29396e+08 -2.41408e+08 -2.16746e+08
ITEM: TIMESTEP
36
ITEM: NUMBER OF ATOMS
3
ITEM: BOX BOUNDS xy xz yz pp pp pp
0.0000000000000000e+00 6.8000000000000000e+01 1.8000000000000000e+01
0.0000000000000000e+00 5.0000000000000000e+01 0.0000000000000000e+00
0.0000000000000000e+00 5.0000000000000000e+01 0.0000000000000000e+00
ITEM: ATOMS id type x y z c_1[1] c_1[2] c_1[3] c_1[4] c_1[5] c_1[6] c_1[7] c_1[8] c_1[13] c_1[15] c_1[22]
1 2 0.365752 0.321535 0 -2.60914e+08 -4.83312e+08 -0 -3.99123e+07 -0 -0 2.68858e+08 9.9572e+07 7.35388e+07 -2.54588e+08 -3.98816e+08
2 2 0 0 0 -9.03742e+08 -1.58541e+08 -0 -1.78759e+08 -0 -0 -2.4992e+09 5.79739e+09 -1.60567e+08 -1.5656e+07 -1.76194e+08
3 2 0.5 0 0 -7.61547e+08 -3.24771e+08 -0 1.38846e+08 -0 -0 -2.84944e+09 5.90211e+09 2.34106e+08 -2.38932e+08 -2.22623e+08
ITEM: TIMESTEP
37
ITEM: NUMBER OF ATOMS
3
ITEM: BOX BOUNDS xy xz yz pp pp pp
0.0000000000000000e+00 6.8500000000000000e+01 1.8500000000000000e+01
0.0000000000000000e+00 5.0000000000000000e+01 0.0000000000000000e+00
0.0000000000000000e+00 5.0000000000000000e+01 0.0000000000000000e+00
ITEM: ATOMS id type x y z c_1[1] c_1[2] c_1[3] c_1[4] c_1[5] c_1[6] c_1[7] c_1[8] c_1[13] c_1[15] c_1[22]
1 2 0.368968 0.321535 0 -2.63577e+08 -4.86774e+08 -0 -4.49843e+07 -0 -0 4.93045e+08 -9.17477e+07 -6.79669e+07 -4.39028e+08 -6.18722e+08
2 2 0 0 0 -8.76743e+08 -1.59624e+08 -0 -1.81576e+08 -0 -0 -2.26759e+09 5.42786e+09 -3.06774e+08 -2.02729e+08 -3.90233e+08
3 2 0.5 0 0 -7.27226e+08 -3.27149e+08 -0 1.36592e+08 -0 -0 -2.8403e+09 5.71693e+09 2.38807e+08 -2.36299e+08 -2.2849e+08
ITEM: TIMESTEP
38
ITEM: NUMBER OF ATOMS
3
ITEM: BOX BOUNDS xy xz yz pp pp pp
0.0000000000000000e+00 6.9000000000000000e+01 1.9000000000000000e+01
0.0000000000000000e+00 5.0000000000000000e+01 0.0000000000000000e+00
0.0000000000000000e+00 5.0000000000000000e+01 0.0000000000000000e+00
ITEM: ATOMS id type x y z c_1[1] c_1[2] c_1[3] c_1[4] c_1[5] c_1[6] c_1[7] c_1[8] c_1[13] c_1[15] c_1[22]
1 2 0.372183 0.321535 0 -2.69063e+08 -4.92275e+08 -0 -5.25087e+07 -0 -0 7.64685e+08 -3.07115e+08 -2.24768e+08 -6.54946e+08 -8.80724e+08
2 2 0 0 0 -8.51655e+08 -1.62774e+08 -0 -1.86787e+08 -0 -0 -1.9642e+09 4.99579e+09 -4.68264e+08 -4.21438e+08 -6.46383e+08
3 2 0.5 0 0 -6.92034e+08 -3.295e+08 -0 1.34278e+08 -0 -0 -2.80672e+09 5.49323e+09 2.43496e+08 -2.33508e+08 -2.34341e+08
ITEM: TIMESTEP
39
ITEM: NUMBER OF ATOMS
3
ITEM: BOX BOUNDS xy xz yz pp pp pp
0.0000000000000000e+00 6.9500000000000000e+01 1.9500000000000000e+01
0.0000000000000000e+00 5.0000000000000000e+01 0.0000000000000000e+00