ITEM: TIMESTEP
0
ITEM: NUMBER OF ATOMS
3
ITEM: BOX BOUNDS xy xz yz pp pp pp
0.0000000000000000e+00 5.0000000000000000e+01 0.0000000000000000e+00
0.0000000000000000e+00 5.0000000000000000e+01 0.0000000000000000e+00
0.0000000000000000e+00 5.0000000000000000e+01 0.0000000000000000e+00
ITEM: ATOMS id type x y z c_1[1] c_1[2] c_1[3] c_1[4] c_1[5] c_1[6] c_1[7] c_1[22]
1 2 0.378614 0.321535 0 -2.94271e+08 -5.15906e+08 -0 -9.0376e+07 -0 -0 1.20613e+09 -1.73305e+09
2 2 0 0 0 -7.69899e+08 -1.83365e+08 -0 -2.07119e+08 -0 -0 -1.78994e+09 -1.48477e+09
3 2 0.5 0 0 -5.66838e+08 -3.3254e+08 -0 1.29599e+08 -0 -0 -3.06684e+09 -2.48282e+08
ITEM: TIMESTEP
1
ITEM: NUMBER OF ATOMS
3
ITEM: BOX BOUNDS xy xz yz pp pp pp
0.0000000000000000e+00 5.0000500000000002e+01 5.0000000000238742e-04
0.0000000000000000e+00 5.0000000000000000e+01 0.0000000000000000e+00
0.0000000000000000e+00 5.0000000000000000e+01 0.0000000000000000e+00
ITEM: ATOMS id type x y z c_1[1] c_1[2] c_1[3] c_1[4] c_1[5] c_1[6] c_1[7] c_1[22]
1 2 0.378617 0.321535 0 -2.94271e+08 -5.15906e+08 -0 -9.0376e+07 -0 -0 1.20613e+09 -1.73322e+09
2 2 0 0 0 -7.69899e+08 -1.83365e+08 -0 -2.07119e+08 -0 -0 -1.78994e+09 -1.48494e+09
3 2 0.5 0 0 -5.66838e+08 -3.3254e+08 -0 1.29599e+08 -0 -0 -3.06684e+09 -2.48282e+08
ITEM: TIMESTEP
2
ITEM: NUMBER OF ATOMS
3
ITEM: BOX BOUNDS xy xz yz pp pp pp
0.0000000000000000e+00 5.0000999999999998e+01 9.9999999999766942e-04
0.0000000000000000e+00 5.0000000000000000e+01 0.0000000000000000e+00
0.0000000000000000e+00 5.0000000000000000e+01 0.0000000000000000e+00
ITEM: ATOMS id type x y z c_1[1] c_1[2] c_1[3] c_1[4] c_1[5] c_1[6] c_1[7] c_1[22]
1 2 0.37862 0.321535 0 -2.94288e+08 -5.15919e+08 -0 -9.03929e+07 -0 -0 1.20632e+09 -1.73333e+09
2 2 0 0 0 -7.69886e+08 -1.83376e+08 -0 -2.07133e+08 -0 -0 -1.78953e+09 -1.48504e+09
3 2 0.5 0 0 -5.66804e+08 -3.32542e+08 -0 1.29597e+08 -0 -0 -3.06662e+09 -2.48287e+08
ITEM: TIMESTEP
3
ITEM: NUMBER OF ATOMS
3
ITEM: BOX BOUNDS xy xz yz pp pp pp
0.0000000000000000e+00 5.0001500000000000e+01 1.5000000000000568e-03
0.0000000000000000e+00 5.0000000000000000e+01 0.0000000000000000e+00
0.0000000000000000e+00 5.0000000000000000e+01 0.0000000000000000e+00
ITEM: ATOMS id type x y z c_1[1] c_1[2] c_1[3] c_1[4] c_1[5] c_1[6] c_1[7] c_1[22]
1 2 0.378624 0.321535 0 -2.94305e+08 -5.15931e+08 -0 -9.04098e+07 -0 -0 1.20652e+09 -1.73361e+09
2 2 0 0 0 -7.69874e+08 -1.83387e+08 -0 -2.07148e+08 -0 -0 -1.78911e+09 -1.48532e+09
3 2 0.5 0 0 -5.6677e+08 -3.32544e+08 -0 1.29594e+08 -0 -0 -3.06639e+09 -2.48291e+08
ITEM: TIMESTEP
4
ITEM: NUMBER OF ATOMS
3
ITEM: BOX BOUNDS xy xz yz pp pp pp
0.0000000000000000e+00 5.0002000000000002e+01 2.0000000000024443e-03
0.0000000000000000e+00 5.0000000000000000e+01 0.0000000000000000e+00
0.0000000000000000e+00 5.0000000000000000e+01 0.0000000000000000e+00
ITEM: ATOMS id type x y z c_1[1] c_1[2] c_1[3] c_1[4] c_1[5] c_1[6] c_1[7] c_1[22]
1 2 0.378627 0.321535 0 -2.94322e+08 -5.15944e+08 -0 -9.04267e+07 -0 -0 1.20672e+09 -1.73389e+09
2 2 0 0 0 -7.69861e+08 -1.83397e+08 -0 -2.07162e+08 -0 -0 -1.78869e+09 -1.48559e+09
3 2 0.5 0 0 -5.66737e+08 -3.32547e+08 -0 1.29592e+08 -0 -0 -3.06617e+09 -2.48296e+08
ITEM: TIMESTEP
5
ITEM: NUMBER OF ATOMS
3
ITEM: BOX BOUNDS xy xz yz pp pp pp
0.0000000000000000e+00 5.0002499999999998e+01 2.4999999999977263e-03
0.0000000000000000e+00 5.0000000000000000e+01 0.0000000000000000e+00
0.0000000000000000e+00 5.0000000000000000e+01 0.0000000000000000e+00
ITEM: ATOMS id type x y z c_1[1] c_1[2] c_1[3] c_1[4] c_1[5] c_1[6] c_1[7] c_1[22]
1 2 0.37863 0.321535 0 -2.94339e+08 -5.15957e+08 -0 -9.04436e+07 -0 -0 1.20691e+09 -1.73417e+09
2 2 0 0 0 -7.69849e+08 -1.83408e+08 -0 -2.07177e+08 -0 -0 -1.78827e+09 -1.48586e+09
3 2 0.5 0 0 -5.66703e+08 -3.32549e+08 -0 1.29589e+08 -0 -0 -3.06595e+09 -2.48301e+08
ITEM: TIMESTEP
6
ITEM: NUMBER OF ATOMS
3
ITEM: BOX BOUNDS xy xz yz pp pp pp
0.0000000000000000e+00 5.0003000000000000e+01 3.0000000000001137e-03
0.0000000000000000e+00 5.0000000000000000e+01 0.0000000000000000e+00
0.0000000000000000e+00 5.0000000000000000e+01 0.0000000000000000e+00
ITEM: ATOMS id type x y z c_1[1] c_1[2] c_1[3] c_1[4] c_1[5] c_1[6] c_1[7] c_1[22]
1 2 0.378633 0.321535 0 -2.94356e+08 -5.1597e+08 -0 -9.04606e+07 -0 -0 1.20711e+09 -1.73444e+09
2 2 0 0 0 -7.69837e+08 -1.83419e+08 -0 -2.07191e+08 -0 -0 -1.78785e+09 -1.48614e+09
3 2 0.5 0 0 -5.66669e+08 -3.32551e+08 -0 1.29587e+08 -0 -0 -3.06572e+09 -2.48306e+08
ITEM: TIMESTEP
7
ITEM: NUMBER OF ATOMS
3
ITEM: BOX BOUNDS xy xz yz pp pp pp
0.0000000000000000e+00 5.0003500000000003e+01 3.5000000000025011e-03
0.0000000000000000e+00 5.0000000000000000e+01 0.0000000000000000e+00
0.0000000000000000e+00 5.0000000000000000e+01 0.0000000000000000e+00
ITEM: ATOMS id type x y z c_1[1] c_1[2] c_1[3] c_1[4] c_1[5] c_1[6] c_1[7] c_1[22]
1 2 0.378637 0.321535 0 -2.94374e+08 -5.15982e+08 -0 -9.04775e+07 -0 -0 1.2073e+09 -1.73472e+09
2 2 0 0 0 -7.69824e+08 -1.83429e+08 -0 -2.07206e+08 -0 -0 -1.78744e+09 -1.48641e+09
3 2 0.5 0 0 -5.66635e+08 -3.32553e+08 -0 1.29585e+08 -0 -0 -3.0655e+09 -2.4831e+08
ITEM: TIMESTEP
8
ITEM: NUMBER OF ATOMS
3
ITEM: BOX BOUNDS xy xz yz pp pp pp
0.0000000000000000e+00 5.0003999999999998e+01 3.9999999999977831e-03
0.0000000000000000e+00 5.0000000000000000e+01 0.0000000000000000e+00
0.0000000000000000e+00 5.0000000000000000e+01 0.0000000000000000e+00
ITEM: ATOMS id type x y z c_1[1] c_1[2] c_1[3] c_1[4] c_1[5] c_1[6] c_1[7] c_1[22]
1 2 0.37864 0.321535 0 -2.94391e+08 -5.15995e+08 -0 -9.04944e+07 -0 -0 1.2075e+09 -1.735e+09
2 2 0 0 0 -7.69812e+08 -1.8344e+08 -0 -2.0722e+08 -0 -0 -1.78702e+09 -1.48669e+09
3 2 0.5 0 0 -5.66602e+08 -3.32555e+08 -0 1.29582e+08 -0 -0 -3.06527e+09 -2.48315e+08
ITEM: TIMESTEP
9
ITEM: NUMBER OF ATOMS
3
ITEM: BOX BOUNDS xy xz yz pp pp pp
0.0000000000000000e+00 5.0004500000000000e+01 4.5000000000001705e-03
0.0000000000000000e+00 5.0000000000000000e+01 0.0000000000000000e+00
0.0000000000000000e+00 5.0000000000000000e+01 0.0000000000000000e+00
ITEM: ATOMS id type x y z c_1[1] c_1[2] c_1[3] c_1[4] c_1[5] c_1[6] c_1[7] c_1[22]
1 2 0.378643 0.321535 0 -2.94408e+08 -5.16008e+08 -0 -9.05114e+07 -0 -0 1.20769e+09 -1.73528e+09
2 2 0 0 0 -7.698e+08 -1.83451e+08 -0 -2.07235e+08 -0 -0 -1.7866e+09 -1.48696e+09
3 2 0.5 0 0 -5.66568e+08 -3.32557e+08 -0 1.2958e+08 -0 -0 -3.06504e+09 -2.4832e+08
ITEM: TIMESTEP
10
ITEM: NUMBER OF ATOMS
3
ITEM: BOX BOUNDS xy xz yz pp pp pp
0.0000000000000000e+00 5.0005000000000003e+01 5.0000000000025580e-03
0.0000000000000000e+00 5.0000000000000000e+01 0.0000000000000000e+00
0.0000000000000000e+00 5.0000000000000000e+01 0.0000000000000000e+00
ITEM: ATOMS id type x y z c_1[1] c_1[2] c_1[3] c_1[4] c_1[5] c_1[6] c_1[7] c_1[22]
1 2 0.378646 0.321535 0 -2.94425e+08 -5.16021e+08 -0 -9.05283e+07 -0 -0 1.20789e+09 -1.73556e+09
2 2 0 0 0 -7.69787e+08 -1.83462e+08 -0 -2.07249e+08 -0 -0 -1.78618e+09 -1.48724e+09
3 2 0.5 0 0 -5.66534e+08 -3.32559e+08 -0 1.29577e+08 -0 -0 -3.06482e+09 -2.48325e+08
ITEM: TIMESTEP
11
ITEM: NUMBER OF ATOMS
3
ITEM: BOX BOUNDS xy xz yz pp pp pp
0.0000000000000000e+00 5.0005499999999998e+01 5.4999999999978400e-03
0.0000000000000000e+00 5.0000000000000000e+01 0.0000000000000000e+00
0.0000000000000000e+00 5.0000000000000000e+01 0.0000000000000000e+00
ITEM: ATOMS id type x y z c_1[1] c_1[2] c_1[3] c_1[4] c_1[5] c_1[6] c_1[7] c_1[22]
1 2 0.378649 0.321535 0 -2.94442e+08 -5.16034e+08 -0 -9.05452e+07 -0 -0 1.20808e+09 -1.73584e+09
2 2 0 0 0 -7.69775e+08 -1.83472e+08 -0 -2.07264e+08 -0 -0 -1.78576e+09 -1.48751e+09
3 2 0.5 0 0 -5.665e+08 -3.32561e+08 -0 1.29575e+08 -0 -0 -3.06459e+09 -2.48329e+08
ITEM: TIMESTEP
12
ITEM: NUMBER OF ATOMS
3
ITEM: BOX BOUNDS xy xz yz pp pp pp
0.0000000000000000e+00 5.0006000000000000e+01 6.0000000000002274e-03
0.0000000000000000e+00 5.0000000000000000e+01 0.0000000000000000e+00
0.0000000000000000e+00 5.0000000000000000e+01 0.0000000000000000e+00
ITEM: ATOMS id type x y z c_1[1] c_1[2] c_1[3] c_1[4] c_1[5] c_1[6] c_1[7] c_1[22]
1 2 0.378653 0.321535 0 -2.9446e+08 -5.16047e+08 -0 -9.05622e+07 -0 -0 1.20828e+09 -1.73612e+09
2 2 0 0 0 -7.69762e+08 -1.83483e+08 -0 -2.07278e+08 -0 -0 -1.78535e+09 -1.48778e+09
3 2 0.5 0 0 -5.66467e+08 -3.32564e+08 -0 1.29573e+08 -0 -0 -3.06437e+09 -2.48334e+08
ITEM: TIMESTEP
13
ITEM: NUMBER OF ATOMS
3
ITEM: BOX BOUNDS xy xz yz pp pp pp
0.0000000000000000e+00 5.0006500000000003e+01 6.5000000000026148e-03
0.0000000000000000e+00 5.0000000000000000e+01 0.0000000000000000e+00
0.0000000000000000e+00 5.0000000000000000e+01 0.0000000000000000e+00
ITEM: ATOMS id type x y z c_1[1] c_1[2] c_1[3] c_1[4] c_1[5] c_1[6] c_1[7] c_1[22]
1 2 0.378656 0.321535 0 -2.94477e+08 -5.16059e+08 -0 -9.05791e+07 -0 -0 1.20847e+09 -1.7364e+09
2 2 0 0 0 -7.6975e+08 -1.83494e+08 -0 -2.07292e+08 -0 -0 -1.78493e+09 -1.48806e+09
3 2 0.5 0 0 -5.66433e+08 -3.32566e+08 -0 1.2957e+08 -0 -0 -3.06414e+09 -2.48339e+08
ITEM: TIMESTEP
14
ITEM: NUMBER OF ATOMS
3
ITEM: BOX BOUNDS xy xz yz pp pp pp
0.0000000000000000e+00 5.0006999999999998e+01 6.9999999999978968e-03
0.0000000000000000e+00 5.0000000000000000e+01 0.0000000000000000e+00
0.0000000000000000e+00 5.0000000000000000e+01 0.0000000000000000e+00
ITEM: ATOMS id type x y z c_1[1] c_1[2] c_1[3] c_1[4] c_1[5] c_1[6] c_1[7] c_1[22]
1 2 0.378659 0.321535 0 -2.94494e+08 -5.16072e+08 -0 -9.05961e+07 -0 -0 1.20867e+09 -1.73667e+09
2 2 0 0 0 -7.69738e+08 -1.83504e+08 -0 -2.07307e+08 -0 -0 -1.78451e+09 -1.48833e+09
3 2 0.5 0 0 -5.66399e+08 -3.32568e+08 -0 1.29568e+08 -0 -0 -3.06392e+09 -2.48344e+08
ITEM: TIMESTEP
15
ITEM: NUMBER OF ATOMS
3
ITEM: BOX BOUNDS xy xz yz pp pp pp
0.0000000000000000e+00 5.0007500000000000e+01 7.5000000000002842e-03
0.0000000000000000e+00 5.0000000000000000e+01 0.0000000000000000e+00
0.0000000000000000e+00 5.0000000000000000e+01 0.0000000000000000e+00
ITEM: ATOMS id type x y z c_1[1] c_1[2] c_1[3] c_1[4] c_1[5] c_1[6] c_1[7] c_1[22]
1 2 0.378662 0.321535 0 -2.94511e+08 -5.16085e+08 -0 -9.0613e+07 -0 -0 1.20886e+09 -1.73695e+09
2 2 0 0 0 -7.69725e+08 -1.83515e+08 -0 -2.07321e+08 -0 -0 -1.78409e+09 -1.48861e+09
3 2 0.5 0 0 -5.66365e+08 -3.3257e+08 -0 1.29565e+08 -0 -0 -3.06369e+09 -2.48348e+08
ITEM: TIMESTEP
16
ITEM: NUMBER OF ATOMS
3
ITEM: BOX BOUNDS xy xz yz pp pp pp
0.0000000000000000e+00 5.0008000000000003e+01 8.0000000000026716e-03
0.0000000000000000e+00 5.0000000000000000e+01 0.0000000000000000e+00
0.0000000000000000e+00 5.0000000000000000e+01 0.0000000000000000e+00
ITEM: ATOMS id type x y z c_1[1] c_1[2] c_1[3] c_1[4] c_1[5] c_1[6] c_1[7] c_1[22]
1 2 0.378665 0.321535 0 -2.94529e+08 -5.16098e+08 -0 -9.063e+07 -0 -0 1.20906e+09 -1.73723e+09
2 2 0 0 0 -7.69713e+08 -1.83526e+08 -0 -2.07336e+08 -0 -0 -1.78367e+09 -1.48888e+09
3 2 0.5 0 0 -5.66332e+08 -3.32572e+08 -0 1.29563e+08 -0 -0 -3.06347e+09 -2.48353e+08
ITEM: TIMESTEP
17
ITEM: NUMBER OF ATOMS
3
ITEM: BOX BOUNDS xy xz yz pp pp pp
0.0000000000000000e+00 5.0008499999999998e+01 8.4999999999979536e-03
0.0000000000000000e+00 5.0000000000000000e+01 0.0000000000000000e+00
0.0000000000000000e+00 5.0000000000000000e+01 0.0000000000000000e+00
ITEM: ATOMS id type x y z c_1[1] c_1[2] c_1[3] c_1[4] c_1[5] c_1[6] c_1[7] c_1[22]
1 2 0.378669 0.321535 0 -2.94546e+08 -5.16111e+08 -0 -9.06469e+07 -0 -0 1.20925e+09 -1.73751e+09
2 2 0 0 0 -7.69701e+08 -1.83536e+08 -0 -2.0735e+08 -0 -0 -1.78326e+09 -1.48915e+09
3 2 0.5 0 0 -5.66298e+08 -3.32574e+08 -0 1.29561e+08 -0 -0 -3.06324e+09 -2.48358e+08
ITEM: TIMESTEP
18
ITEM: NUMBER OF ATOMS
3
ITEM: BOX BOUNDS xy xz yz pp pp pp
0.0000000000000000e+00 5.0009000000000000e+01 9.0000000000003411e-03
0.0000000000000000e+00 5.0000000000000000e+01 0.0000000000000000e+00
0.0000000000000000e+00 5.0000000000000000e+01 0.0000000000000000e+00
ITEM: ATOMS id type x y z c_1[1] c_1[2] c_1[3] c_1[4] c_1[5] c_1[6] c_1[7] c_1[22]
1 2 0.378672 0.321535 0 -2.94563e+08 -5.16123e+08 -0 -9.06639e+07 -0 -0 1.20945e+09 -1.73779e+09
2 2 0 0 0 -7.69688e+08 -1.83547e+08 -0 -2.07365e+08 -0 -0 -1.78284e+09 -1.48943e+09
3 2 0.5 0 0 -5.66264e+08 -3.32576e+08 -0 1.29558e+08 -0 -0 -3.06302e+09 -2.48362e+08
ITEM: TIMESTEP
19
ITEM: NUMBER OF ATOMS
3
ITEM: BOX BOUNDS xy xz yz pp pp pp
0.0000000000000000e+00 5.0009500000000003e+01 9.5000000000027285e-03
0.0000000000000000e+00 5.0000000000000000e+01 0.0000000000000000e+00
0.0000000000000000e+00 5.0000000000000000e+01 0.0000000000000000e+00
ITEM: ATOMS id type x y z c_1[1] c_1[2] c_1[3] c_1[4] c_1[5] c_1[6] c_1[7] c_1[22]
1 2 0.378675 0.321535 0 -2.9458e+08 -5.16136e+08 -0 -9.06808e+07 -0 -0 1.20964e+09 -1.73807e+09
2 2 0 0 0 -7.69676e+08 -1.83558e+08 -0 -2.07379e+08 -0 -0 -1.78242e+09 -1.4897e+09
3 2 0.5 0 0 -5.6623e+08 -3.32578e+08 -0 1.29556e+08 -0 -0 -3.06279e+09 -2.48367e+08
ITEM: TIMESTEP
20
ITEM: NUMBER OF ATOMS
3
ITEM: BOX BOUNDS xy xz yz pp pp pp
0.0000000000000000e+00 5.0009999999999998e+01 9.9999999999980105e-03
0.0000000000000000e+00 5.0000000000000000e+01 0.0000000000000000e+00
0.0000000000000000e+00 5.0000000000000000e+01 0.0000000000000000e+00
ITEM: ATOMS id type x y z c_1[1] c_1[2] c_1[3] c_1[4] c_1[5] c_1[6] c_1[7] c_1[22]
1 2 0.378678 0.321535 0 -2.94597e+08 -5.16149e+08 -0 -9.06978e+07 -0 -0 1.20984e+09 -1.73835e+09
2 2 0 0 0 -7.69664e+08 -1.83568e+08 -0 -2.07394e+08 -0 -0 -1.782e+09 -1.48997e+09
3 2 0.5 0 0 -5.66197e+08 -3.32581e+08 -0 1.29553e+08 -0 -0 -3.06257e+09 -2.48372e+08
