ITEM: TIMESTEP
0
ITEM: NUMBER OF ATOMS
665
ITEM: BOX BOUNDS xy xz yz pp pp pp
-1.0000000000000000e+01 1.0000000000000000e+01 0.0000000000000000e+00
-1.0000000000000000e+01 1.0000000000000000e+01 0.0000000000000000e+00
-1.0000000000000000e+01 1.0000000000000000e+01 0.0000000000000000e+00
ITEM: ATOMS id type x y z c_1[1] c_1[2] c_1[3] c_1[4] c_1[5] c_1[6] c_1[7] c_1[8] c_1[13] c_1[15] c_1[22]
1 2 -7.4 -9.25 -9.25 4.00561e+06 -3.37762e+07 -3.37762e+07 285.505 285.505 733492 -1.44962e+07 -1.49178e+07 1.97312e+08 -6095.96 -4.64056e+07
2 2 -3.7 -9.25 -9.25 4.01698e+06 -3.37763e+07 -3.37763e+07 -0 -0 733490 -1.69556e+07 -1.57499e+07 1.97306e+08 2.17135e-14 -4.63907e+07
3 2 0 -9.25 -9.25 4.01698e+06 -3.37763e+07 -3.37763e+07 1.97504e-10 2.09006e-09 733490 -1.69556e+07 -1.57499e+07 1.97306e+08 5.05354e-09 -4.63907e+07
4 2 3.7 -9.25 -9.25 4.01698e+06 -3.37763e+07 -3.37763e+07 5.65773e-12 -7.46403e-14 733490 -1.69556e+07 -1.57499e+07 1.97306e+08 -5.65203e-11 -4.63907e+07
5 2 7.4 -9.25 -9.25 4.00561e+06 -3.37762e+07 -3.37762e+07 -285.505 -285.505 733492 -1.44962e+07 -1.49178e+07 1.97312e+08 6095.96 -4.64056e+07
6 2 -9.25 -7.4 -9.25 -3.37762e+07 4.00561e+06 -3.37762e+07 285.505 733492 285.505 1.97312e+08 -1.36495e+07 -1.44962e+07 -37090.5 -8.62377e+06
7 2 -5.55 -7.4 -9.25 5.75577e+06 5.75403e+06 -3.32225e+07 -0 7.55979e-10 4.62549 -1.09724e+07 -1.64022e+07 -1.04843e+07 -8.34343e-12 -1.0277e+07
8 2 -7.4 -5.55 -9.25 5.75403e+06 5.75577e+06 -3.32225e+07 -0 4.62549 7.40862e-10 -1.04843e+07 -1.62166e+07 -1.09724e+07 -0 -1.02753e+07
9 2 -1.85 -7.4 -9.25 5.75577e+06 5.75403e+06 -3.32225e+07 -0 -7.55979e-10 4.62549 -1.09724e+07 -1.64022e+07 -1.04843e+07 -1.62852e-14 -1.0277e+07
10 2 -3.7 -5.55 -9.25 5.75577e+06 5.75577e+06 -3.32225e+07 -0 -0 2.51826e-10 -1.09724e+07 -1.64022e+07 -1.09724e+07 -0 -1.02753e+07
11 2 1.85 -7.4 -9.25 5.75577e+06 5.75403e+06 -3.32225e+07 -0 -1.33408e-09 4.62549 -1.09724e+07 -1.64022e+07 -1.04843e+07 -1.62852e-14 -1.0277e+07
12 2 0 -5.55 -9.25 5.75577e+06 5.75577e+06 -3.32225e+07 2.44581e-10 1.27849e-09 6.74289e-10 -1.09724e+07 -1.64022e+07 -1.09724e+07 -4.15788e-09 -1.02753e+07
13 2 5.55 -7.4 -9.25 5.75577e+06 5.75403e+06 -3.32225e+07 -0 -1.42302e-09 4.62549 -1.09724e+07 -1.64022e+07 -1.04843e+07 2.17135e-14 -1.0277e+07
14 2 3.7 -5.55 -9.25 5.75577e+06 5.75577e+06 -3.32225e+07 -0 -0 7.40862e-10 -1.09724e+07 -1.64022e+07 -1.09724e+07 -0 -1.02753e+07
15 2 9.25 -7.4 -9.25 -3.37762e+07 4.00561e+06 -3.37762e+07 -285.505 -733492 285.505 1.97312e+08 -1.36495e+07 -1.44962e+07 37090.5 -8.62377e+06
16 2 7.4 -5.55 -9.25 5.75403e+06 5.75577e+06 -3.32225e+07 -3.77989e-10 -4.62549 3.1843e-10 -1.04843e+07 -1.62166e+07 -1.09724e+07 -1.48972e-09 -1.02753e+07
17 2 -9.25 -3.7 -9.25 -3.37763e+07 4.01698e+06 -3.37763e+07 1.30281e-13 733490 -5.30014e-12 1.97306e+08 -1.36426e+07 -1.69556e+07 7.22627e-11 -8.59736e+06
18 2 -5.55 -3.7 -9.25 5.75577e+06 5.75577e+06 -3.32225e+07 -0 2.44581e-10 7.23875e-12 -1.09724e+07 -1.64022e+07 -1.09724e+07 8.32171e-12 -1.02753e+07
19 2 -7.4 -1.85 -9.25 5.75403e+06 5.75577e+06 -3.32225e+07 -0 4.62549 -7.71087e-10 -1.04843e+07 -1.62166e+07 -1.09724e+07 -0 -1.02753e+07
20 2 -1.85 -3.7 -9.25 5.75577e+06 5.75577e+06 -3.32225e+07 -0 -2.44581e-10 7.23875e-12 -1.09724e+07 -1.64022e+07 -1.09724e+07 2.80105e-12 -1.02753e+07
21 2 -3.7 -1.85 -9.25 5.75577e+06 5.75577e+06 -3.32225e+07 -0 -0 -2.59555e-10 -1.09724e+07 -1.64022e+07 -1.09724e+07 -0 -1.02753e+07
22 2 1.85 -3.7 -9.25 5.75577e+06 5.75577e+06 -3.32225e+07 -0 -1.22291e-09 7.31068e-12 -1.09724e+07 -1.64022e+07 -1.09724e+07 2.8119e-12 -1.02753e+07
23 2 0 -1.85 -9.25 5.75577e+06 5.75577e+06 -3.32225e+07 -2.44581e-10 1.27849e-09 -6.82011e-10 -1.09724e+07 -1.64022e+07 -1.09724e+07 4.17733e-09 -1.02753e+07
24 2 5.55 -3.7 -9.25 5.75577e+06 5.75577e+06 -3.32225e+07 -0 -2.11229e-09 -1.51764e-11 -1.09724e+07 -1.64022e+07 -1.09724e+07 -8.35971e-12 -1.02753e+07
25 2 3.7 -1.85 -9.25 5.75577e+06 5.75577e+06 -3.32225e+07 -0 -0 -7.71087e-10 -1.09724e+07 -1.64022e+07 -1.09724e+07 -0 -1.02753e+07
26 2 9.25 -3.7 -9.25 -3.37763e+07 4.01698e+06 -3.37763e+07 2.23215e-11 -733490 2.77933e-12 1.97306e+08 -1.36426e+07 -1.69556e+07 3.3352e-11 -8.59736e+06
27 2 7.4 -1.85 -9.25 5.75403e+06 5.75577e+06 -3.32225e+07 3.77989e-10 -4.62549 -3.26393e-10 -1.04843e+07 -1.62166e+07 -1.09724e+07 1.48138e-09 -1.02753e+07
28 2 -9.25 0 -9.25 -3.37763e+07 4.01698e+06 -3.37763e+07 1.97637e-10 733490 2.08346e-09 1.97306e+08 -1.36426e+07 -1.69556e+07 6.63705e-09 -8.59736e+06
29 2 -5.55 0 -9.25 5.75577e+06 5.75577e+06 -3.32225e+07 2.44581e-10 6.89275e-10 1.27457e-09 -1.09724e+07 -1.64022e+07 -1.09724e+07 -2.74043e-09 -1.02753e+07
30 2 -7.4 1.85 -9.25 5.75403e+06 5.75577e+06 -3.32225e+07 -0 4.62549 -1.34908e-09 -1.04843e+07 -1.62166e+07 -1.09724e+07 -0 -1.02753e+07
31 2 -1.85 0 -9.25 5.75577e+06 5.75577e+06 -3.32225e+07 -2.44581e-10 -6.89275e-10 1.27457e-09 -1.09724e+07 -1.64022e+07 -1.09724e+07 2.72932e-09 -1.02753e+07
32 2 -3.7 1.85 -9.25 5.75577e+06 5.75577e+06 -3.32225e+07 -0 -0 -1.23777e-09 -1.09724e+07 -1.64022e+07 -1.09724e+07 -0 -1.02753e+07
33 2 1.85 0 -9.25 5.75577e+06 5.75577e+06 -3.32225e+07 -5.33632e-10 -8.67152e-10 8.52179e-10 -1.09724e+07 -1.64022e+07 -1.09724e+07 1.48945e-08 -1.02753e+07
34 2 0 1.85 -9.25 5.75577e+06 5.75577e+06 -3.32225e+07 -5.33632e-10 8.67152e-10 -8.5979e-10 -1.09724e+07 -1.64022e+07 -1.09724e+07 1.48972e-08 -1.02753e+07
35 2 5.55 0 -9.25 5.75577e+06 5.75577e+06 -3.32225e+07 -6.6704e-11 -1.36743e-09 1.3633e-09 -1.09724e+07 -1.64022e+07 -1.09724e+07 6.11399e-11 -1.02753e+07
36 2 3.7 1.85 -9.25 5.75577e+06 5.75577e+06 -3.32225e+07 -0 -0 -1.34909e-09 -1.09724e+07 -1.64022e+07 -1.09724e+07 -0 -1.02753e+07
37 2 9.25 0 -9.25 -3.37763e+07 4.01698e+06 -3.37763e+07 -6.86582e-10 -733490 1.69135e-09 1.97306e+08 -1.36426e+07 -1.69556e+07 8.51032e-09 -8.59736e+06
38 2 7.4 1.85 -9.25 5.75403e+06 5.75577e+06 -3.32225e+07 -6.00336e-10 -4.62549 -9.04362e-10 -1.04843e+07 -1.62166e+07 -1.09724e+07 1.49417e-08 -1.02753e+07
39 2 -9.25 3.7 -9.25 -3.37763e+07 4.01698e+06 -3.37763e+07 5.73237e-12 733490 8.95616e-12 1.97306e+08 -1.36426e+07 -1.69556e+07 -5.78101e-10 -8.59736e+06
40 2 -5.55 3.7 -9.25 5.75577e+06 5.75577e+06 -3.32225e+07 -0 7.55979e-10 -3.71437e-12 -1.09724e+07 -1.64022e+07 -1.09724e+07 8.34886e-12 -1.02753e+07
41 2 -7.4 5.55 -9.25 5.75403e+06 5.75577e+06 -3.32225e+07 -0 4.62549 -1.43802e-09 -1.04843e+07 -1.62166e+07 -1.09724e+07 -0 -1.02753e+07
42 2 -1.85 3.7 -9.25 5.75577e+06 5.75577e+06 -3.32225e+07 -0 -7.55979e-10 -3.71369e-12 -1.09724e+07 -1.64022e+07 -1.09724e+07 -8.35971e-12 -1.02753e+07
43 2 -3.7 5.55 -9.25 5.75577e+06 5.75577e+06 -3.32225e+07 -0 -0 -2.10493e-09 -1.09724e+07 -1.64022e+07 -1.09724e+07 -0 -1.02753e+07
44 2 1.85 3.7 -9.25 5.75577e+06 5.75577e+06 -3.32225e+07 -0 -1.33408e-09 -1.47639e-11 -1.09724e+07 -1.64022e+07 -1.09724e+07 -2.79562e-12 -1.02753e+07
45 2 0 5.55 -9.25 5.75577e+06 5.75577e+06 -3.32225e+07 -6.6704e-11 1.37855e-09 -1.38229e-09 -1.09724e+07 -1.64022e+07 -1.09724e+07 -1.30906e-09 -1.02753e+07
46 2 5.55 3.7 -9.25 5.75577e+06 5.75577e+06 -3.32225e+07 -0 -1.42302e-09 -1.49979e-11 -1.09724e+07 -1.64022e+07 -1.09724e+07 1.62852e-14 -1.02753e+07
47 2 3.7 5.55 -9.25 5.75577e+06 5.75577e+06 -3.32225e+07 -0 -0 -1.43802e-09 -1.09724e+07 -1.64022e+07 -1.09724e+07 -0 -1.02753e+07
48 2 9.25 3.7 -9.25 -3.37763e+07 4.01698e+06 -3.37763e+07 3.88238e-11 -733490 7.22301e-11 1.97306e+08 -1.36426e+07 -1.69556e+07 3.11285e-10 -8.59736e+06
49 2 7.4 5.55 -9.25 5.75403e+06 5.75577e+06 -3.32225e+07 6.6704e-11 -4.62549 -1.10447e-09 -1.04843e+07 -1.62166e+07 -1.09724e+07 -7.0595e-09 -1.02753e+07
50 2 -9.25 7.4 -9.25 -3.37762e+07 4.00561e+06 -3.37762e+07 -285.505 733492 -285.505 1.97312e+08 -1.36495e+07 -1.44962e+07 37090.5 -8.62377e+06
51 2 -5.55 7.4 -9.25 5.75577e+06 5.75403e+06 -3.32225e+07 -3.77989e-10 3.3352e-10 -4.62549 -1.09724e+07 -1.64022e+07 -1.04843e+07 1.33408e-09 -1.0277e+07
52 2 -7.4 9.25 -9.25 4.00561e+06 -3.37762e+07 -3.37762e+07 -285.505 285.505 -733492 -1.44962e+07 -1.49178e+07 1.97312e+08 6095.96 -4.64056e+07
53 2 -1.85 7.4 -9.25 5.75577e+06 5.75403e+06 -3.32225e+07 3.77989e-10 -3.3352e-10 -4.62549 -1.09724e+07 -1.64022e+07 -1.04843e+07 -1.33408e-09 -1.0277e+07
54 2 -3.7 9.25 -9.25 4.01698e+06 -3.37763e+07 -3.37763e+07 5.2981e-12 2.77933e-12 -733490 -1.69556e+07 -1.57499e+07 1.97306e+08 -5.35456e-11 -4.63907e+07
55 2 1.85 7.4 -9.25 5.75577e+06 5.75403e+06 -3.32225e+07 -6.00336e-10 -9.11621e-10 -4.62549 -1.09724e+07 -1.64022e+07 -1.04843e+07 1.35409e-08 -1.0277e+07
56 2 0 9.25 -9.25 4.01698e+06 -3.37763e+07 -3.37763e+07 -7.25924e-10 1.62465e-09 -733490 -1.69556e+07 -1.57499e+07 1.97306e+08 9.87912e-09 -4.63907e+07
57 2 5.55 7.4 -9.25 5.75577e+06 5.75403e+06 -3.32225e+07 6.6704e-11 -1.0895e-09 -4.62549 -1.09724e+07 -1.64022e+07 -1.04843e+07 -5.66984e-09 -1.0277e+07
58 2 3.7 9.25 -9.25 4.01698e+06 -3.37763e+07 -3.37763e+07 -8.95616e-12 5.52542e-12 -733490 -1.69556e+07 -1.57499e+07 1.97306e+08 -2.55351e-11 -4.63907e+07
59 2 9.25 7.4 -9.25 -3.37762e+07 4.00561e+06 -3.37762e+07 285.505 -733492 -285.505 1.97312e+08 -1.36495e+07 -1.44962e+07 -37090.5 -8.62377e+06
60 2 7.4 9.25 -9.25 4.00561e+06 -3.37762e+07 -3.37762e+07 285.505 -285.505 -733492 -1.44962e+07 -1.49178e+07 1.97312e+08 -6095.96 -4.64056e+07
61 2 -9.25 -9.25 -7.4 -3.37762e+07 -3.37762e+07 4.00561e+06 733492 285.505 285.505 1.97312e+08 -1.55938e+07 1.97312e+08 4.14116e+06 -4.83534e+07
62 2 -5.55 -9.25 -7.4 5.75577e+06 -3.32225e+07 5.75403e+06 7.55867e-10 6.6704e-11 4.62549 -1.09724e+07 -1.20705e+07 2.06807e+08 -7.82437e-09 -4.21971e+07
63 2 -7.4 -9.25 -5.55 5.75403e+06 -3.32225e+07 5.75577e+06 4.62549 -0 7.78213e-10 -1.04843e+07 -1.19642e+07 2.06807e+08 -138.136 -4.21975e+07
64 2 -1.85 -9.25 -7.4 5.75577e+06 -3.32225e+07 5.75403e+06 -7.56012e-10 -6.6704e-11 4.62549 -1.09724e+07 -1.20705e+07 2.06807e+08 7.82747e-09 -4.21971e+07
65 2 -3.7 -9.25 -5.55 5.75577e+06 -3.32225e+07 5.75577e+06 -3.87858e-12 -0 3.3352e-10 -1.09724e+07 -1.20705e+07 2.06807e+08 1.39705e-10 -4.21971e+07
66 2 1.85 -9.25 -7.4 5.75577e+06 -3.32225e+07 5.75403e+06 3.55901e-10 -0 4.62549 -1.09724e+07 -1.20705e+07 2.06807e+08 -5.33964e-09 -4.21971e+07
67 2 0 -9.25 -5.55 5.75577e+06 -3.32225e+07 5.75577e+06 -3.96408e-12 -1.77877e-10 1.06726e-09 -1.09724e+07 -1.20705e+07 2.06807e+08 5.41927e-10 -4.21971e+07
68 2 5.55 -9.25 -7.4 5.75577e+06 -3.32225e+07 5.75403e+06 -1.42298e-09 -2.22347e-11 4.62549 -1.09724e+07 -1.20705e+07 2.06807e+08 1.7431e-08 -4.21971e+07
69 2 3.7 -9.25 -5.55 5.75577e+06 -3.32225e+07 5.75577e+06 -3.71573e-12 -0 7.78213e-10 -1.09724e+07 -1.20705e+07 2.06807e+08 1.35862e-10 -4.21971e+07
70 2 9.25 -9.25 -7.4 -3.37762e+07 -3.37762e+07 4.00561e+06 -733492 -285.505 285.505 1.97312e+08 -1.55938e+07 1.97312e+08 -4.14116e+06 -4.83534e+07
71 2 7.4 -9.25 -5.55 5.75403e+06 -3.32225e+07 5.75577e+06 -4.62549 -8.67152e-10 6.22571e-10 -1.04843e+07 -1.19642e+07 2.06807e+08 138.136 -4.21975e+07
72 2 -9.25 -5.55 -7.4 -3.32225e+07 5.75577e+06 5.75403e+06 7.59865e-10 4.62549 6.6704e-11 2.06807e+08 -1.06486e+07 -1.09724e+07 -3.93067e-09 -3.21886e+06
73 2 -9.25 -7.4 -5.55 -3.32225e+07 5.75403e+06 5.75577e+06 4.62549 7.55979e-10 -0 2.06807e+08 -1.0649e+07 -1.04843e+07 -840.478 -3.22094e+06
74 2 -7.4 -7.4 -7.4 7.03256e+06 7.03256e+06 7.03256e+06 -0 -0 -0 8.05941e+06 543889 8.05941e+06 -0 7.59757e+06
75 2 -5.55 -5.55 -7.4 7.03291e+06 7.03291e+06 7.03256e+06 1.77877e-10 -0 -0 7.95659e+06 522768 7.95659e+06 1.33408e-10 7.59792e+06
76 2 -5.55 -7.4 -5.55 7.03291e+06 7.03256e+06 7.03291e+06 -0 1.77877e-10 -0 7.95659e+06 522768 8.05941e+06 1.38967e-12 7.59757e+06
77 2 -7.4 -5.55 -5.55 7.03256e+06 7.03291e+06 7.03291e+06 -0 -0 1.77877e-10 8.05941e+06 543889 7.95659e+06 -0 7.59792e+06
78 2 -3.7 -7.4 -7.4 7.03291e+06 7.03256e+06 7.03256e+06 -0 -0 -0 7.95659e+06 522768 8.05941e+06 -0 7.59757e+06
79 2 -1.85 -5.55 -7.4 7.03291e+06 7.03291e+06 7.03256e+06 -1.77877e-10 -0 -0 7.95659e+06 522768 7.95659e+06 -1.33408e-10 7.59792e+06
80 2 -1.85 -7.4 -5.55 7.03291e+06 7.03256e+06 7.03291e+06 -0 -1.77877e-10 -0 7.95659e+06 522768 8.05941e+06 -0 7.59757e+06
81 2 -3.7 -5.55 -5.55 7.03291e+06 7.03291e+06 7.03291e+06 -0 -0 1.77877e-10 7.95659e+06 522768 7.95659e+06 -0 7.59792e+06
82 2 0 -7.4 -7.4 7.03291e+06 7.03256e+06 7.03256e+06 -0 -0 -0 7.95659e+06 522768 8.05941e+06 6.94833e-13 7.59757e+06
83 2 1.85 -5.55 -7.4 7.03291e+06 7.03291e+06 7.03256e+06 -1.77877e-10 -0 -0 7.95659e+06 522768 7.95659e+06 5.5809e-09 7.59792e+06
84 2 1.85 -7.4 -5.55 7.03291e+06 7.03256e+06 7.03291e+06 -0 -1.77877e-10 -0 7.95659e+06 522768 8.05941e+06 -0 7.59757e+06
85 2 0 -5.55 -5.55 7.03291e+06 7.03291e+06 7.03291e+06 1.77877e-10 1.77877e-10 1.77877e-10 7.95659e+06 522768 7.95659e+06 -5.5809e-09 7.59792e+06
86 2 3.7 -7.4 -7.4 7.03291e+06 7.03256e+06 7.03256e+06 -0 -0 -0 7.95659e+06 522768 8.05941e+06 -0 7.59757e+06
87 2 5.55 -5.55 -7.4 7.03291e+06 7.03291e+06 7.03256e+06 1.77877e-10 -0 -0 7.95659e+06 522768 7.95659e+06 1.77877e-10 7.59792e+06
88 2 5.55 -7.4 -5.55 7.03291e+06 7.03256e+06 7.03291e+06 -0 1.77877e-10 -0 7.95659e+06 522768 8.05941e+06 -0 7.59757e+06
89 2 3.7 -5.55 -5.55 7.03291e+06 7.03291e+06 7.03291e+06 -0 -0 1.77877e-10 7.95659e+06 522768 7.95659e+06 -0 7.59792e+06
90 2 7.4 -7.4 -7.4 7.03256e+06 7.03256e+06 7.03256e+06 -0 -0 -0 8.05941e+06 543889 8.05941e+06 -2.77933e-12 7.59757e+06
91 2 9.25 -5.55 -7.4 -3.32225e+07 5.75577e+06 5.75403e+06 -9.37743e-10 -4.62549 6.6704e-11 2.06807e+08 -1.06486e+07 -1.09724e+07 9.62275e-09 -3.21886e+06
92 2 9.25 -7.4 -5.55 -3.32225e+07 5.75403e+06 5.75577e+06 -4.62549 -9.11621e-10 -0 2.06807e+08 -1.0649e+07 -1.04843e+07 840.478 -3.22094e+06
93 2 7.4 -5.55 -5.55 7.03256e+06 7.03291e+06 7.03291e+06 -0 -0 1.77877e-10 8.05941e+06 543889 7.95659e+06 -5.75878e-09 7.59792e+06
94 2 -9.25 -1.85 -7.4 -3.32225e+07 5.75577e+06 5.75403e+06 -8.29802e-10 4.62549 -6.6704e-11 2.06807e+08 -1.06486e+07 -1.09724e+07 3.8836e-09 -3.21886e+06
95 2 -9.25 -3.7 -5.55 -3.32225e+07 5.75577e+06 5.75577e+06 -3.87722e-12 2.89051e-10 -0 2.06807e+08 -1.06487e+07 -1.09724e+07 1.02314e-10 -3.21886e+06
96 2 -7.4 -3.7 -7.4 7.03256e+06 7.03291e+06 7.03256e+06 -0 -0 -0 8.05941e+06 543889 7.95659e+06 -0 7.59792e+06
97 2 -5.55 -1.85 -7.4 7.03291e+06 7.03291e+06 7.03256e+06 -1.77877e-10 -0 -0 7.95659e+06 522768 7.95659e+06 -1.33408e-10 7.59792e+06
98 2 -5.55 -3.7 -5.55 7.03291e+06 7.03291e+06 7.03291e+06 -0 1.77877e-10 -0 7.95659e+06 522768 7.95659e+06 -1.38967e-12 7.59792e+06
99 2 -7.4 -1.85 -5.55 7.03256e+06 7.03291e+06 7.03291e+06 -0 -0 -1.77877e-10 8.05941e+06 543889 7.95659e+06 -0 7.59792e+06
100 2 -3.7 -3.7 -7.4 7.03291e+06 7.03291e+06 7.03256e+06 -0 -0 -0 7.95659e+06 522768 7.95659e+06 -0 7.59792e+06
101 2 -1.85 -1.85 -7.4 7.03291e+06 7.03291e+06 7.03256e+06 1.77877e-10 -0 -0 7.95659e+06 522768 7.95659e+06 1.33408e-10 7.59792e+06
102 2 -1.85 -3.7 -5.55 7.03291e+06 7.03291e+06 7.03291e+06 -0 -1.77877e-10 -0 7.95659e+06 522768 7.95659e+06 1.38967e-12 7.59792e+06
103 2 -3.7 -1.85 -5.55 7.03291e+06 7.03291e+06 7.03291e+06 -0 -0 -1.77877e-10 7.95659e+06 522768 7.95659e+06 -0 7.59792e+06
104 2 0 -3.7 -7.4 7.03291e+06 7.03291e+06 7.03256e+06 -0 -0 -0 7.95659e+06 522768 7.95659e+06 -6.94833e-13 7.59792e+06
105 2 1.85 -1.85 -7.4 7.03291e+06 7.03291e+06 7.03256e+06 1.77877e-10 -0 -0 7.95659e+06 522768 7.95659e+06 -5.5809e-09 7.59792e+06
106 2 1.85 -3.7 -5.55 7.03291e+06 7.03291e+06 7.03291e+06 -0 -1.77877e-10 -0 7.95659e+06 522768 7.95659e+06 -0 7.59792e+06
107 2 0 -1.85 -5.55 7.03291e+06 7.03291e+06 7.03291e+06 -1.77877e-10 1.77877e-10 -1.77877e-10 7.95659e+06 522768 7.95659e+06 5.58229e-09 7.59792e+06
108 2 3.7 -3.7 -7.4 7.03291e+06 7.03291e+06 7.03256e+06 -0 -0 -0 7.95659e+06 522768 7.95659e+06 -0 7.59792e+06
109 2 5.55 -1.85 -7.4 7.03291e+06 7.03291e+06 7.03256e+06 -1.77877e-10 -0 -0 7.95659e+06 522768 7.95659e+06 -1.77877e-10 7.59792e+06
110 2 5.55 -3.7 -5.55 7.03291e+06 7.03291e+06 7.03291e+06 -0 1.77877e-10 -0 7.95659e+06 522768 7.95659e+06 -1.38967e-12 7.59792e+06
111 2 3.7 -1.85 -5.55 7.03291e+06 7.03291e+06 7.03291e+06 -0 -0 -1.77877e-10 7.95659e+06 522768 7.95659e+06 -0 7.59792e+06
112 2 7.4 -3.7 -7.4 7.03256e+06 7.03291e+06 7.03256e+06 -0 -0 -0 8.05941e+06 543889 7.95659e+06 2.77933e-12 7.59792e+06
113 2 9.25 -1.85 -7.4 -3.32225e+07 5.75577e+06 5.75403e+06 9.29858e-10 -4.62549 -0 2.06807e+08 -1.06486e+07 -1.09724e+07 -9.57567e-09 -3.21886e+06
114 2 9.25 -3.7 -5.55 -3.32225e+07 5.75577e+06 5.75577e+06 4.83479e-11 -4.22459e-10 6.6704e-11 2.06807e+08 -1.06487e+07 -1.09724e+07 -1.61549e-11 -3.21886e+06
115 2 7.4 -1.85 -5.55 7.03256e+06 7.03291e+06 7.03291e+06 -0 -0 -1.77877e-10 8.05941e+06 543889 7.95659e+06 5.75808e-09 7.59792e+06
116 2 -9.25 1.85 -7.4 -3.32225e+07 5.75577e+06 5.75403e+06 2.81968e-10 4.62549 -0 2.06807e+08 -1.06486e+07 -1.09724e+07 -2.49393e-08 -3.21886e+06
117 2 -9.25 0 -5.55 -3.32225e+07 5.75577e+06 5.75577e+06 -3.96136e-12 1.06726e-09 -1.77877e-10 2.06807e+08 -1.06487e+07 -1.09724e+07 1.65313e-08 -3.21886e+06
118 2 -7.4 0 -7.4 7.03256e+06 7.03291e+06 7.03256e+06 -0 -0 -0 8.05941e+06 543889 7.95659e+06 -0 7.59792e+06
119 2 -5.55 1.85 -7.4 7.03291e+06 7.03291e+06 7.03256e+06 -1.77877e-10 -0 -0 7.95659e+06 522768 7.95659e+06 5.5809e-09 7.59792e+06
120 2 -5.55 0 -5.55 7.03291e+06 7.03291e+06 7.03291e+06 1.77877e-10 1.77877e-10 1.77877e-10 7.95659e+06 522768 7.95659e+06 -5.5816e-09 7.59792e+06
121 2 -7.4 1.85 -5.55 7.03256e+06 7.03291e+06 7.03291e+06 -0 -0 -1.77877e-10 8.05941e+06 543889 7.95659e+06 -0 7.59792e+06
122 2 -3.7 0 -7.4 7.03291e+06 7.03291e+06 7.03256e+06 -0 -0 -0 7.95659e+06 522768 7.95659e+06 -0 7.59792e+06
123 2 -1.85 1.85 -7.4 7.03291e+06 7.03291e+06 7.03256e+06 1.77877e-10 -0 -0 7.95659e+06 522768 7.95659e+06 -5.5809e-09 7.59792e+06
124 2 -1.85 0 -5.55 7.03291e+06 7.03291e+06 7.03291e+06 -1.77877e-10 -1.77877e-10 1.77877e-10 7.95659e+06 522768 7.95659e+06 5.5816e-09 7.59792e+06
125 2 -3.7 1.85 -5.55 7.03291e+06 7.03291e+06 7.03291e+06 -0 -0 -1.77877e-10 7.95659e+06 522768 7.95659e+06 -0 7.59792e+06
126 2 0 0 -7.4 7.03291e+06 7.03291e+06 7.03256e+06 -0 -0 -0 7.95659e+06 522768 7.95659e+06 6.60092e-11 7.59792e+06
127 2 1.85 1.85 -7.4 7.03291e+06 7.03291e+06 7.03256e+06 -0 -0 -0 7.95659e+06 522768 7.95659e+06 6.6704e-11 7.59792e+06
128 2 1.85 0 -5.55 7.03291e+06 7.03291e+06 7.03291e+06 -0 -1.77877e-10 1.77877e-10 7.95659e+06 522768 7.95659e+06 -6.53143e-11 7.59792e+06
129 2 0 1.85 -5.55 7.03291e+06 7.03291e+06 7.03291e+06 -0 1.77877e-10 -1.77877e-10 7.95659e+06 522768 7.95659e+06 -6.6704e-11 7.59792e+06
130 2 3.7 0 -7.4 7.03291e+06 7.03291e+06 7.03256e+06 -0 -0 -0 7.95659e+06 522768 7.95659e+06 -0 7.59792e+06
131 2 5.55 1.85 -7.4 7.03291e+06 7.03291e+06 7.03256e+06 -0 -0 -0 7.95659e+06 522768 7.95659e+06 -6.6704e-11 7.59792e+06
132 2 5.55 0 -5.55 7.03291e+06 7.03291e+06 7.03291e+06 -0 1.77877e-10 1.77877e-10 7.95659e+06 522768 7.95659e+06 6.60092e-11 7.59792e+06
133 2 3.7 1.85 -5.55 7.03291e+06 7.03291e+06 7.03291e+06 -0 -0 -1.77877e-10 7.95659e+06 522768 7.95659e+06 -0 7.59792e+06
134 2 7.4 0 -7.4 7.03256e+06 7.03291e+06 7.03256e+06 -0 -0 -0 8.05941e+06 543889 7.95659e+06 1.38967e-12 7.59792e+06
135 2 9.25 1.85 -7.4 -3.32225e+07 5.75577e+06 5.75403e+06 -3.59786e-10 -4.62549 6.6704e-11 2.06807e+08 -1.06486e+07 -1.09724e+07 2.49386e-08 -3.21886e+06
136 2 9.25 0 -5.55 -3.32225e+07 5.75577e+06 5.75577e+06 3.73134e-11 -1.26738e-09 -2.22347e-10 2.06807e+08 -1.06487e+07 -1.09724e+07 -1.63925e-08 -3.21886e+06
137 2 7.4 1.85 -5.55 7.03256e+06 7.03291e+06 7.03291e+06 -0 -0 -1.77877e-10 8.05941e+06 543889 7.95659e+06 -0 7.59792e+06
138 2 -9.25 5.55 -7.4 -3.32225e+07 5.75577e+06 5.75403e+06 -1.49695e-09 4.62549 1.55643e-10 2.06807e+08 -1.06486e+07 -1.09724e+07 9.94359e-09 -3.21886e+06
139 2 -9.25 3.7 -5.55 -3.32225e+07 5.75577e+06 5.75577e+06 -3.71302e-12 7.78213e-10 -0 2.06807e+08 -1.06487e+07 -1.09724e+07 1.57901e-10 -3.21886e+06
140 2 -7.4 3.7 -7.4 7.03256e+06 7.03291e+06 7.03256e+06 -0 -0 -0 8.05941e+06 543889 7.95659e+06 -0 7.59792e+06
141 2 -5.55 5.55 -7.4 7.03291e+06 7.03291e+06 7.03256e+06 1.77877e-10 -0 -0 7.95659e+06 522768 7.95659e+06 2.00112e-10 7.59792e+06
142 2 -5.55 3.7 -5.55 7.03291e+06 7.03291e+06 7.03291e+06 -0 1.77877e-10 -0 7.95659e+06 522768 7.95659e+06 2.0845e-12 7.59792e+06
143 2 -7.4 5.55 -5.55 7.03256e+06 7.03291e+06 7.03291e+06 -0 -0 1.77877e-10 8.05941e+06 543889 7.95659e+06 -0 7.59792e+06
144 2 -3.7 3.7 -7.4 7.03291e+06 7.03291e+06 7.03256e+06 -0 -0 -0 7.95659e+06 522768 7.95659e+06 -0 7.59792e+06
145 2 -1.85 5.55 -7.4 7.03291e+06 7.03291e+06 7.03256e+06 -1.77877e-10 -0 -0 7.95659e+06 522768 7.95659e+06 -2.00112e-10 7.59792e+06
146 2 -1.85 3.7 -5.55 7.03291e+06 7.03291e+06 7.03291e+06 -0 -1.77877e-10 -0 7.95659e+06 522768 7.95659e+06 -2.0845e-12 7.59792e+06
147 2 -3.7 5.55 -5.55 7.03291e+06 7.03291e+06 7.03291e+06 -0 -0 1.77877e-10 7.95659e+06 522768 7.95659e+06 -0 7.59792e+06
148 2 0 3.7 -7.4 7.03291e+06 7.03291e+06 7.03256e+06 -0 -0 -0 7.95659e+06 522768 7.95659e+06 1.38967e-12 7.59792e+06
149 2 1.85 5.55 -7.4 7.03291e+06 7.03291e+06 7.03256e+06 -0 -0 -0 7.95659e+06 522768 7.95659e+06 -1.11173e-10 7.59792e+06
150 2 1.85 3.7 -5.55 7.03291e+06 7.03291e+06 7.03291e+06 -0 -1.77877e-10 -0 7.95659e+06 522768 7.95659e+06 -2.0845e-12 7.59792e+06
151 2 0 5.55 -5.55 7.03291e+06 7.03291e+06 7.03291e+06 -0 1.77877e-10 1.77877e-10 7.95659e+06 522768 7.95659e+06 1.10478e-10 7.59792e+06
152 2 3.7 3.7 -7.4 7.03291e+06 7.03291e+06 7.03256e+06 -0 -0 -0 7.95659e+06 522768 7.95659e+06 -0 7.59792e+06
153 2 5.55 5.55 -7.4 7.03291e+06 7.03291e+06 7.03256e+06 1.77877e-10 -0 -0 7.95659e+06 522768 7.95659e+06 4.44693e-11 7.59792e+06
154 2 5.55 3.7 -5.55 7.03291e+06 7.03291e+06 7.03291e+06 -0 1.77877e-10 -0 7.95659e+06 522768 7.95659e+06 -0 7.59792e+06
155 2 3.7 5.55 -5.55 7.03291e+06 7.03291e+06 7.03291e+06 -0 -0 1.77877e-10 7.95659e+06 522768 7.95659e+06 -0 7.59792e+06
156 2 7.4 3.7 -7.4 7.03256e+06 7.03291e+06 7.03256e+06 -0 -0 -0 8.05941e+06 543889 7.95659e+06 6.94833e-13 7.59792e+06
157 2 9.25 5.55 -7.4 -3.32225e+07 5.75577e+06 5.75403e+06 1.41913e-09 -4.62549 6.6704e-11 2.06807e+08 -1.06486e+07 -1.09724e+07 -9.94376e-09 -3.21886e+06
158 2 9.25 3.7 -5.55 -3.32225e+07 5.75577e+06 5.75577e+06 -7.40567e-12 -9.33856e-10 -0 2.06807e+08 -1.06487e+07 -1.09724e+07 -1.73708e-12 -3.21886e+06
159 2 7.4 5.55 -5.55 7.03256e+06 7.03291e+06 7.03291e+06 -1.77877e-10 -0 1.77877e-10 8.05941e+06 543889 7.95659e+06 6.39247e-11 7.59792e+06
160 2 -9.25 9.25 -7.4 -3.37762e+07 -3.37762e+07 4.00561e+06 -733492 285.505 -285.505 1.97312e+08 -1.55938e+07 1.97312e+08 -4.14116e+06 -4.83534e+07
161 2 -9.25 7.4 -5.55 -3.32225e+07 5.75403e+06 5.75577e+06 -4.62549 6.22571e-10 -8.67152e-10 2.06807e+08 -1.0649e+07 -1.04843e+07 840.478 -3.22094e+06
162 2 -7.4 7.4 -7.4 7.03256e+06 7.03256e+06 7.03256e+06 -0 -0 -0 8.05941e+06 543889 8.05941e+06 -0 7.59757e+06
163 2 -5.55 9.25 -7.4 5.75577e+06 -3.32225e+07 5.75403e+06 -9.33856e-10 -0 -4.62549 -1.09724e+07 -1.20705e+07 2.06807e+08 1.31629e-08 -4.21971e+07
164 2 -5.55 7.4 -5.55 7.03291e+06 7.03256e+06 7.03291e+06 -0 1.77877e-10 -0 7.95659e+06 522768 8.05941e+06 -5.78101e-09 7.59757e+06
165 2 -7.4 9.25 -5.55 5.75403e+06 -3.32225e+07 5.75577e+06 -4.62549 -0 -9.11621e-10 -1.04843e+07 -1.19642e+07 2.06807e+08 138.136 -4.21975e+07
166 2 -3.7 7.4 -7.4 7.03291e+06 7.03256e+06 7.03256e+06 -0 -0 -0 7.95659e+06 522768 8.05941e+06 -0 7.59757e+06
167 2 -1.85 9.25 -7.4 5.75577e+06 -3.32225e+07 5.75403e+06 9.33856e-10 -0 -4.62549 -1.09724e+07 -1.20705e+07 2.06807e+08 -1.31629e-08 -4.21971e+07
168 2 -1.85 7.4 -5.55 7.03291e+06 7.03256e+06 7.03291e+06 -0 -1.77877e-10 -0 7.95659e+06 522768 8.05941e+06 5.78101e-09 7.59757e+06
169 2 -3.7 9.25 -5.55 5.75577e+06 -3.32225e+07 5.75577e+06 3.87722e-12 -0 -4.22459e-10 -1.09724e+07 -1.20705e+07 2.06807e+08 -1.39683e-10 -4.21971e+07
170 2 0 7.4 -7.4 7.03291e+06 7.03256e+06 7.03256e+06 -0 -0 -0 7.95659e+06 522768 8.05941e+06 -4.44693e-11 7.59757e+06
171 2 1.85 9.25 -7.4 5.75577e+06 -3.32225e+07 5.75403e+06 -3.55755e-10 -0 -4.62549 -1.09724e+07 -1.20705e+07 2.06807e+08 5.33632e-09 -4.21971e+07
172 2 1.85 7.4 -5.55 7.03291e+06 7.03256e+06 7.03291e+06 -0 -1.77877e-10 -0 7.95659e+06 522768 8.05941e+06 4.44693e-11 7.59757e+06
173 2 0 9.25 -5.55 5.75577e+06 -3.32225e+07 5.75577e+06 4.84307e-11 -2.22347e-10 -1.24514e-09 -1.09724e+07 -1.20705e+07 2.06807e+08 -4.9737e-10 -4.21971e+07
174 2 3.7 7.4 -7.4 7.03291e+06 7.03256e+06 7.03256e+06 -0 -0 -0 7.95659e+06 522768 8.05941e+06 -0 7.59757e+06
175 2 5.55 9.25 -7.4 5.75577e+06 -3.32225e+07 5.75403e+06 1.42302e-09 -0 -4.62549 -1.09724e+07 -1.20705e+07 2.06807e+08 -1.7432e-08 -4.21971e+07
176 2 5.55 7.4 -5.55 7.03291e+06 7.03256e+06 7.03291e+06 -1.77877e-10 1.77877e-10 -0 7.95659e+06 522768 8.05941e+06 2.22347e-11 7.59757e+06
177 2 3.7 9.25 -5.55 5.75577e+06 -3.32225e+07 5.75577e+06 3.71166e-12 -0 -9.11621e-10 -1.09724e+07 -1.20705e+07 2.06807e+08 -1.35883e-10 -4.21971e+07
178 2 7.4 7.4 -7.4 7.03256e+06 7.03256e+06 7.03256e+06 1.77877e-10 -0 -0 8.05941e+06 543889 8.05941e+06 -6.6704e-11 7.59757e+06
179 2 9.25 9.25 -7.4 -3.37762e+07 -3.37762e+07 4.00561e+06 733492 -285.505 -285.505 1.97312e+08 -1.55938e+07 1.97312e+08 4.14116e+06 -4.83534e+07
180 2 9.25 7.4 -5.55 -3.32225e+07 5.75403e+06 5.75577e+06 4.62549 -8.22683e-10 -9.11621e-10 2.06807e+08 -1.0649e+07 -1.04843e+07 -840.478 -3.22094e+06
181 2 7.4 9.25 -5.55 5.75403e+06 -3.32225e+07 5.75577e+06 4.62549 -8.44917e-10 -8.89387e-10 -1.04843e+07 -1.19642e+07 2.06807e+08 -138.136 -4.21975e+07
182 2 -9.25 -9.25 -3.7 -3.37763e+07 -3.37763e+07 4.01698e+06 733490 2.22347e-11 2.22347e-11 1.97306e+08 -1.55982e+07 1.97306e+08 4.14123e+06 -4.83534e+07
183 2 -5.55 -9.25 -3.7 5.75577e+06 -3.32225e+07 5.75577e+06 2.44457e-10 -6.6704e-11 6.6704e-11 -1.09724e+07 -1.20705e+07 2.06807e+08 -1.06699e-08 -4.21971e+07
184 2 -7.4 -9.25 -1.85 5.75403e+06 -3.32225e+07 5.75577e+06 4.62549 -0 -7.55979e-10 -1.04843e+07 -1.19642e+07 2.06807e+08 -138.136 -4.21975e+07
185 2 -1.85 -9.25 -3.7 5.75577e+06 -3.32225e+07 5.75577e+06 -2.44598e-10 6.6704e-11 6.6704e-11 -1.09724e+07 -1.20705e+07 2.06807e+08 1.06731e-08 -4.21971e+07
186 2 -3.7 -9.25 -1.85 5.75577e+06 -3.32225e+07 5.75577e+06 -3.87858e-12 -0 -3.55755e-10 -1.09724e+07 -1.20705e+07 2.06807e+08 1.39705e-10 -4.21971e+07
187 2 1.85 -9.25 -3.7 5.75577e+06 -3.32225e+07 5.75577e+06 -2.66674e-10 -4.44693e-11 -2.22347e-11 -1.09724e+07 -1.20705e+07 2.06807e+08 4.6217e-09 -4.21971e+07
188 2 0 -9.25 -1.85 5.75577e+06 -3.32225e+07 5.75577e+06 -4.84321e-11 2.22347e-10 -1.1562e-09 -1.09724e+07 -1.20705e+07 2.06807e+08 4.97454e-10 -4.21971e+07
189 2 5.55 -9.25 -3.7 5.75577e+06 -3.32225e+07 5.75577e+06 -2.11226e-09 6.6704e-11 -6.6704e-11 -1.09724e+07 -1.20705e+07 2.06807e+08 2.0277e-08 -4.21971e+07
190 2 3.7 -9.25 -1.85 5.75577e+06 -3.32225e+07 5.75577e+06 -3.71302e-12 -0 -7.55979e-10 -1.09724e+07 -1.20705e+07 2.06807e+08 1.35796e-10 -4.21971e+07
191 2 9.25 -9.25 -3.7 -3.37763e+07 -3.37763e+07 4.01698e+06 -733490 -4.44693e-11 -2.22347e-11 1.97306e+08 -1.55982e+07 1.97306e+08 -4.14123e+06 -4.83534e+07
192 2 7.4 -9.25 -1.85 5.75403e+06 -3.32225e+07 5.75577e+06 -4.62549 8.67152e-10 -8.89387e-10 -1.04843e+07 -1.19642e+07 2.06807e+08 138.136 -4.21975e+07
193 2 -9.25 -5.55 -3.7 -3.32225e+07 5.75577e+06 5.75577e+06 2.48332e-10 6.6704e-11 -6.6704e-11 2.06807e+08 -1.06487e+07 -1.09724e+07 -8.17767e-09 -3.21886e+06
194 2 -9.25 -7.4 -1.85 -3.32225e+07 5.75403e+06 5.75577e+06 4.62549 -8.00448e-10 -0 2.06807e+08 -1.0649e+07 -1.04843e+07 -840.478 -3.22094e+06
195 2 -7.4 -7.4 -3.7 7.03256e+06 7.03256e+06 7.03291e+06 -0 -0 -0 8.05941e+06 543889 8.05941e+06 -0 7.59757e+06
196 2 -5.55 -5.55 -3.7 7.03291e+06 7.03291e+06 7.03291e+06 1.77877e-10 -0 -0 7.95659e+06 522768 7.95659e+06 1.33408e-10 7.59792e+06
197 2 -5.55 -7.4 -1.85 7.03291e+06 7.03256e+06 7.03291e+06 -0 -1.77877e-10 -0 7.95659e+06 522768 8.05941e+06 1.38967e-12 7.59757e+06
198 2 -7.4 -5.55 -1.85 7.03256e+06 7.03291e+06 7.03291e+06 -0 -0 -1.77877e-10 8.05941e+06 543889 7.95659e+06 -0 7.59792e+06
199 2 -3.7 -7.4 -3.7 7.03291e+06 7.03256e+06 7.03291e+06 -0 -0 -0 7.95659e+06 522768 8.05941e+06 -0 7.59757e+06
200 2 -1.85 -5.55 -3.7 7.03291e+06 7.03291e+06 7.03291e+06 -1.77877e-10 -0 -0 7.95659e+06 522768 7.95659e+06 -1.33408e-10 7.59792e+06
201 2 -1.85 -7.4 -1.85 7.03291e+06 7.03256e+06 7.03291e+06 -0 1.77877e-10 -0 7.95659e+06 522768 8.05941e+06 -0 7.59757e+06
202 2 -3.7 -5.55 -1.85 7.03291e+06 7.03291e+06 7.03291e+06 -0 -0 -1.77877e-10 7.95659e+06 522768 7.95659e+06 -0 7.59792e+06
203 2 0 -7.4 -3.7 7.03291e+06 7.03256e+06 7.03291e+06 -0 -0 -0 7.95659e+06 522768 8.05941e+06 -0 7.59757e+06
204 2 1.85 -5.55 -3.7 7.03291e+06 7.03291e+06 7.03291e+06 -1.77877e-10 -0 -0 7.95659e+06 522768 7.95659e+06 5.5809e-09 7.59792e+06
205 2 1.85 -7.4 -1.85 7.03291e+06 7.03256e+06 7.03291e+06 -0 1.77877e-10 -0 7.95659e+06 522768 8.05941e+06 -0 7.59757e+06
206 2 0 -5.55 -1.85 7.03291e+06 7.03291e+06 7.03291e+06 1.77877e-10 -1.77877e-10 -1.77877e-10 7.95659e+06 522768 7.95659e+06 -5.5809e-09 7.59792e+06
207 2 3.7 -7.4 -3.7 7.03291e+06 7.03256e+06 7.03291e+06 -0 -0 -0 7.95659e+06 522768 8.05941e+06 -0 7.59757e+06
208 2 5.55 -5.55 -3.7 7.03291e+06 7.03291e+06 7.03291e+06 1.77877e-10 -0 -0 7.95659e+06 522768 7.95659e+06 1.77877e-10 7.59792e+06
209 2 5.55 -7.4 -1.85 7.03291e+06 7.03256e+06 7.03291e+06 -0 -1.77877e-10 -0 7.95659e+06 522768 8.05941e+06 -0 7.59757e+06
210 2 3.7 -5.55 -1.85 7.03291e+06 7.03291e+06 7.03291e+06 -0 -0 -1.77877e-10 7.95659e+06 522768 7.95659e+06 -0 7.59792e+06
211 2 7.4 -7.4 -3.7 7.03256e+06 7.03256e+06 7.03291e+06 -0 -0 -0 8.05941e+06 543889 8.05941e+06 -6.94833e-13 7.59757e+06
212 2 9.25 -5.55 -3.7 -3.32225e+07 5.75577e+06 5.75577e+06 -4.26208e-10 -2.22347e-11 -0 2.06807e+08 -1.06487e+07 -1.09724e+07 1.38697e-08 -3.21886e+06
213 2 9.25 -7.4 -1.85 -3.32225e+07 5.75403e+06 5.75577e+06 -4.62549 9.33856e-10 6.6704e-11 2.06807e+08 -1.0649e+07 -1.04843e+07 840.478 -3.22094e+06
214 2 7.4 -5.55 -1.85 7.03256e+06 7.03291e+06 7.03291e+06 -0 -0 -1.77877e-10 8.05941e+06 543889 7.95659e+06 -5.75878e-09 7.59792e+06