ITEM: TIMESTEP
0
ITEM: NUMBER OF ATOMS
6441
ITEM: BOX BOUNDS xy xz yz pp pp pp
-4.0000000000000000e+01 4.0000000000000000e+01 0.0000000000000000e+00
-4.0000000000000000e+01 4.0000000000000000e+01 0.0000000000000000e+00
-5.0000000000000000e-01 5.0000000000000000e-01 0.0000000000000000e+00
ITEM: ATOMS id type x y z c_1[1] c_1[2] c_1[3] c_1[4] c_1[5] c_1[6] c_1[7] c_1[8] c_1[13] c_1[15] c_1[22]
1 1 -39.598 -39.598 0 -282.864 -1721.71 -0 1.46344 -0 -0 4266.04 23.8345 24985.5 -10.9882 23.8345
2 1 -38.1838 -39.598 0 4.74234 -1721.25 -0 0.000496202 -0 -0 -27.313 -4.47208 24966.8 -0.00454587 -4.47208
3 1 -36.7696 -39.598 0 4.51502 -1721.26 -0 -9.4369e-16 -0 -0 -25.6193 -4.36677 24966.8 -7.21645e-16 -4.36677
4 1 -35.3553 -39.598 0 4.51502 -1721.26 -0 9.4369e-16 -0 -0 -25.6193 -4.36677 24966.8 7.21645e-16 -4.36677
5 1 -33.9411 -39.598 0 4.51502 -1721.26 -0 -9.4369e-16 -0 -0 -25.6193 -4.36677 24966.8 -7.21645e-16 -4.36677
6 1 -32.5269 -39.598 0 4.51502 -1721.26 -0 9.4369e-16 -0 -0 -25.6193 -4.36677 24966.8 7.21645e-16 -4.36677
7 1 -31.1127 -39.598 0 4.51502 -1721.26 -0 -2.22045e-16 -0 -0 -25.6193 -4.36677 24966.8 -1.27676e-15 -4.36677
8 1 -29.6985 -39.598 0 4.51502 -1721.26 -0 -0 -0 -0 -25.6193 -4.36677 24966.8 -0 -4.36677
9 1 -28.2843 -39.598 0 4.51502 -1721.26 -0 -0 -0 -0 -25.6193 -4.36677 24966.8 -0 -4.36677
10 1 -26.8701 -39.598 0 4.51502 -1721.26 -0 2.22045e-16 -0 -0 -25.6193 -4.36677 24966.8 1.27676e-15 -4.36677
11 1 -25.4558 -39.598 0 4.51502 -1721.26 -0 -2.22045e-16 -0 -0 -25.6193 -4.36677 24966.8 -1.27676e-15 -4.36677
12 1 -24.0416 -39.598 0 4.51502 -1721.26 -0 -7.21645e-16 -0 -0 -25.6193 -4.36677 24966.8 5.55112e-16 -4.36677
13 1 -22.6274 -39.598 0 4.51502 -1721.26 -0 9.4369e-16 -0 -0 -25.6193 -4.36677 24966.8 7.21645e-16 -4.36677
14 1 -21.2132 -39.598 0 4.51502 -1721.26 -0 -2.22045e-16 -0 -0 -25.6193 -4.36677 24966.8 -1.27676e-15 -4.36677
15 1 -19.799 -39.598 0 4.51502 -1721.26 -0 2.22045e-16 -0 -0 -25.6193 -4.36677 24966.8 1.27676e-15 -4.36677
16 1 -18.3848 -39.598 0 4.51502 -1721.26 -0 -2.22045e-16 -0 -0 -25.6193 -4.36677 24966.8 -1.27676e-15 -4.36677
17 1 -16.9706 -39.598 0 4.51502 -1721.26 -0 -0 -0 -0 -25.6193 -4.36677 24966.8 -0 -4.36677
18 1 -15.5563 -39.598 0 4.51502 -1721.26 -0 -0 -0 -0 -25.6193 -4.36677 24966.8 -0 -4.36677
19 1 -14.1421 -39.598 0 4.51502 -1721.26 -0 2.22045e-16 -0 -0 -25.6193 -4.36677 24966.8 1.27676e-15 -4.36677
20 1 -12.7279 -39.598 0 4.51502 -1721.26 -0 -1.65146e-15 -0 -0 -25.6193 -4.36677 24966.8 -5.55112e-17 -4.36677
21 1 -11.3137 -39.598 0 4.51502 -1721.26 -0 1.65146e-15 -0 -0 -25.6193 -4.36677 24966.8 5.55112e-17 -4.36677
22 1 -9.89949 -39.598 0 4.51502 -1721.26 -0 -0 -0 -0 -25.6193 -4.36677 24966.8 -0 -4.36677
23 1 -8.48528 -39.598 0 4.51502 -1721.26 -0 -2.22045e-16 -0 -0 -25.6193 -4.36677 24966.8 -1.27676e-15 -4.36677
24 1 -7.07107 -39.598 0 4.51502 -1721.26 -0 2.22045e-16 -0 -0 -25.6193 -4.36677 24966.8 1.27676e-15 -4.36677
25 1 -5.65685 -39.598 0 4.51502 -1721.26 -0 -9.4369e-16 -0 -0 -25.6193 -4.36677 24966.8 -7.21645e-16 -4.36677
26 1 -4.24264 -39.598 0 4.51502 -1721.26 -0 9.4369e-16 -0 -0 -25.6193 -4.36677 24966.8 7.21645e-16 -4.36677
27 1 -2.82843 -39.598 0 4.51502 -1721.26 -0 -9.4369e-16 -0 -0 -25.6193 -4.36677 24966.8 -7.21645e-16 -4.36677
28 1 -1.41421 -39.598 0 4.51502 -1721.26 -0 9.4369e-16 -0 -0 -25.6193 -4.36677 24966.8 7.21645e-16 -4.36677
29 1 0 -39.598 0 4.51502 -1721.26 -0 -0 -0 -0 -25.6193 -4.36677 24966.8 -0 -4.36677
30 1 1.41421 -39.598 0 4.51502 -1721.26 -0 -9.4369e-16 -0 -0 -25.6193 -4.36677 24966.8 -7.21645e-16 -4.36677
31 1 2.82843 -39.598 0 4.51502 -1721.26 -0 9.4369e-16 -0 -0 -25.6193 -4.36677 24966.8 7.21645e-16 -4.36677
32 1 4.24264 -39.598 0 4.51502 -1721.26 -0 -9.4369e-16 -0 -0 -25.6193 -4.36677 24966.8 -7.21645e-16 -4.36677
33 1 5.65685 -39.598 0 4.51502 -1721.26 -0 9.4369e-16 -0 -0 -25.6193 -4.36677 24966.8 7.21645e-16 -4.36677
34 1 7.07107 -39.598 0 4.51502 -1721.26 -0 -0 -0 -0 -25.6193 -4.36677 24966.8 -0 -4.36677
35 1 8.48528 -39.598 0 4.51502 -1721.26 -0 -1.95677e-15 -0 -0 -25.6193 -4.36677 24966.8 -7.21645e-16 -4.36677
36 1 9.89949 -39.598 0 4.51502 -1721.26 -0 1.95677e-15 -0 -0 -25.6193 -4.36677 24966.8 7.21645e-16 -4.36677
37 1 11.3137 -39.598 0 4.51502 -1721.26 -0 -9.4369e-16 -0 -0 -25.6193 -4.36677 24966.8 -7.21645e-16 -4.36677
38 1 12.7279 -39.598 0 4.51502 -1721.26 -0 9.4369e-16 -0 -0 -25.6193 -4.36677 24966.8 7.21645e-16 -4.36677
39 1 14.1421 -39.598 0 4.51502 -1721.26 -0 -0 -0 -0 -25.6193 -4.36677 24966.8 -0 -4.36677
40 1 15.5563 -39.598 0 4.51502 -1721.26 -0 2.77556e-17 -0 -0 -25.6193 -4.36677 24966.8 -5.55112e-17 -4.36677
58 1 -39.598 -38.8909 0 -284.435 -2878.71 -0 -0.0561937 -0 -0 4285.24 37.6977 41483.4 0.302767 37.6977
59 1 -38.1838 -38.8909 0 4.9477 -2876.92 -0 -4.30211e-16 -0 -0 -28.6768 -4.44 41455.6 3.85109e-16 -4.44
60 1 -36.7696 -38.8909 0 4.71361 -2876.93 -0 -2.22045e-16 -0 -0 -26.9232 -4.34128 41455.6 8.88178e-16 -4.34128
61 1 -35.3553 -38.8909 0 4.71361 -2876.93 -0 2.22045e-16 -0 -0 -26.9232 -4.34128 41455.6 -9.99201e-16 -4.34128
62 1 -33.9411 -38.8909 0 4.71361 -2876.93 -0 -2.22045e-16 -0 -0 -26.9232 -4.34128 41455.6 8.88178e-16 -4.34128
63 1 -32.5269 -38.8909 0 4.71361 -2876.93 -0 2.22045e-16 -0 -0 -26.9232 -4.34128 41455.6 -9.99201e-16 -4.34128
64 1 -31.1127 -38.8909 0 4.71361 -2876.93 -0 -4.16334e-17 -0 -0 -26.9232 -4.34128 41455.6 -5.55112e-17 -4.34128
65 1 -29.6985 -38.8909 0 4.71361 -2876.93 -0 -1.38778e-17 -0 -0 -26.9232 -4.34128 41455.6 -5.55112e-17 -4.34128
66 1 -28.2843 -38.8909 0 4.71361 -2876.93 -0 -1.38778e-17 -0 -0 -26.9232 -4.34128 41455.6 -5.55112e-17 -4.34128
67 1 -26.8701 -38.8909 0 4.71361 -2876.93 -0 1.38778e-17 -0 -0 -26.9232 -4.34128 41455.6 5.55112e-17 -4.34128
68 1 -25.4558 -38.8909 0 4.71361 -2876.93 -0 -4.16334e-17 -0 -0 -26.9232 -4.34128 41455.6 -5.55112e-17 -4.34128
69 1 -24.0416 -38.8909 0 4.71361 -2876.93 -0 -1.94289e-16 -0 -0 -26.9232 -4.34128 41455.6 9.99201e-16 -4.34128
70 1 -22.6274 -38.8909 0 4.71361 -2876.93 -0 2.22045e-16 -0 -0 -26.9232 -4.34128 41455.6 -9.99201e-16 -4.34128
71 1 -21.2132 -38.8909 0 4.71361 -2876.93 -0 -4.16334e-17 -0 -0 -26.9232 -4.34128 41455.6 -5.55112e-17 -4.34128
72 1 -19.799 -38.8909 0 4.71361 -2876.93 -0 1.38778e-17 -0 -0 -26.9232 -4.34128 41455.6 5.55112e-17 -4.34128
73 1 -18.3848 -38.8909 0 4.71361 -2876.93 -0 -4.16334e-17 -0 -0 -26.9232 -4.34128 41455.6 -5.55112e-17 -4.34128
74 1 -16.9706 -38.8909 0 4.71361 -2876.93 -0 -1.38778e-17 -0 -0 -26.9232 -4.34128 41455.6 -5.55112e-17 -4.34128
75 1 -15.5563 -38.8909 0 4.71361 -2876.93 -0 -1.38778e-17 -0 -0 -26.9232 -4.34128 41455.6 -5.55112e-17 -4.34128
76 1 -14.1421 -38.8909 0 4.71361 -2876.93 -0 1.38778e-17 -0 -0 -26.9232 -4.34128 41455.6 5.55112e-17 -4.34128
77 1 -12.7279 -38.8909 0 4.71361 -2876.93 -0 -4.57967e-16 -0 -0 -26.9232 -4.34128 41455.6 1.88738e-15 -4.34128
78 1 -11.3137 -38.8909 0 4.71361 -2876.93 -0 4.44089e-16 -0 -0 -26.9232 -4.34128 41455.6 -1.83187e-15 -4.34128
79 1 -9.89949 -38.8909 0 4.71361 -2876.93 -0 -1.38778e-17 -0 -0 -26.9232 -4.34128 41455.6 5.55112e-17 -4.34128
80 1 -8.48528 -38.8909 0 4.71361 -2876.93 -0 -4.16334e-17 -0 -0 -26.9232 -4.34128 41455.6 -5.55112e-17 -4.34128
81 1 -7.07107 -38.8909 0 4.71361 -2876.93 -0 1.38778e-17 -0 -0 -26.9232 -4.34128 41455.6 5.55112e-17 -4.34128
82 1 -5.65685 -38.8909 0 4.71361 -2876.93 -0 -2.22045e-16 -0 -0 -26.9232 -4.34128 41455.6 8.88178e-16 -4.34128
83 1 -4.24264 -38.8909 0 4.71361 -2876.93 -0 2.22045e-16 -0 -0 -26.9232 -4.34128 41455.6 -9.99201e-16 -4.34128
84 1 -2.82843 -38.8909 0 4.71361 -2876.93 -0 -2.22045e-16 -0 -0 -26.9232 -4.34128 41455.6 8.88178e-16 -4.34128
85 1 -1.41421 -38.8909 0 4.71361 -2876.93 -0 2.22045e-16 -0 -0 -26.9232 -4.34128 41455.6 -9.99201e-16 -4.34128
86 1 0 -38.8909 0 4.71361 -2876.93 -0 -1.38778e-17 -0 -0 -26.9232 -4.34128 41455.6 5.55112e-17 -4.34128
87 1 1.41421 -38.8909 0 4.71361 -2876.93 -0 -2.22045e-16 -0 -0 -26.9232 -4.34128 41455.6 8.88178e-16 -4.34128
88 1 2.82843 -38.8909 0 4.71361 -2876.93 -0 2.22045e-16 -0 -0 -26.9232 -4.34128 41455.6 -9.99201e-16 -4.34128
89 1 4.24264 -38.8909 0 4.71361 -2876.93 -0 -2.22045e-16 -0 -0 -26.9232 -4.34128 41455.6 8.88178e-16 -4.34128
90 1 5.65685 -38.8909 0 4.71361 -2876.93 -0 2.22045e-16 -0 -0 -26.9232 -4.34128 41455.6 -9.99201e-16 -4.34128
91 1 7.07107 -38.8909 0 4.71361 -2876.93 -0 -1.38778e-17 -0 -0 -26.9232 -4.34128 41455.6 5.55112e-17 -4.34128
92 1 8.48528 -38.8909 0 4.71361 -2876.93 -0 -6.66134e-16 -0 -0 -26.9232 -4.34128 41455.6 2.72005e-15 -4.34128
93 1 9.89949 -38.8909 0 4.71361 -2876.93 -0 6.52256e-16 -0 -0 -26.9232 -4.34128 41455.6 -2.66454e-15 -4.34128
94 1 11.3137 -38.8909 0 4.71361 -2876.93 -0 -2.22045e-16 -0 -0 -26.9232 -4.34128 41455.6 8.88178e-16 -4.34128
95 1 12.7279 -38.8909 0 4.71361 -2876.93 -0 2.22045e-16 -0 -0 -26.9232 -4.34128 41455.6 -9.99201e-16 -4.34128
96 1 14.1421 -38.8909 0 4.71361 -2876.93 -0 -1.38778e-17 -0 -0 -26.9232 -4.34128 41455.6 5.55112e-17 -4.34128
97 1 15.5563 -38.8909 0 4.71361 -2876.93 -0 -0 -0 -0 -26.9232 -4.34128 41455.6 -0 -4.34128
115 1 -39.598 -38.1838 0 -284.369 -2878.32 -0 -0.00672458 -0 -0 4285.05 37.4231 41481.9 0.0444905 37.4231
116 1 -38.1838 -38.1838 0 4.9904 -2876.61 -0 -4.16334e-16 -0 -0 -28.877 -4.56804 41454.5 4.4062e-16 -4.56804
117 1 -36.7696 -38.1838 0 4.75631 -2876.62 -0 2.77556e-17 -0 -0 -27.1234 -4.46932 41454.5 -0 -4.46932
118 1 -35.3553 -38.1838 0 4.75631 -2876.62 -0 -2.77556e-17 -0 -0 -27.1234 -4.46932 41454.5 -0 -4.46932
119 1 -33.9411 -38.1838 0 4.75631 -2876.62 -0 2.77556e-17 -0 -0 -27.1234 -4.46932 41454.5 -0 -4.46932
120 1 -32.5269 -38.1838 0 4.75631 -2876.62 -0 -2.77556e-17 -0 -0 -27.1234 -4.46932 41454.5 -0 -4.46932
121 1 -31.1127 -38.1838 0 4.75631 -2876.62 -0 -0 -0 -0 -27.1234 -4.46932 41454.5 -0 -4.46932
122 1 -29.6985 -38.1838 0 4.75631 -2876.62 -0 -0 -0 -0 -27.1234 -4.46932 41454.5 -0 -4.46932
123 1 -28.2843 -38.1838 0 4.75631 -2876.62 -0 -0 -0 -0 -27.1234 -4.46932 41454.5 -0 -4.46932
124 1 -26.8701 -38.1838 0 4.75631 -2876.62 -0 -0 -0 -0 -27.1234 -4.46932 41454.5 -0 -4.46932
125 1 -25.4558 -38.1838 0 4.75631 -2876.62 -0 -0 -0 -0 -27.1234 -4.46932 41454.5 -0 -4.46932
126 1 -24.0416 -38.1838 0 4.75631 -2876.62 -0 2.77556e-17 -0 -0 -27.1234 -4.46932 41454.5 -0 -4.46932
127 1 -22.6274 -38.1838 0 4.75631 -2876.62 -0 -2.77556e-17 -0 -0 -27.1234 -4.46932 41454.5 -0 -4.46932
128 1 -21.2132 -38.1838 0 4.75631 -2876.62 -0 -0 -0 -0 -27.1234 -4.46932 41454.5 -0 -4.46932
129 1 -19.799 -38.1838 0 4.75631 -2876.62 -0 -0 -0 -0 -27.1234 -4.46932 41454.5 -0 -4.46932
130 1 -18.3848 -38.1838 0 4.75631 -2876.62 -0 -0 -0 -0 -27.1234 -4.46932 41454.5 -0 -4.46932
131 1 -16.9706 -38.1838 0 4.75631 -2876.62 -0 -0 -0 -0 -27.1234 -4.46932 41454.5 -0 -4.46932
132 1 -15.5563 -38.1838 0 4.75631 -2876.62 -0 -0 -0 -0 -27.1234 -4.46932 41454.5 -0 -4.46932
133 1 -14.1421 -38.1838 0 4.75631 -2876.62 -0 -0 -0 -0 -27.1234 -4.46932 41454.5 -0 -4.46932
134 1 -12.7279 -38.1838 0 4.75631 -2876.62 -0 1.38778e-17 -0 -0 -27.1234 -4.46932 41454.5 -0 -4.46932
135 1 -11.3137 -38.1838 0 4.75631 -2876.62 -0 -1.38778e-17 -0 -0 -27.1234 -4.46932 41454.5 -0 -4.46932
136 1 -9.89949 -38.1838 0 4.75631 -2876.62 -0 -0 -0 -0 -27.1234 -4.46932 41454.5 -0 -4.46932
137 1 -8.48528 -38.1838 0 4.75631 -2876.62 -0 -0 -0 -0 -27.1234 -4.46932 41454.5 -0 -4.46932
138 1 -7.07107 -38.1838 0 4.75631 -2876.62 -0 -0 -0 -0 -27.1234 -4.46932 41454.5 -0 -4.46932
139 1 -5.65685 -38.1838 0 4.75631 -2876.62 -0 2.77556e-17 -0 -0 -27.1234 -4.46932 41454.5 -0 -4.46932
140 1 -4.24264 -38.1838 0 4.75631 -2876.62 -0 -2.77556e-17 -0 -0 -27.1234 -4.46932 41454.5 -0 -4.46932
141 1 -2.82843 -38.1838 0 4.75631 -2876.62 -0 2.77556e-17 -0 -0 -27.1234 -4.46932 41454.5 -0 -4.46932
142 1 -1.41421 -38.1838 0 4.75631 -2876.62 -0 -2.77556e-17 -0 -0 -27.1234 -4.46932 41454.5 -0 -4.46932
143 1 0 -38.1838 0 4.75631 -2876.62 -0 -0 -0 -0 -27.1234 -4.46932 41454.5 -0 -4.46932
144 1 1.41421 -38.1838 0 4.75631 -2876.62 -0 2.77556e-17 -0 -0 -27.1234 -4.46932 41454.5 -0 -4.46932
145 1 2.82843 -38.1838 0 4.75631 -2876.62 -0 -2.77556e-17 -0 -0 -27.1234 -4.46932 41454.5 -0 -4.46932
146 1 4.24264 -38.1838 0 4.75631 -2876.62 -0 2.77556e-17 -0 -0 -27.1234 -4.46932 41454.5 -0 -4.46932
147 1 5.65685 -38.1838 0 4.75631 -2876.62 -0 -2.77556e-17 -0 -0 -27.1234 -4.46932 41454.5 -0 -4.46932
148 1 7.07107 -38.1838 0 4.75631 -2876.62 -0 -0 -0 -0 -27.1234 -4.46932 41454.5 -0 -4.46932
149 1 8.48528 -38.1838 0 4.75631 -2876.62 -0 1.38778e-17 -0 -0 -27.1234 -4.46932 41454.5 -0 -4.46932
150 1 9.89949 -38.1838 0 4.75631 -2876.62 -0 -1.38778e-17 -0 -0 -27.1234 -4.46932 41454.5 -0 -4.46932
151 1 11.3137 -38.1838 0 4.75631 -2876.62 -0 2.77556e-17 -0 -0 -27.1234 -4.46932 41454.5 -0 -4.46932
152 1 12.7279 -38.1838 0 4.75631 -2876.62 -0 -2.77556e-17 -0 -0 -27.1234 -4.46932 41454.5 -0 -4.46932
153 1 14.1421 -38.1838 0 4.75631 -2876.62 -0 -0 -0 -0 -27.1234 -4.46932 41454.5 -0 -4.46932
154 1 15.5563 -38.1838 0 4.75631 -2876.62 -0 -0 -0 -0 -27.1234 -4.46932 41454.5 -5.55112e-17 -4.46932
172 1 -39.598 -37.4767 0 -284.366 -2878.28 -0 2.00839e-13 -0 -0 4285.04 37.4037 41481.6 -1.73372e-12 37.4037
173 1 -38.1838 -37.4767 0 4.9904 -2876.58 -0 -4.02456e-16 -0 -0 -28.877 -4.56804 41454.3 4.4062e-16 -4.56804
174 1 -36.7696 -37.4767 0 4.75631 -2876.59 -0 -8.32667e-17 -0 -0 -27.1234 -4.46932 41454.3 5.55112e-16 -4.46932
175 1 -35.3553 -37.4767 0 4.75631 -2876.59 -0 6.93889e-17 -0 -0 -27.1234 -4.46932 41454.3 -5.55112e-16 -4.46932
176 1 -33.9411 -37.4767 0 4.75631 -2876.59 -0 -8.32667e-17 -0 -0 -27.1234 -4.46932 41454.3 5.55112e-16 -4.46932
177 1 -32.5269 -37.4767 0 4.75631 -2876.59 -0 6.93889e-17 -0 -0 -27.1234 -4.46932 41454.3 -5.55112e-16 -4.46932
178 1 -31.1127 -37.4767 0 4.75631 -2876.59 -0 -1.11022e-16 -0 -0 -27.1234 -4.46932 41454.3 6.10623e-16 -4.46932
179 1 -29.6985 -37.4767 0 4.75631 -2876.59 -0 -0 -0 -0 -27.1234 -4.46932 41454.3 -5.55112e-17 -4.46932
180 1 -28.2843 -37.4767 0 4.75631 -2876.59 -0 -0 -0 -0 -27.1234 -4.46932 41454.3 -5.55112e-17 -4.46932
181 1 -26.8701 -37.4767 0 4.75631 -2876.59 -0 1.249e-16 -0 -0 -27.1234 -4.46932 41454.3 -5.55112e-16 -4.46932
182 1 -25.4558 -37.4767 0 4.75631 -2876.59 -0 -1.11022e-16 -0 -0 -27.1234 -4.46932 41454.3 6.10623e-16 -4.46932
183 1 -24.0416 -37.4767 0 4.75631 -2876.59 -0 2.77556e-17 -0 -0 -27.1234 -4.46932 41454.3 -0 -4.46932
184 1 -22.6274 -37.4767 0 4.75631 -2876.59 -0 6.93889e-17 -0 -0 -27.1234 -4.46932 41454.3 -5.55112e-16 -4.46932
185 1 -21.2132 -37.4767 0 4.75631 -2876.59 -0 -1.11022e-16 -0 -0 -27.1234 -4.46932 41454.3 6.10623e-16 -4.46932
186 1 -19.799 -37.4767 0 4.75631 -2876.59 -0 1.249e-16 -0 -0 -27.1234 -4.46932 41454.3 -5.55112e-16 -4.46932
187 1 -18.3848 -37.4767 0 4.75631 -2876.59 -0 -1.11022e-16 -0 -0 -27.1234 -4.46932 41454.3 6.10623e-16 -4.46932
188 1 -16.9706 -37.4767 0 4.75631 -2876.59 -0 -0 -0 -0 -27.1234 -4.46932 41454.3 -5.55112e-17 -4.46932
189 1 -15.5563 -37.4767 0 4.75631 -2876.59 -0 -0 -0 -0 -27.1234 -4.46932 41454.3 -5.55112e-17 -4.46932
190 1 -14.1421 -37.4767 0 4.75631 -2876.59 -0 1.249e-16 -0 -0 -27.1234 -4.46932 41454.3 -5.55112e-16 -4.46932
191 1 -12.7279 -37.4767 0 4.75631 -2876.59 -0 1.38778e-17 -0 -0 -27.1234 -4.46932 41454.3 1.11022e-16 -4.46932
192 1 -11.3137 -37.4767 0 4.75631 -2876.59 -0 1.38778e-17 -0 -0 -27.1234 -4.46932 41454.3 -1.11022e-16 -4.46932
193 1 -9.89949 -37.4767 0 4.75631 -2876.59 -0 1.38778e-17 -0 -0 -27.1234 -4.46932 41454.3 -0 -4.46932
194 1 -8.48528 -37.4767 0 4.75631 -2876.59 -0 -1.11022e-16 -0 -0 -27.1234 -4.46932 41454.3 6.10623e-16 -4.46932
195 1 -7.07107 -37.4767 0 4.75631 -2876.59 -0 1.249e-16 -0 -0 -27.1234 -4.46932 41454.3 -5.55112e-16 -4.46932
196 1 -5.65685 -37.4767 0 4.75631 -2876.59 -0 -8.32667e-17 -0 -0 -27.1234 -4.46932 41454.3 5.55112e-16 -4.46932
197 1 -4.24264 -37.4767 0 4.75631 -2876.59 -0 6.93889e-17 -0 -0 -27.1234 -4.46932 41454.3 -5.55112e-16 -4.46932
198 1 -2.82843 -37.4767 0 4.75631 -2876.59 -0 -8.32667e-17 -0 -0 -27.1234 -4.46932 41454.3 5.55112e-16 -4.46932
199 1 -1.41421 -37.4767 0 4.75631 -2876.59 -0 6.93889e-17 -0 -0 -27.1234 -4.46932 41454.3 -5.55112e-16 -4.46932
200 1 0 -37.4767 0 4.75631 -2876.59 -0 1.38778e-17 -0 -0 -27.1234 -4.46932 41454.3 -0 -4.46932
201 1 1.41421 -37.4767 0 4.75631 -2876.59 -0 -8.32667e-17 -0 -0 -27.1234 -4.46932 41454.3 5.55112e-16 -4.46932
202 1 2.82843 -37.4767 0 4.75631 -2876.59 -0 6.93889e-17 -0 -0 -27.1234 -4.46932 41454.3 -5.55112e-16 -4.46932
203 1 4.24264 -37.4767 0 4.75631 -2876.59 -0 -8.32667e-17 -0 -0 -27.1234 -4.46932 41454.3 5.55112e-16 -4.46932
204 1 5.65685 -37.4767 0 4.75631 -2876.59 -0 6.93889e-17 -0 -0 -27.1234 -4.46932 41454.3 -5.55112e-16 -4.46932
205 1 7.07107 -37.4767 0 4.75631 -2876.59 -0 1.38778e-17 -0 -0 -27.1234 -4.46932 41454.3 -0 -4.46932
206 1 8.48528 -37.4767 0 4.75631 -2876.59 -0 1.38778e-17 -0 -0 -27.1234 -4.46932 41454.3 -1.66533e-16 -4.46932
207 1 9.89949 -37.4767 0 4.75631 -2876.59 -0 1.38778e-17 -0 -0 -27.1234 -4.46932 41454.3 1.11022e-16 -4.46932
208 1 11.3137 -37.4767 0 4.75631 -2876.59 -0 -8.32667e-17 -0 -0 -27.1234 -4.46932 41454.3 5.55112e-16 -4.46932
209 1 12.7279 -37.4767 0 4.75631 -2876.59 -0 6.93889e-17 -0 -0 -27.1234 -4.46932 41454.3 -5.55112e-16 -4.46932
210 1 14.1421 -37.4767 0 4.75631 -2876.59 -0 1.38778e-17 -0 -0 -27.1234 -4.46932 41454.3 -0 -4.46932
211 1 15.5563 -37.4767 0 4.75631 -2876.59 -0 -0 -0 -0 -27.1234 -4.46932 41454.3 -5.55112e-17 -4.46932
229 1 -39.598 -36.7696 0 -284.366 -2878.28 -0 2.74225e-14 -0 -0 4285.04 37.4037 41481.6 -6.25278e-13 37.4037
230 1 -38.1838 -36.7696 0 4.9904 -2876.58 -0 -4.71845e-16 -0 -0 -28.877 -4.56804 41454.3 7.18176e-16 -4.56804
231 1 -36.7696 -36.7696 0 4.75631 -2876.59 -0 -1.52656e-16 -0 -0 -27.1234 -4.46932 41454.3 9.4369e-16 -4.46932
232 1 -35.3553 -36.7696 0 4.75631 -2876.59 -0 1.52656e-16 -0 -0 -27.1234 -4.46932 41454.3 -9.4369e-16 -4.46932
233 1 -33.9411 -36.7696 0 4.75631 -2876.59 -0 -1.52656e-16 -0 -0 -27.1234 -4.46932 41454.3 9.4369e-16 -4.46932
234 1 -32.5269 -36.7696 0 4.75631 -2876.59 -0 1.52656e-16 -0 -0 -27.1234 -4.46932 41454.3 -9.4369e-16 -4.46932
235 1 -31.1127 -36.7696 0 4.75631 -2876.59 -0 -2.91434e-16 -0 -0 -27.1234 -4.46932 41454.3 1.11022e-15 -4.46932
236 1 -29.6985 -36.7696 0 4.75631 -2876.59 -0 -0 -0 -0 -27.1234 -4.46932 41454.3 -0 -4.46932
237 1 -28.2843 -36.7696 0 4.75631 -2876.59 -0 -0 -0 -0 -27.1234 -4.46932 41454.3 -0 -4.46932
238 1 -26.8701 -36.7696 0 4.75631 -2876.59 -0 2.91434e-16 -0 -0 -27.1234 -4.46932 41454.3 -1.11022e-15 -4.46932
239 1 -25.4558 -36.7696 0 4.75631 -2876.59 -0 -2.91434e-16 -0 -0 -27.1234 -4.46932 41454.3 1.11022e-15 -4.46932
240 1 -24.0416 -36.7696 0 4.75631 -2876.59 -0 1.38778e-16 -0 -0 -27.1234 -4.46932 41454.3 -1.66533e-16 -4.46932
241 1 -22.6274 -36.7696 0 4.75631 -2876.59 -0 1.52656e-16 -0 -0 -27.1234 -4.46932 41454.3 -9.4369e-16 -4.46932
242 1 -21.2132 -36.7696 0 4.75631 -2876.59 -0 -2.91434e-16 -0 -0 -27.1234 -4.46932 41454.3 1.11022e-15 -4.46932
243 1 -19.799 -36.7696 0 4.75631 -2876.59 -0 2.91434e-16 -0 -0 -27.1234 -4.46932 41454.3 -1.11022e-15 -4.46932
244 1 -18.3848 -36.7696 0 4.75631 -2876.59 -0 -2.91434e-16 -0 -0 -27.1234 -4.46932 41454.3 1.11022e-15 -4.46932
245 1 -16.9706 -36.7696 0 4.75631 -2876.59 -0 -0 -0 -0 -27.1234 -4.46932 41454.3 -0 -4.46932
246 1 -15.5563 -36.7696 0 4.75631 -2876.59 -0 -0 -0 -0 -27.1234 -4.46932 41454.3 -0 -4.46932
247 1 -14.1421 -36.7696 0 4.75631 -2876.59 -0 2.91434e-16 -0 -0 -27.1234 -4.46932 41454.3 -1.11022e-15 -4.46932
248 1 -12.7279 -36.7696 0 4.75631 -2876.59 -0 5.55112e-17 -0 -0 -27.1234 -4.46932 41454.3 1.11022e-16 -4.46932
249 1 -11.3137 -36.7696 0 4.75631 -2876.59 -0 -5.55112e-17 -0 -0 -27.1234 -4.46932 41454.3 -1.11022e-16 -4.46932
250 1 -9.89949 -36.7696 0 4.75631 -2876.59 -0 -0 -0 -0 -27.1234 -4.46932 41454.3 -0 -4.46932
251 1 -8.48528 -36.7696 0 4.75631 -2876.59 -0 -2.91434e-16 -0 -0 -27.1234 -4.46932 41454.3 1.11022e-15 -4.46932
252 1 -7.07107 -36.7696 0 4.75631 -2876.59 -0 2.91434e-16 -0 -0 -27.1234 -4.46932 41454.3 -1.11022e-15 -4.46932
253 1 -5.65685 -36.7696 0 4.75631 -2876.59 -0 -1.52656e-16 -0 -0 -27.1234 -4.46932 41454.3 9.4369e-16 -4.46932
254 1 -4.24264 -36.7696 0 4.75631 -2876.59 -0 1.52656e-16 -0 -0 -27.1234 -4.46932 41454.3 -9.4369e-16 -4.46932
255 1 -2.82843 -36.7696 0 4.75631 -2876.59 -0 -1.52656e-16 -0 -0 -27.1234 -4.46932 41454.3 9.4369e-16 -4.46932
256 1 -1.41421 -36.7696 0 4.75631 -2876.59 -0 1.52656e-16 -0 -0 -27.1234 -4.46932 41454.3 -9.4369e-16 -4.46932
257 1 0 -36.7696 0 4.75631 -2876.59 -0 -0 -0 -0 -27.1234 -4.46932 41454.3 -0 -4.46932
258 1 1.41421 -36.7696 0 4.75631 -2876.59 -0 -1.52656e-16 -0 -0 -27.1234 -4.46932 41454.3 9.4369e-16 -4.46932
259 1 2.82843 -36.7696 0 4.75631 -2876.59 -0 1.52656e-16 -0 -0 -27.1234 -4.46932 41454.3 -9.4369e-16 -4.46932
260 1 4.24264 -36.7696 0 4.75631 -2876.59 -0 -1.52656e-16 -0 -0 -27.1234 -4.46932 41454.3 9.4369e-16 -4.46932
261 1 5.65685 -36.7696 0 4.75631 -2876.59 -0 1.52656e-16 -0 -0 -27.1234 -4.46932 41454.3 -9.4369e-16 -4.46932
262 1 7.07107 -36.7696 0 4.75631 -2876.59 -0 -0 -0 -0 -27.1234 -4.46932 41454.3 -0 -4.46932
263 1 8.48528 -36.7696 0 4.75631 -2876.59 -0 -1.66533e-16 -0 -0 -27.1234 -4.46932 41454.3 3.88578e-16 -4.46932
264 1 9.89949 -36.7696 0 4.75631 -2876.59 -0 1.66533e-16 -0 -0 -27.1234 -4.46932 41454.3 -3.88578e-16 -4.46932
265 1 11.3137 -36.7696 0 4.75631 -2876.59 -0 -1.52656e-16 -0 -0 -27.1234 -4.46932 41454.3 9.4369e-16 -4.46932
266 1 12.7279 -36.7696 0 4.75631 -2876.59 -0 1.52656e-16 -0 -0 -27.1234 -4.46932 41454.3 -9.4369e-16 -4.46932
267 1 14.1421 -36.7696 0 4.75631 -2876.59 -0 -0 -0 -0 -27.1234 -4.46932 41454.3 -0 -4.46932
268 1 15.5563 -36.7696 0 4.75631 -2876.59 -0 -0 -0 -0 -27.1234 -4.46932 41454.3 -5.55112e-17 -4.46932
286 1 -39.598 -36.0624 0 -284.366 -2878.28 -0 3.60378e-13 -0 -0 4285.04 37.4037 41481.6 -2.73559e-12 37.4037
287 1 -38.1838 -36.0624 0 4.9904 -2876.58 -0 -3.53884e-16 -0 -0 -28.877 -4.56804 41454.3 4.16334e-17 -4.56804
288 1 -36.7696 -36.0624 0 4.75631 -2876.59 -0 1.80411e-16 -0 -0 -27.1234 -4.46932 41454.3 -9.4369e-16 -4.46932
289 1 -35.3553 -36.0624 0 4.75631 -2876.59 -0 -1.80411e-16 -0 -0 -27.1234 -4.46932 41454.3 9.4369e-16 -4.46932
290 1 -33.9411 -36.0624 0 4.75631 -2876.59 -0 1.80411e-16 -0 -0 -27.1234 -4.46932 41454.3 -9.4369e-16 -4.46932
291 1 -32.5269 -36.0624 0 4.75631 -2876.59 -0 -1.80411e-16 -0 -0 -27.1234 -4.46932 41454.3 9.4369e-16 -4.46932
292 1 -31.1127 -36.0624 0 4.75631 -2876.59 -0 2.63678e-16 -0 -0 -27.1234 -4.46932 41454.3 -1.16573e-15 -4.46932
293 1 -29.6985 -36.0624 0 4.75631 -2876.59 -0 -1.38778e-17 -0 -0 -27.1234 -4.46932 41454.3 -5.55112e-17 -4.46932
294 1 -28.2843 -36.0624 0 4.75631 -2876.59 -0 -1.38778e-17 -0 -0 -27.1234 -4.46932 41454.3 -5.55112e-17 -4.46932
295 1 -26.8701 -36.0624 0 4.75631 -2876.59 -0 -2.91434e-16 -0 -0 -27.1234 -4.46932 41454.3 1.16573e-15 -4.46932
296 1 -25.4558 -36.0624 0 4.75631 -2876.59 -0 2.63678e-16 -0 -0 -27.1234 -4.46932 41454.3 -1.16573e-15 -4.46932
297 1 -24.0416 -36.0624 0 4.75631 -2876.59 -0 -9.71445e-17 -0 -0 -27.1234 -4.46932 41454.3 1.66533e-16 -4.46932
298 1 -22.6274 -36.0624 0 4.75631 -2876.59 -0 -1.80411e-16 -0 -0 -27.1234 -4.46932 41454.3 9.4369e-16 -4.46932
299 1 -21.2132 -36.0624 0 4.75631 -2876.59 -0 2.63678e-16 -0 -0 -27.1234 -4.46932 41454.3 -1.16573e-15 -4.46932
300 1 -19.799 -36.0624 0 4.75631 -2876.59 -0 -2.91434e-16 -0 -0 -27.1234 -4.46932 41454.3 1.16573e-15 -4.46932
301 1 -18.3848 -36.0624 0 4.75631 -2876.59 -0 2.63678e-16 -0 -0 -27.1234 -4.46932 41454.3 -1.16573e-15 -4.46932
302 1 -16.9706 -36.0624 0 4.75631 -2876.59 -0 -1.38778e-17 -0 -0 -27.1234 -4.46932 41454.3 -5.55112e-17 -4.46932
303 1 -15.5563 -36.0624 0 4.75631 -2876.59 -0 -1.38778e-17 -0 -0 -27.1234 -4.46932 41454.3 -5.55112e-17 -4.46932
304 1 -14.1421 -36.0624 0 4.75631 -2876.59 -0 -2.91434e-16 -0 -0 -27.1234 -4.46932 41454.3 1.16573e-15 -4.46932
305 1 -12.7279 -36.0624 0 4.75631 -2876.59 -0 -5.55112e-17 -0 -0 -27.1234 -4.46932 41454.3 -1.11022e-16 -4.46932
306 1 -11.3137 -36.0624 0 4.75631 -2876.59 -0 4.16334e-17 -0 -0 -27.1234 -4.46932 41454.3 5.55112e-17 -4.46932
307 1 -9.89949 -36.0624 0 4.75631 -2876.59 -0 -1.38778e-17 -0 -0 -27.1234 -4.46932 41454.3 5.55112e-17 -4.46932
308 1 -8.48528 -36.0624 0 4.75631 -2876.59 -0 2.63678e-16 -0 -0 -27.1234 -4.46932 41454.3 -1.16573e-15 -4.46932
309 1 -7.07107 -36.0624 0 4.75631 -2876.59 -0 -2.91434e-16 -0 -0 -27.1234 -4.46932 41454.3 1.16573e-15 -4.46932
310 1 -5.65685 -36.0624 0 4.75631 -2876.59 -0 1.80411e-16 -0 -0 -27.1234 -4.46932 41454.3 -9.4369e-16 -4.46932
311 1 -4.24264 -36.0624 0 4.75631 -2876.59 -0 -1.80411e-16 -0 -0 -27.1234 -4.46932 41454.3 9.4369e-16 -4.46932
312 1 -2.82843 -36.0624 0 4.75631 -2876.59 -0 1.80411e-16 -0 -0 -27.1234 -4.46932 41454.3 -9.4369e-16 -4.46932
313 1 -1.41421 -36.0624 0 4.75631 -2876.59 -0 -1.80411e-16 -0 -0 -27.1234 -4.46932 41454.3 9.4369e-16 -4.46932
314 1 0 -36.0624 0 4.75631 -2876.59 -0 -1.38778e-17 -0 -0 -27.1234 -4.46932 41454.3 5.55112e-17 -4.46932
315 1 1.41421 -36.0624 0 4.75631 -2876.59 -0 1.80411e-16 -0 -0 -27.1234 -4.46932 41454.3 -9.4369e-16 -4.46932
316 1 2.82843 -36.0624 0 4.75631 -2876.59 -0 -1.80411e-16 -0 -0 -27.1234 -4.46932 41454.3 9.4369e-16 -4.46932
317 1 4.24264 -36.0624 0 4.75631 -2876.59 -0 1.80411e-16 -0 -0 -27.1234 -4.46932 41454.3 -9.4369e-16 -4.46932
318 1 5.65685 -36.0624 0 4.75631 -2876.59 -0 -1.80411e-16 -0 -0 -27.1234 -4.46932 41454.3 9.4369e-16 -4.46932
319 1 7.07107 -36.0624 0 4.75631 -2876.59 -0 -1.38778e-17 -0 -0 -27.1234 -4.46932 41454.3 5.55112e-17 -4.46932
320 1 8.48528 -36.0624 0 4.75631 -2876.59 -0 1.66533e-16 -0 -0 -27.1234 -4.46932 41454.3 -3.33067e-16 -4.46932
321 1 9.89949 -36.0624 0 4.75631 -2876.59 -0 -1.80411e-16 -0 -0 -27.1234 -4.46932 41454.3 3.88578e-16 -4.46932
322 1 11.3137 -36.0624 0 4.75631 -2876.59 -0 1.80411e-16 -0 -0 -27.1234 -4.46932 41454.3 -9.4369e-16 -4.46932
323 1 12.7279 -36.0624 0 4.75631 -2876.59 -0 -1.80411e-16 -0 -0 -27.1234 -4.46932 41454.3 9.4369e-16 -4.46932
324 1 14.1421 -36.0624 0 4.75631 -2876.59 -0 -1.38778e-17 -0 -0 -27.1234 -4.46932 41454.3 5.55112e-17 -4.46932
325 1 15.5563 -36.0624 0 4.75631 -2876.59 -0 -0 -0 -0 -27.1234 -4.46932 41454.3 -5.55112e-17 -4.46932
343 1 -39.598 -35.3553 0 -284.366 -2878.28 -0 1.90958e-13 -0 -0 4285.04 37.4037 41481.6 -1.68399e-12 37.4037
344 1 -38.1838 -35.3553 0 4.9904 -2876.58 -0 -4.16334e-16 -0 -0 -28.877 -4.56804 41454.3 4.4062e-16 -4.56804
345 1 -36.7696 -35.3553 0 4.75631 -2876.59 -0 1.38778e-16 -0 -0 -27.1234 -4.46932 41454.3 -5.55112e-16 -4.46932
346 1 -35.3553 -35.3553 0 4.75631 -2876.59 -0 -1.38778e-16 -0 -0 -27.1234 -4.46932 41454.3 5.55112e-16 -4.46932
347 1 -33.9411 -35.3553 0 4.75631 -2876.59 -0 1.38778e-16 -0 -0 -27.1234 -4.46932 41454.3 -5.55112e-16 -4.46932
348 1 -32.5269 -35.3553 0 4.75631 -2876.59 -0 -1.38778e-16 -0 -0 -27.1234 -4.46932 41454.3 5.55112e-16 -4.46932
349 1 -31.1127 -35.3553 0 4.75631 -2876.59 -0 1.11022e-16 -0 -0 -27.1234 -4.46932 41454.3 -6.10623e-16 -4.46932
350 1 -29.6985 -35.3553 0 4.75631 -2876.59 -0 -0 -0 -0 -27.1234 -4.46932 41454.3 -0 -4.46932
351 1 -28.2843 -35.3553 0 4.75631 -2876.59 -0 -0 -0 -0 -27.1234 -4.46932 41454.3 -0 -4.46932
352 1 -26.8701 -35.3553 0 4.75631 -2876.59 -0 -1.11022e-16 -0 -0 -27.1234 -4.46932 41454.3 6.10623e-16 -4.46932
353 1 -25.4558 -35.3553 0 4.75631 -2876.59 -0 1.11022e-16 -0 -0 -27.1234 -4.46932 41454.3 -6.10623e-16 -4.46932
354 1 -24.0416 -35.3553 0 4.75631 -2876.59 -0 2.77556e-17 -0 -0 -27.1234 -4.46932 41454.3 5.55112e-17 -4.46932
355 1 -22.6274 -35.3553 0 4.75631 -2876.59 -0 -1.38778e-16 -0 -0 -27.1234 -4.46932 41454.3 5.55112e-16 -4.46932
356 1 -21.2132 -35.3553 0 4.75631 -2876.59 -0 1.11022e-16 -0 -0 -27.1234 -4.46932 41454.3 -6.10623e-16 -4.46932
357 1 -19.799 -35.3553 0 4.75631 -2876.59 -0 -1.11022e-16 -0 -0 -27.1234 -4.46932 41454.3 6.10623e-16 -4.46932
358 1 -18.3848 -35.3553 0 4.75631 -2876.59 -0 1.11022e-16 -0 -0 -27.1234 -4.46932 41454.3 -6.10623e-16 -4.46932
359 1 -16.9706 -35.3553 0 4.75631 -2876.59 -0 -0 -0 -0 -27.1234 -4.46932 41454.3 -0 -4.46932
360 1 -15.5563 -35.3553 0 4.75631 -2876.59 -0 -0 -0 -0 -27.1234 -4.46932 41454.3 -0 -4.46932
361 1 -14.1421 -35.3553 0 4.75631 -2876.59 -0 -1.11022e-16 -0 -0 -27.1234 -4.46932 41454.3 6.10623e-16 -4.46932
362 1 -12.7279 -35.3553 0 4.75631 -2876.59 -0 1.38778e-17 -0 -0 -27.1234 -4.46932 41454.3 -1.66533e-16 -4.46932
363 1 -11.3137 -35.3553 0 4.75631 -2876.59 -0 -1.38778e-17 -0 -0 -27.1234 -4.46932 41454.3 1.66533e-16 -4.46932
364 1 -9.89949 -35.3553 0 4.75631 -2876.59 -0 -0 -0 -0 -27.1234 -4.46932 41454.3 -0 -4.46932
365 1 -8.48528 -35.3553 0 4.75631 -2876.59 -0 1.11022e-16 -0 -0 -27.1234 -4.46932 41454.3 -6.10623e-16 -4.46932
366 1 -7.07107 -35.3553 0 4.75631 -2876.59 -0 -1.11022e-16 -0 -0 -27.1234 -4.46932 41454.3 6.10623e-16 -4.46932
367 1 -5.65685 -35.3553 0 4.75631 -2876.59 -0 1.38778e-16 -0 -0 -27.1234 -4.46932 41454.3 -5.55112e-16 -4.46932
368 1 -4.24264 -35.3553 0 4.75631 -2876.59 -0 -1.38778e-16 -0 -0 -27.1234 -4.46932 41454.3 5.55112e-16 -4.46932
369 1 -2.82843 -35.3553 0 4.75631 -2876.59 -0 1.38778e-16 -0 -0 -27.1234 -4.46932 41454.3 -5.55112e-16 -4.46932
370 1 -1.41421 -35.3553 0 4.75631 -2876.59 -0 -1.38778e-16 -0 -0 -27.1234 -4.46932 41454.3 5.55112e-16 -4.46932
371 1 0 -35.3553 0 4.75631 -2876.59 -0 -0 -0 -0 -27.1234 -4.46932 41454.3 -0 -4.46932
372 1 1.41421 -35.3553 0 4.75631 -2876.59 -0 1.38778e-16 -0 -0 -27.1234 -4.46932 41454.3 -5.55112e-16 -4.46932
373 1 2.82843 -35.3553 0 4.75631 -2876.59 -0 -1.38778e-16 -0 -0 -27.1234 -4.46932 41454.3 5.55112e-16 -4.46932
374 1 4.24264 -35.3553 0 4.75631 -2876.59 -0 1.38778e-16 -0 -0 -27.1234 -4.46932 41454.3 -5.55112e-16 -4.46932
375 1 5.65685 -35.3553 0 4.75631 -2876.59 -0 -1.38778e-16 -0 -0 -27.1234 -4.46932 41454.3 5.55112e-16 -4.46932
376 1 7.07107 -35.3553 0 4.75631 -2876.59 -0 -0 -0 -0 -27.1234 -4.46932 41454.3 -0 -4.46932
377 1 8.48528 -35.3553 0 4.75631 -2876.59 -0 1.38778e-17 -0 -0 -27.1234 -4.46932 41454.3 1.11022e-16 -4.46932
378 1 9.89949 -35.3553 0 4.75631 -2876.59 -0 -1.38778e-17 -0 -0 -27.1234 -4.46932 41454.3 -1.11022e-16 -4.46932
379 1 11.3137 -35.3553 0 4.75631 -2876.59 -0 1.38778e-16 -0 -0 -27.1234 -4.46932 41454.3 -5.55112e-16 -4.46932