ITEM: TIMESTEP
0
ITEM: NUMBER OF ATOMS
3
ITEM: BOX BOUNDS xy xz yz pp pp pp
0.0000000000000000e+00 5.0000000000000000e+01 0.0000000000000000e+00
0.0000000000000000e+00 5.0000000000000000e+01 0.0000000000000000e+00
0.0000000000000000e+00 5.0000000000000000e+01 0.0000000000000000e+00
ITEM: ATOMS id type x y z c_1[1] c_1[2] c_1[3] c_1[4] c_1[5] c_1[6] c_1[7] c_1[22]
1 2 0.378614 0.321535 0 -2.8469e+10 -6.7027e+09 -0 1.03505e+10 -0 -0 5.14007e+13 3.6037e+14
2 2 0 0 0 -6.19437e+10 5.02888e+09 -0 6.53205e+09 -0 -0 4.71865e+18 -4.44258e+10
3 2 0.5 0 0 -5.32154e+10 -1.17316e+10 -0 2.67557e+10 -0 -0 4.7187e+18 3.60415e+14
ITEM: TIMESTEP
1
ITEM: NUMBER OF ATOMS
3
ITEM: BOX BOUNDS xy xz yz pp pp pp
0.0000000000000000e+00 5.0049999999999997e+01 4.9999999999997158e-02
0.0000000000000000e+00 5.0000000000000000e+01 0.0000000000000000e+00
0.0000000000000000e+00 5.0000000000000000e+01 0.0000000000000000e+00
ITEM: ATOMS id type x y z c_1[1] c_1[2] c_1[3] c_1[4] c_1[5] c_1[6] c_1[7] c_1[22]
1 2 0.378936 0.321535 0 -2.8469e+10 -6.7027e+09 -0 1.03505e+10 -0 -0 5.14007e+13 3.6037e+14
2 2 0 0 0 -6.19437e+10 5.02888e+09 -0 6.53205e+09 -0 -0 4.71865e+18 -4.4426e+10
3 2 0.5 0 0 -5.32154e+10 -1.17316e+10 -0 2.67557e+10 -0 -0 4.7187e+18 3.60415e+14
ITEM: TIMESTEP
2
ITEM: NUMBER OF ATOMS
3
ITEM: BOX BOUNDS xy xz yz pp pp pp
0.0000000000000000e+00 5.0100000000000001e+01 1.0000000000000142e-01
0.0000000000000000e+00 5.0000000000000000e+01 0.0000000000000000e+00
0.0000000000000000e+00 5.0000000000000000e+01 0.0000000000000000e+00
ITEM: ATOMS id type x y z c_1[1] c_1[2] c_1[3] c_1[4] c_1[5] c_1[6] c_1[7] c_1[22]
1 2 0.379257 0.321535 0 -2.85246e+10 -6.77907e+09 -0 1.03156e+10 -0 -0 1.13987e+24 8.0661e+24
2 2 0 0 0 -6.17274e+10 4.99223e+09 -0 6.48068e+09 -0 -0 1.05924e+29 -2.92287e+21
3 2 0.5 0 0 -5.29032e+10 -1.17713e+10 -0 2.67584e+10 -0 -0 1.05925e+29 8.06902e+24
ITEM: TIMESTEP
3
ITEM: NUMBER OF ATOMS
3
ITEM: BOX BOUNDS xy xz yz pp pp pp
0.0000000000000000e+00 5.0149999999999999e+01 1.4999999999999858e-01
0.0000000000000000e+00 5.0000000000000000e+01 0.0000000000000000e+00
0.0000000000000000e+00 5.0000000000000000e+01 0.0000000000000000e+00
ITEM: ATOMS id type x y z c_1[1] c_1[2] c_1[3] c_1[4] c_1[5] c_1[6] c_1[7] c_1[22]
1 2 0.379579 0.321535 0 -2.85812e+10 -6.85645e+09 -0 1.02795e+10 -0 -0 2.53699e+34 1.80489e+35
2 2 0 0 0 -6.15125e+10 4.95471e+09 -0 6.42814e+09 -0 -0 2.37652e+39 -6.55177e+31
3 2 0.5 0 0 -5.25912e+10 -1.18112e+10 -0 2.67608e+10 -0 -0 2.37654e+39 1.80555e+35
ITEM: TIMESTEP
4
ITEM: NUMBER OF ATOMS
3
ITEM: BOX BOUNDS xy xz yz pp pp pp
0.0000000000000000e+00 5.0200000000000003e+01 2.0000000000000284e-01
0.0000000000000000e+00 5.0000000000000000e+01 0.0000000000000000e+00
0.0000000000000000e+00 5.0000000000000000e+01 0.0000000000000000e+00
ITEM: ATOMS id type x y z c_1[1] c_1[2] c_1[3] c_1[4] c_1[5] c_1[6] c_1[7] c_1[22]
1 2 0.3799 0.321535 0 -2.86389e+10 -6.93483e+09 -0 1.02423e+10 -0 -0 5.64337e+44 4.03646e+45
2 2 0 0 0 -6.1299e+10 4.91634e+09 -0 6.37446e+09 -0 -0 5.32905e+49 -1.46782e+42
3 2 0.5 0 0 -5.22792e+10 -1.18512e+10 -0 2.6763e+10 -0 -0 5.32911e+49 4.03793e+45
