ITEM: TIMESTEP
0
ITEM: NUMBER OF ATOMS
2
ITEM: BOX BOUNDS xy xz yz pp pp pp
0.0000000000000000e+00 5.0000000000000000e+01 0.0000000000000000e+00
0.0000000000000000e+00 5.0000000000000000e+01 0.0000000000000000e+00
0.0000000000000000e+00 5.0000000000000000e+01 0.0000000000000000e+00
ITEM: ATOMS id type x y z c_1[1] c_1[2] c_1[3] c_1[4] c_1[5] c_1[6] c_1[7] c_1[22]
1 2 0.378614 0.321535 0 -1.99547e+08 -1.43915e+08 -0 -1.69463e+08 -0 -0 9.15762e+07 6.60458e+07
2 2 0 0 0 -1.99547e+08 -1.43915e+08 -0 -1.69463e+08 -0 -0 9.15762e+07 6.60458e+07
ITEM: TIMESTEP
1
ITEM: NUMBER OF ATOMS
2
ITEM: BOX BOUNDS xy xz yz pp pp pp
0.0000000000000000e+00 5.0000000000000000e+01 0.0000000000000000e+00
0.0000000000000000e+00 5.0000000000000000e+01 0.0000000000000000e+00
0.0000000000000000e+00 5.0000000000000000e+01 0.0000000000000000e+00
ITEM: ATOMS id type x y z c_1[1] c_1[2] c_1[3] c_1[4] c_1[5] c_1[6] c_1[7] c_1[22]
1 2 0.376586 0.323907 0 -1.97415e+08 -1.46047e+08 -0 -1.698e+08 -0 -0 8.75212e+07 6.47479e+07
2 2 0 0 0 -1.97415e+08 -1.46047e+08 -0 -1.698e+08 -0 -0 8.75212e+07 6.47479e+07
ITEM: TIMESTEP
2
ITEM: NUMBER OF ATOMS
2
ITEM: BOX BOUNDS xy xz yz pp pp pp
0.0000000000000000e+00 5.0000000000000000e+01 0.0000000000000000e+00
0.0000000000000000e+00 5.0000000000000000e+01 0.0000000000000000e+00
0.0000000000000000e+00 5.0000000000000000e+01 0.0000000000000000e+00
ITEM: ATOMS id type x y z c_1[1] c_1[2] c_1[3] c_1[4] c_1[5] c_1[6] c_1[7] c_1[22]
1 2 0.374544 0.326267 0 -1.95279e+08 -1.48183e+08 -0 -1.70109e+08 -0 -0 8.35251e+07 6.33809e+07
2 2 0 0 0 -1.95279e+08 -1.48183e+08 -0 -1.70109e+08 -0 -0 8.35251e+07 6.33809e+07
ITEM: TIMESTEP
3
ITEM: NUMBER OF ATOMS
2
ITEM: BOX BOUNDS xy xz yz pp pp pp
0.0000000000000000e+00 5.0000000000000000e+01 0.0000000000000000e+00
0.0000000000000000e+00 5.0000000000000000e+01 0.0000000000000000e+00
0.0000000000000000e+00 5.0000000000000000e+01 0.0000000000000000e+00
ITEM: ATOMS id type x y z c_1[1] c_1[2] c_1[3] c_1[4] c_1[5] c_1[6] c_1[7] c_1[22]
1 2 0.372486 0.328614 0 -1.9314e+08 -1.50322e+08 -0 -1.70391e+08 -0 -0 7.9589e+07 6.19447e+07
2 2 0 0 0 -1.9314e+08 -1.50322e+08 -0 -1.70391e+08 -0 -0 7.9589e+07 6.19447e+07
ITEM: TIMESTEP
4
ITEM: NUMBER OF ATOMS
2
ITEM: BOX BOUNDS xy xz yz pp pp pp
0.0000000000000000e+00 5.0000000000000000e+01 0.0000000000000000e+00
0.0000000000000000e+00 5.0000000000000000e+01 0.0000000000000000e+00
0.0000000000000000e+00 5.0000000000000000e+01 0.0000000000000000e+00
ITEM: ATOMS id type x y z c_1[1] c_1[2] c_1[3] c_1[4] c_1[5] c_1[6] c_1[7] c_1[22]
1 2 0.370414 0.330948 0 -1.90997e+08 -1.52465e+08 -0 -1.70647e+08 -0 -0 7.57137e+07 6.04391e+07
2 2 0 0 0 -1.90997e+08 -1.52465e+08 -0 -1.70647e+08 -0 -0 7.57137e+07 6.04391e+07
ITEM: TIMESTEP
5
ITEM: NUMBER OF ATOMS
2
ITEM: BOX BOUNDS xy xz yz pp pp pp
0.0000000000000000e+00 5.0000000000000000e+01 0.0000000000000000e+00
0.0000000000000000e+00 5.0000000000000000e+01 0.0000000000000000e+00
0.0000000000000000e+00 5.0000000000000000e+01 0.0000000000000000e+00
ITEM: ATOMS id type x y z c_1[1] c_1[2] c_1[3] c_1[4] c_1[5] c_1[6] c_1[7] c_1[22]
1 2 0.368328 0.333269 0 -1.88851e+08 -1.54611e+08 -0 -1.70876e+08 -0 -0 7.19002e+07 5.88641e+07
2 2 0 0 0 -1.88851e+08 -1.54611e+08 -0 -1.70876e+08 -0 -0 7.19002e+07 5.88641e+07
ITEM: TIMESTEP
6
ITEM: NUMBER OF ATOMS
2
ITEM: BOX BOUNDS xy xz yz pp pp pp
0.0000000000000000e+00 5.0000000000000000e+01 0.0000000000000000e+00
0.0000000000000000e+00 5.0000000000000000e+01 0.0000000000000000e+00
0.0000000000000000e+00 5.0000000000000000e+01 0.0000000000000000e+00
ITEM: ATOMS id type x y z c_1[1] c_1[2] c_1[3] c_1[4] c_1[5] c_1[6] c_1[7] c_1[22]
1 2 0.366226 0.335576 0 -1.86703e+08 -1.56759e+08 -0 -1.71077e+08 -0 -0 6.81493e+07 5.72196e+07
2 2 0 0 0 -1.86703e+08 -1.56759e+08 -0 -1.71077e+08 -0 -0 6.81493e+07 5.72196e+07
ITEM: TIMESTEP
7
ITEM: NUMBER OF ATOMS
2
ITEM: BOX BOUNDS xy xz yz pp pp pp
0.0000000000000000e+00 5.0000000000000000e+01 0.0000000000000000e+00
0.0000000000000000e+00 5.0000000000000000e+01 0.0000000000000000e+00
0.0000000000000000e+00 5.0000000000000000e+01 0.0000000000000000e+00
ITEM: ATOMS id type x y z c_1[1] c_1[2] c_1[3] c_1[4] c_1[5] c_1[6] c_1[7] c_1[22]
1 2 0.364111 0.337871 0 -1.84552e+08 -1.5891e+08 -0 -1.71252e+08 -0 -0 6.44619e+07 5.55057e+07
2 2 0 0 0 -1.84552e+08 -1.5891e+08 -0 -1.71252e+08 -0 -0 6.44619e+07 5.55057e+07
ITEM: TIMESTEP
8
ITEM: NUMBER OF ATOMS
2
ITEM: BOX BOUNDS xy xz yz pp pp pp
0.0000000000000000e+00 5.0000000000000000e+01 0.0000000000000000e+00
0.0000000000000000e+00 5.0000000000000000e+01 0.0000000000000000e+00
0.0000000000000000e+00 5.0000000000000000e+01 0.0000000000000000e+00
ITEM: ATOMS id type x y z c_1[1] c_1[2] c_1[3] c_1[4] c_1[5] c_1[6] c_1[7] c_1[22]
1 2 0.361981 0.340152 0 -1.82399e+08 -1.61063e+08 -0 -1.71399e+08 -0 -0 6.08388e+07 5.37225e+07
2 2 0 0 0 -1.82399e+08 -1.61063e+08 -0 -1.71399e+08 -0 -0 6.08388e+07 5.37225e+07
ITEM: TIMESTEP
9
ITEM: NUMBER OF ATOMS
2
ITEM: BOX BOUNDS xy xz yz pp pp pp
0.0000000000000000e+00 5.0000000000000000e+01 0.0000000000000000e+00
0.0000000000000000e+00 5.0000000000000000e+01 0.0000000000000000e+00
0.0000000000000000e+00 5.0000000000000000e+01 0.0000000000000000e+00
ITEM: ATOMS id type x y z c_1[1] c_1[2] c_1[3] c_1[4] c_1[5] c_1[6] c_1[7] c_1[22]
1 2 0.359836 0.342419 0 -1.80244e+08 -1.63218e+08 -0 -1.7152e+08 -0 -0 5.72807e+07 5.187e+07
2 2 0 0 0 -1.80244e+08 -1.63218e+08 -0 -1.7152e+08 -0 -0 5.72807e+07 5.187e+07
ITEM: TIMESTEP
10
ITEM: NUMBER OF ATOMS
2
ITEM: BOX BOUNDS xy xz yz pp pp pp
0.0000000000000000e+00 5.0000000000000000e+01 0.0000000000000000e+00
0.0000000000000000e+00 5.0000000000000000e+01 0.0000000000000000e+00
0.0000000000000000e+00 5.0000000000000000e+01 0.0000000000000000e+00
ITEM: ATOMS id type x y z c_1[1] c_1[2] c_1[3] c_1[4] c_1[5] c_1[6] c_1[7] c_1[22]
1 2 0.357678 0.344674 0 -1.78088e+08 -1.65374e+08 -0 -1.71613e+08 -0 -0 5.37884e+07 4.99484e+07
2 2 0 0 0 -1.78088e+08 -1.65374e+08 -0 -1.71613e+08 -0 -0 5.37884e+07 4.99484e+07
ITEM: TIMESTEP
11
ITEM: NUMBER OF ATOMS
2
ITEM: BOX BOUNDS xy xz yz pp pp pp
0.0000000000000000e+00 5.0000000000000000e+01 0.0000000000000000e+00
0.0000000000000000e+00 5.0000000000000000e+01 0.0000000000000000e+00
0.0000000000000000e+00 5.0000000000000000e+01 0.0000000000000000e+00
ITEM: ATOMS id type x y z c_1[1] c_1[2] c_1[3] c_1[4] c_1[5] c_1[6] c_1[7] c_1[22]
1 2 0.355505 0.346914 0 -1.75931e+08 -1.67531e+08 -0 -1.7168e+08 -0 -0 5.03624e+07 4.79578e+07
2 2 0 0 0 -1.75931e+08 -1.67531e+08 -0 -1.7168e+08 -0 -0 5.03624e+07 4.79578e+07
ITEM: TIMESTEP
12
ITEM: NUMBER OF ATOMS
2
ITEM: BOX BOUNDS xy xz yz pp pp pp
0.0000000000000000e+00 5.0000000000000000e+01 0.0000000000000000e+00
0.0000000000000000e+00 5.0000000000000000e+01 0.0000000000000000e+00
0.0000000000000000e+00 5.0000000000000000e+01 0.0000000000000000e+00
ITEM: ATOMS id type x y z c_1[1] c_1[2] c_1[3] c_1[4] c_1[5] c_1[6] c_1[7] c_1[22]
1 2 0.353318 0.349141 0 -1.73773e+08 -1.69689e+08 -0 -1.71719e+08 -0 -0 4.70035e+07 4.58986e+07
2 2 0 0 0 -1.73773e+08 -1.69689e+08 -0 -1.71719e+08 -0 -0 4.70035e+07 4.58986e+07
ITEM: TIMESTEP
13
ITEM: NUMBER OF ATOMS
2
ITEM: BOX BOUNDS xy xz yz pp pp pp
0.0000000000000000e+00 5.0000000000000000e+01 0.0000000000000000e+00
0.0000000000000000e+00 5.0000000000000000e+01 0.0000000000000000e+00
0.0000000000000000e+00 5.0000000000000000e+01 0.0000000000000000e+00
ITEM: ATOMS id type x y z c_1[1] c_1[2] c_1[3] c_1[4] c_1[5] c_1[6] c_1[7] c_1[22]
1 2 0.351117 0.351354 0 -1.71615e+08 -1.71847e+08 -0 -1.71731e+08 -0 -0 4.37121e+07 4.37711e+07
2 2 0 0 0 -1.71615e+08 -1.71847e+08 -0 -1.71731e+08 -0 -0 4.37121e+07 4.37711e+07
ITEM: TIMESTEP
14
ITEM: NUMBER OF ATOMS
2
ITEM: BOX BOUNDS xy xz yz pp pp pp
0.0000000000000000e+00 5.0000000000000000e+01 0.0000000000000000e+00
0.0000000000000000e+00 5.0000000000000000e+01 0.0000000000000000e+00
0.0000000000000000e+00 5.0000000000000000e+01 0.0000000000000000e+00
ITEM: ATOMS id type x y z c_1[1] c_1[2] c_1[3] c_1[4] c_1[5] c_1[6] c_1[7] c_1[22]
1 2 0.348903 0.353553 0 -1.69457e+08 -1.74005e+08 -0 -1.71716e+08 -0 -0 4.04889e+07 4.15754e+07
2 2 0 0 0 -1.69457e+08 -1.74005e+08 -0 -1.71716e+08 -0 -0 4.04889e+07 4.15754e+07
ITEM: TIMESTEP
15
ITEM: NUMBER OF ATOMS
2
ITEM: BOX BOUNDS xy xz yz pp pp pp
0.0000000000000000e+00 5.0000000000000000e+01 0.0000000000000000e+00
0.0000000000000000e+00 5.0000000000000000e+01 0.0000000000000000e+00
0.0000000000000000e+00 5.0000000000000000e+01 0.0000000000000000e+00
ITEM: ATOMS id type x y z c_1[1] c_1[2] c_1[3] c_1[4] c_1[5] c_1[6] c_1[7] c_1[22]
1 2 0.346675 0.355738 0 -1.673e+08 -1.76162e+08 -0 -1.71674e+08 -0 -0 3.73343e+07 3.9312e+07
2 2 0 0 0 -1.673e+08 -1.76162e+08 -0 -1.71674e+08 -0 -0 3.73343e+07 3.9312e+07
ITEM: TIMESTEP
16
ITEM: NUMBER OF ATOMS
2
ITEM: BOX BOUNDS xy xz yz pp pp pp
0.0000000000000000e+00 5.0000000000000000e+01 0.0000000000000000e+00
0.0000000000000000e+00 5.0000000000000000e+01 0.0000000000000000e+00
0.0000000000000000e+00 5.0000000000000000e+01 0.0000000000000000e+00
ITEM: ATOMS id type x y z c_1[1] c_1[2] c_1[3] c_1[4] c_1[5] c_1[6] c_1[7] c_1[22]
1 2 0.344433 0.35791 0 -1.65143e+08 -1.78319e+08 -0 -1.71605e+08 -0 -0 3.42487e+07 3.69813e+07
2 2 0 0 0 -1.65143e+08 -1.78319e+08 -0 -1.71605e+08 -0 -0 3.42487e+07 3.69813e+07
ITEM: TIMESTEP
17
ITEM: NUMBER OF ATOMS
2
ITEM: BOX BOUNDS xy xz yz pp pp pp
0.0000000000000000e+00 5.0000000000000000e+01 0.0000000000000000e+00
0.0000000000000000e+00 5.0000000000000000e+01 0.0000000000000000e+00
0.0000000000000000e+00 5.0000000000000000e+01 0.0000000000000000e+00
ITEM: ATOMS id type x y z c_1[1] c_1[2] c_1[3] c_1[4] c_1[5] c_1[6] c_1[7] c_1[22]
1 2 0.342177 0.360067 0 -1.62987e+08 -1.80475e+08 -0 -1.71508e+08 -0 -0 3.12326e+07 3.45838e+07
2 2 0 0 0 -1.62987e+08 -1.80475e+08 -0 -1.71508e+08 -0 -0 3.12326e+07 3.45838e+07
ITEM: TIMESTEP
18
ITEM: NUMBER OF ATOMS
2
ITEM: BOX BOUNDS xy xz yz pp pp pp
0.0000000000000000e+00 5.0000000000000000e+01 0.0000000000000000e+00
0.0000000000000000e+00 5.0000000000000000e+01 0.0000000000000000e+00
0.0000000000000000e+00 5.0000000000000000e+01 0.0000000000000000e+00
ITEM: ATOMS id type x y z c_1[1] c_1[2] c_1[3] c_1[4] c_1[5] c_1[6] c_1[7] c_1[22]
1 2 0.339908 0.362209 0 -1.60833e+08 -1.8263e+08 -0 -1.71385e+08 -0 -0 2.82864e+07 3.21199e+07
2 2 0 0 0 -1.60833e+08 -1.8263e+08 -0 -1.71385e+08 -0 -0 2.82864e+07 3.21199e+07
ITEM: TIMESTEP
19
ITEM: NUMBER OF ATOMS
2
ITEM: BOX BOUNDS xy xz yz pp pp pp
0.0000000000000000e+00 5.0000000000000000e+01 0.0000000000000000e+00
0.0000000000000000e+00 5.0000000000000000e+01 0.0000000000000000e+00
0.0000000000000000e+00 5.0000000000000000e+01 0.0000000000000000e+00
ITEM: ATOMS id type x y z c_1[1] c_1[2] c_1[3] c_1[4] c_1[5] c_1[6] c_1[7] c_1[22]
1 2 0.337625 0.364338 0 -1.5868e+08 -1.84782e+08 -0 -1.71234e+08 -0 -0 2.54102e+07 2.95902e+07
2 2 0 0 0 -1.5868e+08 -1.84782e+08 -0 -1.71234e+08 -0 -0 2.54102e+07 2.95902e+07
ITEM: TIMESTEP
20
ITEM: NUMBER OF ATOMS
2
ITEM: BOX BOUNDS xy xz yz pp pp pp
0.0000000000000000e+00 5.0000000000000000e+01 0.0000000000000000e+00
0.0000000000000000e+00 5.0000000000000000e+01 0.0000000000000000e+00
0.0000000000000000e+00 5.0000000000000000e+01 0.0000000000000000e+00
ITEM: ATOMS id type x y z c_1[1] c_1[2] c_1[3] c_1[4] c_1[5] c_1[6] c_1[7] c_1[22]
1 2 0.33533 0.366452 0 -1.56529e+08 -1.86933e+08 -0 -1.71057e+08 -0 -0 2.26045e+07 2.69952e+07
2 2 0 0 0 -1.56529e+08 -1.86933e+08 -0 -1.71057e+08 -0 -0 2.26045e+07 2.69952e+07
ITEM: TIMESTEP
21
ITEM: NUMBER OF ATOMS
2
ITEM: BOX BOUNDS xy xz yz pp pp pp
0.0000000000000000e+00 5.0000000000000000e+01 0.0000000000000000e+00
0.0000000000000000e+00 5.0000000000000000e+01 0.0000000000000000e+00
0.0000000000000000e+00 5.0000000000000000e+01 0.0000000000000000e+00
ITEM: ATOMS id type x y z c_1[1] c_1[2] c_1[3] c_1[4] c_1[5] c_1[6] c_1[7] c_1[22]
1 2 0.33302 0.368552 0 -1.54381e+08 -1.89081e+08 -0 -1.70852e+08 -0 -0 1.98695e+07 2.43356e+07
2 2 0 0 0 -1.54381e+08 -1.89081e+08 -0 -1.70852e+08 -0 -0 1.98695e+07 2.43356e+07
ITEM: TIMESTEP
22
ITEM: NUMBER OF ATOMS
2
ITEM: BOX BOUNDS xy xz yz pp pp pp
0.0000000000000000e+00 5.0000000000000000e+01 0.0000000000000000e+00
0.0000000000000000e+00 5.0000000000000000e+01 0.0000000000000000e+00
0.0000000000000000e+00 5.0000000000000000e+01 0.0000000000000000e+00
ITEM: ATOMS id type x y z c_1[1] c_1[2] c_1[3] c_1[4] c_1[5] c_1[6] c_1[7] c_1[22]
1 2 0.330698 0.370637 0 -1.52235e+08 -1.91227e+08 -0 -1.70621e+08 -0 -0 1.72053e+07 2.16121e+07
2 2 0 0 0 -1.52235e+08 -1.91227e+08 -0 -1.70621e+08 -0 -0 1.72053e+07 2.16121e+07
ITEM: TIMESTEP
23
ITEM: NUMBER OF ATOMS
2
ITEM: BOX BOUNDS xy xz yz pp pp pp
0.0000000000000000e+00 5.0000000000000000e+01 0.0000000000000000e+00
0.0000000000000000e+00 5.0000000000000000e+01 0.0000000000000000e+00
0.0000000000000000e+00 5.0000000000000000e+01 0.0000000000000000e+00
ITEM: ATOMS id type x y z c_1[1] c_1[2] c_1[3] c_1[4] c_1[5] c_1[6] c_1[7] c_1[22]
1 2 0.328363 0.372708 0 -1.50093e+08 -1.93369e+08 -0 -1.70362e+08 -0 -0 1.46121e+07 1.88252e+07
2 2 0 0 0 -1.50093e+08 -1.93369e+08 -0 -1.70362e+08 -0 -0 1.46121e+07 1.88252e+07
ITEM: TIMESTEP
24
ITEM: NUMBER OF ATOMS
2
ITEM: BOX BOUNDS xy xz yz pp pp pp
0.0000000000000000e+00 5.0000000000000000e+01 0.0000000000000000e+00
0.0000000000000000e+00 5.0000000000000000e+01 0.0000000000000000e+00
0.0000000000000000e+00 5.0000000000000000e+01 0.0000000000000000e+00
ITEM: ATOMS id type x y z c_1[1] c_1[2] c_1[3] c_1[4] c_1[5] c_1[6] c_1[7] c_1[22]
1 2 0.326015 0.374763 0 -1.47954e+08 -1.95508e+08 -0 -1.70077e+08 -0 -0 1.209e+07 1.59759e+07
2 2 0 0 0 -1.47954e+08 -1.95508e+08 -0 -1.70077e+08 -0 -0 1.209e+07 1.59759e+07
ITEM: TIMESTEP
25
ITEM: NUMBER OF ATOMS
2
ITEM: BOX BOUNDS xy xz yz pp pp pp
0.0000000000000000e+00 5.0000000000000000e+01 0.0000000000000000e+00
0.0000000000000000e+00 5.0000000000000000e+01 0.0000000000000000e+00
0.0000000000000000e+00 5.0000000000000000e+01 0.0000000000000000e+00
ITEM: ATOMS id type x y z c_1[1] c_1[2] c_1[3] c_1[4] c_1[5] c_1[6] c_1[7] c_1[22]
1 2 0.323654 0.376804 0 -1.45818e+08 -1.97644e+08 -0 -1.69765e+08 -0 -0 9.63902e+06 1.30648e+07
2 2 0 0 0 -1.45818e+08 -1.97644e+08 -0 -1.69765e+08 -0 -0 9.63902e+06 1.30648e+07
ITEM: TIMESTEP
26
ITEM: NUMBER OF ATOMS
2
ITEM: BOX BOUNDS xy xz yz pp pp pp
0.0000000000000000e+00 5.0000000000000000e+01 0.0000000000000000e+00
0.0000000000000000e+00 5.0000000000000000e+01 0.0000000000000000e+00
0.0000000000000000e+00 5.0000000000000000e+01 0.0000000000000000e+00
ITEM: ATOMS id type x y z c_1[1] c_1[2] c_1[3] c_1[4] c_1[5] c_1[6] c_1[7] c_1[22]
1 2 0.32128 0.37883 0 -1.43687e+08 -1.99775e+08 -0 -1.69426e+08 -0 -0 7.25925e+06 1.00929e+07
2 2 0 0 0 -1.43687e+08 -1.99775e+08 -0 -1.69426e+08 -0 -0 7.25925e+06 1.00929e+07
ITEM: TIMESTEP
27
ITEM: NUMBER OF ATOMS
2
ITEM: BOX BOUNDS xy xz yz pp pp pp
0.0000000000000000e+00 5.0000000000000000e+01 0.0000000000000000e+00
0.0000000000000000e+00 5.0000000000000000e+01 0.0000000000000000e+00
0.0000000000000000e+00 5.0000000000000000e+01 0.0000000000000000e+00
ITEM: ATOMS id type x y z c_1[1] c_1[2] c_1[3] c_1[4] c_1[5] c_1[6] c_1[7] c_1[22]
1 2 0.318893 0.380842 0 -1.4156e+08 -2.01902e+08 -0 -1.6906e+08 -0 -0 4.95062e+06 7.06088e+06
2 2 0 0 0 -1.4156e+08 -2.01902e+08 -0 -1.6906e+08 -0 -0 4.95062e+06 7.06088e+06
ITEM: TIMESTEP
28
ITEM: NUMBER OF ATOMS
2
ITEM: BOX BOUNDS xy xz yz pp pp pp
0.0000000000000000e+00 5.0000000000000000e+01 0.0000000000000000e+00
0.0000000000000000e+00 5.0000000000000000e+01 0.0000000000000000e+00
0.0000000000000000e+00 5.0000000000000000e+01 0.0000000000000000e+00
ITEM: ATOMS id type x y z c_1[1] c_1[2] c_1[3] c_1[4] c_1[5] c_1[6] c_1[7] c_1[22]
1 2 0.316494 0.382838 0 -1.39438e+08 -2.04024e+08 -0 -1.68668e+08 -0 -0 2.71309e+06 3.96975e+06
2 2 0 0 0 -1.39438e+08 -2.04024e+08 -0 -1.68668e+08 -0 -0 2.71309e+06 3.96975e+06
ITEM: TIMESTEP
29
ITEM: NUMBER OF ATOMS
2
ITEM: BOX BOUNDS xy xz yz pp pp pp
0.0000000000000000e+00 5.0000000000000000e+01 0.0000000000000000e+00
0.0000000000000000e+00 5.0000000000000000e+01 0.0000000000000000e+00
0.0000000000000000e+00 5.0000000000000000e+01 0.0000000000000000e+00
ITEM: ATOMS id type x y z c_1[1] c_1[2] c_1[3] c_1[4] c_1[5] c_1[6] c_1[7] c_1[22]
1 2 0.314082 0.384819 0 -1.37321e+08 -2.06141e+08 -0 -1.68248e+08 -0 -0 546543 820446
2 2 0 0 0 -1.37321e+08 -2.06141e+08 -0 -1.68248e+08 -0 -0 546543 820446
ITEM: TIMESTEP
30
ITEM: NUMBER OF ATOMS
2
ITEM: BOX BOUNDS xy xz yz pp pp pp
0.0000000000000000e+00 5.0000000000000000e+01 0.0000000000000000e+00
0.0000000000000000e+00 5.0000000000000000e+01 0.0000000000000000e+00
0.0000000000000000e+00 5.0000000000000000e+01 0.0000000000000000e+00
ITEM: ATOMS id type x y z c_1[1] c_1[2] c_1[3] c_1[4] c_1[5] c_1[6] c_1[7] c_1[22]
1 2 0.311658 0.386785 0 -1.3521e+08 -2.08252e+08 -0 -1.67803e+08 -0 -0 -1.54917e+06 -2.38605e+06
2 2 0 0 0 -1.3521e+08 -2.08252e+08 -0 -1.67803e+08 -0 -0 -1.54917e+06 -2.38605e+06
ITEM: TIMESTEP
31
ITEM: NUMBER OF ATOMS
2
ITEM: BOX BOUNDS xy xz yz pp pp pp
0.0000000000000000e+00 5.0000000000000000e+01 0.0000000000000000e+00
0.0000000000000000e+00 5.0000000000000000e+01 0.0000000000000000e+00
0.0000000000000000e+00 5.0000000000000000e+01 0.0000000000000000e+00
ITEM: ATOMS id type x y z c_1[1] c_1[2] c_1[3] c_1[4] c_1[5] c_1[6] c_1[7] c_1[22]
1 2 0.309222 0.388735 0 -1.33104e+08 -2.10358e+08 -0 -1.67331e+08 -0 -0 -3.57423e+06 -5.64872e+06
2 2 0 0 0 -1.33104e+08 -2.10358e+08 -0 -1.67331e+08 -0 -0 -3.57423e+06 -5.64872e+06
ITEM: TIMESTEP
32
ITEM: NUMBER OF ATOMS
2
ITEM: BOX BOUNDS xy xz yz pp pp pp
0.0000000000000000e+00 5.0000000000000000e+01 0.0000000000000000e+00
0.0000000000000000e+00 5.0000000000000000e+01 0.0000000000000000e+00
0.0000000000000000e+00 5.0000000000000000e+01 0.0000000000000000e+00
ITEM: ATOMS id type x y z c_1[1] c_1[2] c_1[3] c_1[4] c_1[5] c_1[6] c_1[7] c_1[22]
1 2 0.306773 0.39067 0 -1.31004e+08 -2.12458e+08 -0 -1.66832e+08 -0 -0 -5.52887e+06 -8.96649e+06
2 2 0 0 0 -1.31004e+08 -2.12458e+08 -0 -1.66832e+08 -0 -0 -5.52887e+06 -8.96649e+06
ITEM: TIMESTEP
33
ITEM: NUMBER OF ATOMS
2
ITEM: BOX BOUNDS xy xz yz pp pp pp
0.0000000000000000e+00 5.0000000000000000e+01 0.0000000000000000e+00
0.0000000000000000e+00 5.0000000000000000e+01 0.0000000000000000e+00
0.0000000000000000e+00 5.0000000000000000e+01 0.0000000000000000e+00
ITEM: ATOMS id type x y z c_1[1] c_1[2] c_1[3] c_1[4] c_1[5] c_1[6] c_1[7] c_1[22]
1 2 0.304312 0.39259 0 -1.28911e+08 -2.14551e+08 -0 -1.66307e+08 -0 -0 -7.41335e+06 -1.23383e+07
2 2 0 0 0 -1.28911e+08 -2.14551e+08 -0 -1.66307e+08 -0 -0 -7.41335e+06 -1.23383e+07
ITEM: TIMESTEP
34
ITEM: NUMBER OF ATOMS
2
ITEM: BOX BOUNDS xy xz yz pp pp pp
0.0000000000000000e+00 5.0000000000000000e+01 0.0000000000000000e+00
0.0000000000000000e+00 5.0000000000000000e+01 0.0000000000000000e+00
0.0000000000000000e+00 5.0000000000000000e+01 0.0000000000000000e+00
ITEM: ATOMS id type x y z c_1[1] c_1[2] c_1[3] c_1[4] c_1[5] c_1[6] c_1[7] c_1[22]
1 2 0.30184 0.394494 0 -1.26825e+08 -2.16637e+08 -0 -1.65756e+08 -0 -0 -9.22799e+06 -1.57629e+07
2 2 0 0 0 -1.26825e+08 -2.16637e+08 -0 -1.65756e+08 -0 -0 -9.22799e+06 -1.57629e+07
ITEM: TIMESTEP
35
ITEM: NUMBER OF ATOMS
2
ITEM: BOX BOUNDS xy xz yz pp pp pp
0.0000000000000000e+00 5.0000000000000000e+01 0.0000000000000000e+00
0.0000000000000000e+00 5.0000000000000000e+01 0.0000000000000000e+00
0.0000000000000000e+00 5.0000000000000000e+01 0.0000000000000000e+00
ITEM: ATOMS id type x y z c_1[1] c_1[2] c_1[3] c_1[4] c_1[5] c_1[6] c_1[7] c_1[22]
1 2 0.299355 0.396383 0 -1.24745e+08 -2.18717e+08 -0 -1.65178e+08 -0 -0 -1.09731e+07 -1.92392e+07
2 2 0 0 0 -1.24745e+08 -2.18717e+08 -0 -1.65178e+08 -0 -0 -1.09731e+07 -1.92392e+07
ITEM: TIMESTEP
36
ITEM: NUMBER OF ATOMS
2
ITEM: BOX BOUNDS xy xz yz pp pp pp
0.0000000000000000e+00 5.0000000000000000e+01 0.0000000000000000e+00
0.0000000000000000e+00 5.0000000000000000e+01 0.0000000000000000e+00
0.0000000000000000e+00 5.0000000000000000e+01 0.0000000000000000e+00
ITEM: ATOMS id type x y z c_1[1] c_1[2] c_1[3] c_1[4] c_1[5] c_1[6] c_1[7] c_1[22]
1 2 0.296859 0.398256 0 -1.22674e+08 -2.20789e+08 -0 -1.64575e+08 -0 -0 -1.26492e+07 -2.2766e+07
2 2 0 0 0 -1.22674e+08 -2.20789e+08 -0 -1.64575e+08 -0 -0 -1.26492e+07 -2.2766e+07
ITEM: TIMESTEP
37
ITEM: NUMBER OF ATOMS
2
ITEM: BOX BOUNDS xy xz yz pp pp pp
0.0000000000000000e+00 5.0000000000000000e+01 0.0000000000000000e+00
0.0000000000000000e+00 5.0000000000000000e+01 0.0000000000000000e+00
0.0000000000000000e+00 5.0000000000000000e+01 0.0000000000000000e+00
ITEM: ATOMS id type x y z c_1[1] c_1[2] c_1[3] c_1[4] c_1[5] c_1[6] c_1[7] c_1[22]
1 2 0.294351 0.400114 0 -1.20609e+08 -2.22853e+08 -0 -1.63945e+08 -0 -0 -1.42565e+07 -2.63421e+07
2 2 0 0 0 -1.20609e+08 -2.22853e+08 -0 -1.63945e+08 -0 -0 -1.42565e+07 -2.63421e+07
ITEM: TIMESTEP
38
ITEM: NUMBER OF ATOMS
2
ITEM: BOX BOUNDS xy xz yz pp pp pp
0.0000000000000000e+00 5.0000000000000000e+01 0.0000000000000000e+00
0.0000000000000000e+00 5.0000000000000000e+01 0.0000000000000000e+00
0.0000000000000000e+00 5.0000000000000000e+01 0.0000000000000000e+00
ITEM: ATOMS id type x y z c_1[1] c_1[2] c_1[3] c_1[4] c_1[5] c_1[6] c_1[7] c_1[22]
1 2 0.291831 0.401955 0 -1.18553e+08 -2.24909e+08 -0 -1.6329e+08 -0 -0 -1.57956e+07 -2.99661e+07
2 2 0 0 0 -1.18553e+08 -2.24909e+08 -0 -1.6329e+08 -0 -0 -1.57956e+07 -2.99661e+07
ITEM: TIMESTEP
39
ITEM: NUMBER OF ATOMS
2
ITEM: BOX BOUNDS xy xz yz pp pp pp
0.0000000000000000e+00 5.0000000000000000e+01 0.0000000000000000e+00
0.0000000000000000e+00 5.0000000000000000e+01 0.0000000000000000e+00
0.0000000000000000e+00 5.0000000000000000e+01 0.0000000000000000e+00
ITEM: ATOMS id type x y z c_1[1] c_1[2] c_1[3] c_1[4] c_1[5] c_1[6] c_1[7] c_1[22]
1 2 0.289299 0.403781 0 -1.16506e+08 -2.26957e+08 -0 -1.62609e+08 -0 -0 -1.7267e+07 -3.36367e+07
2 2 0 0 0 -1.16506e+08 -2.26957e+08 -0 -1.62609e+08 -0 -0 -1.7267e+07 -3.36367e+07
ITEM: TIMESTEP
40
ITEM: NUMBER OF ATOMS
2
ITEM: BOX BOUNDS xy xz yz pp pp pp
0.0000000000000000e+00 5.0000000000000000e+01 0.0000000000000000e+00
0.0000000000000000e+00 5.0000000000000000e+01 0.0000000000000000e+00
0.0000000000000000e+00 5.0000000000000000e+01 0.0000000000000000e+00
ITEM: ATOMS id type x y z c_1[1] c_1[2] c_1[3] c_1[4] c_1[5] c_1[6] c_1[7] c_1[22]
1 2 0.286757 0.405591 0 -1.14467e+08 -2.28996e+08 -0 -1.61902e+08 -0 -0 -1.86712e+07 -3.73527e+07
2 2 0 0 0 -1.14467e+08 -2.28996e+08 -0 -1.61902e+08 -0 -0 -1.86712e+07 -3.73527e+07
ITEM: TIMESTEP
41
ITEM: NUMBER OF ATOMS
2
ITEM: BOX BOUNDS xy xz yz pp pp pp
0.0000000000000000e+00 5.0000000000000000e+01 0.0000000000000000e+00
0.0000000000000000e+00 5.0000000000000000e+01 0.0000000000000000e+00
0.0000000000000000e+00 5.0000000000000000e+01 0.0000000000000000e+00
ITEM: ATOMS id type x y z c_1[1] c_1[2] c_1[3] c_1[4] c_1[5] c_1[6] c_1[7] c_1[22]
1 2 0.284203 0.407384 0 -1.12437e+08 -2.31025e+08 -0 -1.6117e+08 -0 -0 -2.00088e+07 -4.11125e+07
2 2 0 0 0 -1.12437e+08 -2.31025e+08 -0 -1.6117e+08 -0 -0 -2.00088e+07 -4.11125e+07
ITEM: TIMESTEP
42
ITEM: NUMBER OF ATOMS
2
ITEM: BOX BOUNDS xy xz yz pp pp pp
0.0000000000000000e+00 5.0000000000000000e+01 0.0000000000000000e+00
0.0000000000000000e+00 5.0000000000000000e+01 0.0000000000000000e+00
0.0000000000000000e+00 5.0000000000000000e+01 0.0000000000000000e+00
ITEM: ATOMS id type x y z c_1[1] c_1[2] c_1[3] c_1[4] c_1[5] c_1[6] c_1[7] c_1[22]
1 2 0.281637 0.409162 0 -1.10416e+08 -2.33046e+08 -0 -1.60412e+08 -0 -0 -2.12804e+07 -4.49148e+07
2 2 0 0 0 -1.10416e+08 -2.33046e+08 -0 -1.60412e+08 -0 -0 -2.12804e+07 -4.49148e+07
ITEM: TIMESTEP
43
ITEM: NUMBER OF ATOMS
2
ITEM: BOX BOUNDS xy xz yz pp pp pp
0.0000000000000000e+00 5.0000000000000000e+01 0.0000000000000000e+00
0.0000000000000000e+00 5.0000000000000000e+01 0.0000000000000000e+00
0.0000000000000000e+00 5.0000000000000000e+01 0.0000000000000000e+00
ITEM: ATOMS id type x y z c_1[1] c_1[2] c_1[3] c_1[4] c_1[5] c_1[6] c_1[7] c_1[22]
1 2 0.279061 0.410923 0 -1.08405e+08 -2.35057e+08 -0 -1.59629e+08 -0 -0 -2.24866e+07 -4.87582e+07
2 2 0 0 0 -1.08405e+08 -2.35057e+08 -0 -1.59629e+08 -0 -0 -2.24866e+07 -4.87582e+07
ITEM: TIMESTEP
44
ITEM: NUMBER OF ATOMS
2
ITEM: BOX BOUNDS xy xz yz pp pp pp
0.0000000000000000e+00 5.0000000000000000e+01 0.0000000000000000e+00
0.0000000000000000e+00 5.0000000000000000e+01 0.0000000000000000e+00
0.0000000000000000e+00 5.0000000000000000e+01 0.0000000000000000e+00
ITEM: ATOMS id type x y z c_1[1] c_1[2] c_1[3] c_1[4] c_1[5] c_1[6] c_1[7] c_1[22]
1 2 0.276474 0.412669 0 -1.06404e+08 -2.37058e+08 -0 -1.58821e+08 -0 -0 -2.36282e+07 -5.26412e+07
2 2 0 0 0 -1.06404e+08 -2.37058e+08 -0 -1.58821e+08 -0 -0 -2.36282e+07 -5.26412e+07
ITEM: TIMESTEP
45
ITEM: NUMBER OF ATOMS
2
ITEM: BOX BOUNDS xy xz yz pp pp pp
0.0000000000000000e+00 5.0000000000000000e+01 0.0000000000000000e+00
0.0000000000000000e+00 5.0000000000000000e+01 0.0000000000000000e+00
0.0000000000000000e+00 5.0000000000000000e+01 0.0000000000000000e+00
ITEM: ATOMS id type x y z c_1[1] c_1[2] c_1[3] c_1[4] c_1[5] c_1[6] c_1[7] c_1[22]
1 2 0.273875 0.414398 0 -1.04414e+08 -2.39048e+08 -0 -1.57987e+08 -0 -0 -2.47057e+07 -5.65622e+07
2 2 0 0 0 -1.04414e+08 -2.39048e+08 -0 -1.57987e+08 -0 -0 -2.47057e+07 -5.65622e+07
ITEM: TIMESTEP
46
ITEM: NUMBER OF ATOMS
2
ITEM: BOX BOUNDS xy xz yz pp pp pp
0.0000000000000000e+00 5.0000000000000000e+01 0.0000000000000000e+00
0.0000000000000000e+00 5.0000000000000000e+01 0.0000000000000000e+00
0.0000000000000000e+00 5.0000000000000000e+01 0.0000000000000000e+00
ITEM: ATOMS id type x y z c_1[1] c_1[2] c_1[3] c_1[4] c_1[5] c_1[6] c_1[7] c_1[22]
1 2 0.271266 0.41611 0 -1.02434e+08 -2.41028e+08 -0 -1.57129e+08 -0 -0 -2.572e+07 -6.05198e+07
2 2 0 0 0 -1.02434e+08 -2.41028e+08 -0 -1.57129e+08 -0 -0 -2.572e+07 -6.05198e+07
ITEM: TIMESTEP
47
ITEM: NUMBER OF ATOMS
2
ITEM: BOX BOUNDS xy xz yz pp pp pp
0.0000000000000000e+00 5.0000000000000000e+01 0.0000000000000000e+00
0.0000000000000000e+00 5.0000000000000000e+01 0.0000000000000000e+00
0.0000000000000000e+00 5.0000000000000000e+01 0.0000000000000000e+00
ITEM: ATOMS id type x y z c_1[1] c_1[2] c_1[3] c_1[4] c_1[5] c_1[6] c_1[7] c_1[22]
1 2 0.268646 0.417806 0 -1.00465e+08 -2.42997e+08 -0 -1.56245e+08 -0 -0 -2.66719e+07 -6.45123e+07
2 2 0 0 0 -1.00465e+08 -2.42997e+08 -0 -1.56245e+08 -0 -0 -2.66719e+07 -6.45123e+07
ITEM: TIMESTEP
48
ITEM: NUMBER OF ATOMS
2
ITEM: BOX BOUNDS xy xz yz pp pp pp
0.0000000000000000e+00 5.0000000000000000e+01 0.0000000000000000e+00
0.0000000000000000e+00 5.0000000000000000e+01 0.0000000000000000e+00
0.0000000000000000e+00 5.0000000000000000e+01 0.0000000000000000e+00
ITEM: ATOMS id type x y z c_1[1] c_1[2] c_1[3] c_1[4] c_1[5] c_1[6] c_1[7] c_1[22]
1 2 0.266016 0.419486 0 -9.85069e+07 -2.44955e+08 -0 -1.55338e+08 -0 -0 -2.75621e+07 -6.85382e+07
2 2 0 0 0 -9.85069e+07 -2.44955e+08 -0 -1.55338e+08 -0 -0 -2.75621e+07 -6.85382e+07
ITEM: TIMESTEP
49
ITEM: NUMBER OF ATOMS
2
ITEM: BOX BOUNDS xy xz yz pp pp pp
0.0000000000000000e+00 5.0000000000000000e+01 0.0000000000000000e+00
0.0000000000000000e+00 5.0000000000000000e+01 0.0000000000000000e+00
0.0000000000000000e+00 5.0000000000000000e+01 0.0000000000000000e+00
ITEM: ATOMS id type x y z c_1[1] c_1[2] c_1[3] c_1[4] c_1[5] c_1[6] c_1[7] c_1[22]
1 2 0.263375 0.421149 0 -9.65607e+07 -2.46901e+08 -0 -1.54405e+08 -0 -0 -2.83915e+07 -7.25959e+07
2 2 0 0 0 -9.65607e+07 -2.46901e+08 -0 -1.54405e+08 -0 -0 -2.83915e+07 -7.25959e+07
ITEM: TIMESTEP
50
ITEM: NUMBER OF ATOMS
2
ITEM: BOX BOUNDS xy xz yz pp pp pp
0.0000000000000000e+00 5.0000000000000000e+01 0.0000000000000000e+00
0.0000000000000000e+00 5.0000000000000000e+01 0.0000000000000000e+00
0.0000000000000000e+00 5.0000000000000000e+01 0.0000000000000000e+00
ITEM: ATOMS id type x y z c_1[1] c_1[2] c_1[3] c_1[4] c_1[5] c_1[6] c_1[7] c_1[22]
1 2 0.260724 0.422796 0 -9.46264e+07 -2.48836e+08 -0 -1.53448e+08 -0 -0 -2.9161e+07 -7.66838e+07
2 2 0 0 0 -9.46264e+07 -2.48836e+08 -0 -1.53448e+08 -0 -0 -2.9161e+07 -7.66838e+07
ITEM: TIMESTEP
51
ITEM: NUMBER OF ATOMS
2
ITEM: BOX BOUNDS xy xz yz pp pp pp
0.0000000000000000e+00 5.0000000000000000e+01 0.0000000000000000e+00
0.0000000000000000e+00 5.0000000000000000e+01 0.0000000000000000e+00
0.0000000000000000e+00 5.0000000000000000e+01 0.0000000000000000e+00
ITEM: ATOMS id type x y z c_1[1] c_1[2] c_1[3] c_1[4] c_1[5] c_1[6] c_1[7] c_1[22]
1 2 0.258062 0.424426 0 -9.27042e+07 -2.50758e+08 -0 -1.52467e+08 -0 -0 -2.98715e+07 -8.08001e+07
2 2 0 0 0 -9.27042e+07 -2.50758e+08 -0 -1.52467e+08 -0 -0 -2.98715e+07 -8.08001e+07
ITEM: TIMESTEP
52
ITEM: NUMBER OF ATOMS
2
ITEM: BOX BOUNDS xy xz yz pp pp pp
0.0000000000000000e+00 5.0000000000000000e+01 0.0000000000000000e+00
0.0000000000000000e+00 5.0000000000000000e+01 0.0000000000000000e+00
0.0000000000000000e+00 5.0000000000000000e+01 0.0000000000000000e+00
ITEM: ATOMS id type x y z c_1[1] c_1[2] c_1[3] c_1[4] c_1[5] c_1[6] c_1[7] c_1[22]
1 2 0.25539 0.426039 0 -9.07945e+07 -2.52668e+08 -0 -1.51462e+08 -0 -0 -3.05238e+07 -8.49431e+07
2 2 0 0 0 -9.07945e+07 -2.52668e+08 -0 -1.51462e+08 -0 -0 -3.05238e+07 -8.49431e+07
ITEM: TIMESTEP
53
ITEM: NUMBER OF ATOMS
2
ITEM: BOX BOUNDS xy xz yz pp pp pp
0.0000000000000000e+00 5.0000000000000000e+01 0.0000000000000000e+00
0.0000000000000000e+00 5.0000000000000000e+01 0.0000000000000000e+00
0.0000000000000000e+00 5.0000000000000000e+01 0.0000000000000000e+00
ITEM: ATOMS id type x y z c_1[1] c_1[2] c_1[3] c_1[4] c_1[5] c_1[6] c_1[7] c_1[22]
1 2 0.252708 0.427635 0 -8.88977e+07 -2.54564e+08 -0 -1.50433e+08 -0 -0 -3.1119e+07 -8.91113e+07
2 2 0 0 0 -8.88977e+07 -2.54564e+08 -0 -1.50433e+08 -0 -0 -3.1119e+07 -8.91113e+07
ITEM: TIMESTEP
54
ITEM: NUMBER OF ATOMS
2
ITEM: BOX BOUNDS xy xz yz pp pp pp
0.0000000000000000e+00 5.0000000000000000e+01 0.0000000000000000e+00
0.0000000000000000e+00 5.0000000000000000e+01 0.0000000000000000e+00
0.0000000000000000e+00 5.0000000000000000e+01 0.0000000000000000e+00
ITEM: ATOMS id type x y z c_1[1] c_1[2] c_1[3] c_1[4] c_1[5] c_1[6] c_1[7] c_1[22]
1 2 0.250016 0.429214 0 -8.70138e+07 -2.56448e+08 -0 -1.49381e+08 -0 -0 -3.1658e+07 -9.33027e+07
2 2 0 0 0 -8.70138e+07 -2.56448e+08 -0 -1.49381e+08 -0 -0 -3.1658e+07 -9.33027e+07
ITEM: TIMESTEP
55