ITEM: TIMESTEP
0
ITEM: NUMBER OF ATOMS
3
ITEM: BOX BOUNDS xy xz yz pp pp pp
0.0000000000000000e+00 5.0000000000000000e+01 0.0000000000000000e+00
0.0000000000000000e+00 5.0000000000000000e+01 0.0000000000000000e+00
0.0000000000000000e+00 5.0000000000000000e+01 0.0000000000000000e+00
ITEM: ATOMS id type x y z c_1[1] c_1[2] c_1[3] c_1[4] c_1[5] c_1[6] c_1[7] c_1[22]
1 2 0.378614 0.321535 0 -2.96202e+08 -5.09561e+08 -0 -8.71034e+07 -0 -0 1.25921e+09 -1.66762e+09
2 2 0 0 0 -7.625e+08 -1.79721e+08 -0 -2.11625e+08 -0 -0 -1.59149e+09 -1.4211e+09
3 2 0.5 0 0 -5.60317e+08 -3.2984e+08 -0 1.24521e+08 -0 -0 -2.92097e+09 -2.4652e+08
ITEM: TIMESTEP
1
ITEM: NUMBER OF ATOMS
3
ITEM: BOX BOUNDS xy xz yz pp pp pp
0.0000000000000000e+00 5.0500000000000000e+01 5.0000000000000000e-01
0.0000000000000000e+00 5.0000000000000000e+01 0.0000000000000000e+00
0.0000000000000000e+00 5.0000000000000000e+01 0.0000000000000000e+00
ITEM: ATOMS id type x y z c_1[1] c_1[2] c_1[3] c_1[4] c_1[5] c_1[6] c_1[7] c_1[22]
1 2 0.381829 0.321535 0 -2.96202e+08 -5.09561e+08 -0 -8.71034e+07 -0 -0 1.25921e+09 -1.6678e+09
2 2 0 0 0 -7.625e+08 -1.79721e+08 -0 -2.11625e+08 -0 -0 -1.59149e+09 -1.42128e+09
3 2 0.5 0 0 -5.60317e+08 -3.2984e+08 -0 1.24521e+08 -0 -0 -2.92097e+09 -2.4652e+08
ITEM: TIMESTEP
2
ITEM: NUMBER OF ATOMS
3
ITEM: BOX BOUNDS xy xz yz pp pp pp
0.0000000000000000e+00 5.1000000000000000e+01 1.0000000000000000e+00
0.0000000000000000e+00 5.0000000000000000e+01 0.0000000000000000e+00
0.0000000000000000e+00 5.0000000000000000e+01 0.0000000000000000e+00
ITEM: ATOMS id type x y z c_1[1] c_1[2] c_1[3] c_1[4] c_1[5] c_1[6] c_1[7] c_1[22]
1 2 0.385045 0.321535 0 -3.14644e+08 -5.23351e+08 -0 -1.05163e+08 -0 -0 1.44206e+09 -1.94269e+09
2 2 0 0 0 -7.52782e+08 -1.91316e+08 -0 -2.27192e+08 -0 -0 -1.16533e+09 -1.69052e+09
3 2 0.5 0 0 -5.27835e+08 -3.32035e+08 -0 1.2203e+08 -0 -0 -2.67551e+09 -2.52167e+08
ITEM: TIMESTEP
3
ITEM: NUMBER OF ATOMS
3
ITEM: BOX BOUNDS xy xz yz pp pp pp
0.0000000000000000e+00 5.1500000000000000e+01 1.5000000000000000e+00
0.0000000000000000e+00 5.0000000000000000e+01 0.0000000000000000e+00
0.0000000000000000e+00 5.0000000000000000e+01 0.0000000000000000e+00
ITEM: ATOMS id type x y z c_1[1] c_1[2] c_1[3] c_1[4] c_1[5] c_1[6] c_1[7] c_1[22]
1 2 0.38826 0.321535 0 -3.36559e+08 -5.39097e+08 -0 -1.25893e+08 -0 -0 1.60038e+09 -2.20058e+09
2 2 0 0 0 -7.47764e+08 -2.04902e+08 -0 -2.45375e+08 -0 -0 -7.14116e+08 -1.94281e+09
3 2 0.5 0 0 -4.9664e+08 -3.34195e+08 -0 1.19482e+08 -0 -0 -2.38039e+09 -2.5777e+08
ITEM: TIMESTEP
4
ITEM: NUMBER OF ATOMS
3
ITEM: BOX BOUNDS xy xz yz pp pp pp
0.0000000000000000e+00 5.2000000000000000e+01 2.0000000000000000e+00
0.0000000000000000e+00 5.0000000000000000e+01 0.0000000000000000e+00
0.0000000000000000e+00 5.0000000000000000e+01 0.0000000000000000e+00
ITEM: ATOMS id type x y z c_1[1] c_1[2] c_1[3] c_1[4] c_1[5] c_1[6] c_1[7] c_1[22]
1 2 0.391475 0.321535 0 -3.61776e+08 -5.56576e+08 -0 -1.49087e+08 -0 -0 1.73064e+09 -2.43439e+09
2 2 0 0 0 -7.47942e+08 -2.20257e+08 -0 -2.65965e+08 -0 -0 -2.4093e+08 -2.17107e+09
3 2 0.5 0 0 -4.67401e+08 -3.36319e+08 -0 1.16878e+08 -0 -0 -2.03517e+09 -2.6332e+08
