ITEM: TIMESTEP
0
ITEM: NUMBER OF ATOMS
665
ITEM: BOX BOUNDS xy xz yz pp pp pp
-1.0000000000000000e+01 1.0000000000000000e+01 0.0000000000000000e+00
-1.0000000000000000e+01 1.0000000000000000e+01 0.0000000000000000e+00
-1.0000000000000000e+01 1.0000000000000000e+01 0.0000000000000000e+00
ITEM: ATOMS id type x y z c_1[1] c_1[2] c_1[3] c_1[4] c_1[5] c_1[6] c_1[7] c_1[8] c_1[13] c_1[15] c_1[22]
1 2 -7.4 -9.25 -9.25 -1.91967e+06 -1.57925e+06 -1.57925e+06 7612.98 7612.98 784819 1.31603e+08 3.04393e-10 9.65191e+07 3.35306e-302 9.65191e+07
2 2 -3.7 -9.25 -9.25 -2.44678e+06 -1.58234e+06 -1.58234e+06 -0 -0 784797 2.19338e+08 -9.13178e-10 1.03729e+08 2.97207e-302 1.03729e+08
3 2 0 -9.25 -9.25 -2.44678e+06 -1.58234e+06 -1.58234e+06 1.8982e-09 -2.75719e-09 784797 2.19338e+08 -6.08785e-10 1.03729e+08 -1.04281e-10 1.03729e+08
4 2 3.7 -9.25 -9.25 -2.44678e+06 -1.58234e+06 -1.58234e+06 2.50585e-10 2.21402e-10 784797 2.19338e+08 -9.13178e-10 1.03729e+08 2.00112e-10 1.03729e+08
5 2 7.4 -9.25 -9.25 -1.91967e+06 -1.57925e+06 -1.57925e+06 -7612.98 -7612.98 784819 1.31603e+08 -1.52196e-09 9.65191e+07 -2.00112e-10 9.65191e+07
6 2 -9.25 -7.4 -9.25 -1.57925e+06 -1.91967e+06 -1.57925e+06 7612.98 784819 7612.98 9.65191e+07 -0 1.31603e+08 4.57186e-302 1.31603e+08
7 2 -5.55 -7.4 -9.25 -1.54774e+06 -1.47015e+06 -932099 -0 -1.06726e-09 122.279 1.4257e+08 -1.21757e-09 9.87021e+07 2.66692e-302 9.87021e+07
8 2 -7.4 -5.55 -9.25 -1.47015e+06 -1.54774e+06 -932099 -0 122.279 -1.05041e-09 9.87021e+07 -0 1.4257e+08 4.95285e-302 1.4257e+08
9 2 -1.85 -7.4 -9.25 -1.54774e+06 -1.47015e+06 -932099 -0 1.06726e-09 122.279 1.4257e+08 -1.21757e-09 9.87021e+07 2.85742e-302 9.87021e+07
10 2 -3.7 -5.55 -9.25 -1.54774e+06 -1.54774e+06 -932148 -0 -0 1.62113e-09 1.4257e+08 -1.21757e-09 1.4257e+08 3.80989e-302 1.4257e+08
11 2 1.85 -7.4 -9.25 -1.54774e+06 -1.47015e+06 -932099 -0 -5.33632e-10 122.279 1.4257e+08 -1.21757e-09 9.87021e+07 2.85742e-302 9.87021e+07
12 2 0 -5.55 -9.25 -1.54774e+06 -1.54774e+06 -932148 -5.78101e-10 1.06726e-09 -5.57777e-10 1.4257e+08 -0 1.4257e+08 1.21757e-09 1.4257e+08
13 2 5.55 -7.4 -9.25 -1.54774e+06 -1.47015e+06 -932099 -0 -3.55755e-10 122.279 1.4257e+08 6.08785e-10 9.87021e+07 1.52395e-302 9.87021e+07
14 2 3.7 -5.55 -9.25 -1.54774e+06 -1.54774e+06 -932148 -0 4.44693e-11 -1.05041e-09 1.4257e+08 -0 1.4257e+08 4.95285e-302 1.4257e+08
15 2 9.25 -7.4 -9.25 -1.57925e+06 -1.91967e+06 -1.57925e+06 -7612.98 -784819 7612.98 9.65191e+07 -1.21757e-09 1.31603e+08 4.19088e-302 1.31603e+08
16 2 7.4 -5.55 -9.25 -1.47015e+06 -1.54774e+06 -932099 9.33856e-10 -122.279 7.29097e-10 9.87021e+07 -6.08785e-10 1.4257e+08 1.52196e-09 1.4257e+08
17 2 -9.25 -3.7 -9.25 -1.58234e+06 -2.44678e+06 -1.58234e+06 1.38967e-12 784797 -5.55867e-12 1.03729e+08 -0 2.19338e+08 7.61977e-302 2.19338e+08
18 2 -5.55 -3.7 -9.25 -1.54774e+06 -1.54774e+06 -932148 -0 1.55643e-09 2.0541e-11 1.4257e+08 -0 1.4257e+08 4.95285e-302 1.4257e+08
19 2 -7.4 -1.85 -9.25 -1.47015e+06 -1.54774e+06 -932099 -0 122.279 1.08433e-09 9.87021e+07 -0 1.4257e+08 4.95285e-302 1.4257e+08
20 2 -1.85 -3.7 -9.25 -1.54774e+06 -1.54774e+06 -932148 -0 -1.6009e-09 2.05844e-11 1.4257e+08 -0 1.4257e+08 4.95285e-302 1.4257e+08
21 2 -3.7 -1.85 -9.25 -1.54774e+06 -1.54774e+06 -932148 -0 -0 -1.58025e-09 1.4257e+08 -1.21757e-09 1.4257e+08 3.4289e-302 1.4257e+08
22 2 1.85 -3.7 -9.25 -1.54774e+06 -1.54774e+06 -932148 -0 -1.55643e-09 -2.19741e-11 1.4257e+08 1.21757e-09 1.4257e+08 2.09544e-302 1.4257e+08
23 2 0 -1.85 -9.25 -1.54774e+06 -1.54774e+06 -932148 5.78101e-10 1.06726e-09 5.54303e-10 1.4257e+08 -0 1.4257e+08 -1.21757e-09 1.4257e+08
24 2 5.55 -3.7 -9.25 -1.54774e+06 -1.54774e+06 -932148 -0 2.31241e-09 -2.86836e-11 1.4257e+08 -1.82636e-09 1.4257e+08 3.04791e-302 1.4257e+08
25 2 3.7 -1.85 -9.25 -1.54774e+06 -1.54774e+06 -932148 -0 4.44693e-11 1.08435e-09 1.4257e+08 -0 1.4257e+08 4.95285e-302 1.4257e+08
26 2 9.25 -3.7 -9.25 -1.58234e+06 -2.44678e+06 -1.58234e+06 -0 -784797 -8.35971e-12 1.03729e+08 1.21757e-09 2.19338e+08 4.95285e-302 2.19338e+08
27 2 7.4 -1.85 -9.25 -1.47015e+06 -1.54774e+06 -932099 -9.33856e-10 -122.279 -6.94421e-10 9.87021e+07 -6.08785e-10 1.4257e+08 -1.52196e-09 1.4257e+08
28 2 -9.25 0 -9.25 -1.58234e+06 -2.44678e+06 -1.58234e+06 1.90106e-09 784797 -2.7419e-09 1.03729e+08 2.00112e-10 2.19338e+08 1.57987e-25 2.19338e+08
29 2 -5.55 0 -9.25 -1.54774e+06 -1.54774e+06 -932148 -5.78101e-10 -6.22571e-10 1.08607e-09 1.4257e+08 3.04393e-10 1.4257e+08 1.52196e-09 1.4257e+08
30 2 -7.4 1.85 -9.25 -1.47015e+06 -1.54774e+06 -932099 -0 122.279 -5.12787e-10 9.87021e+07 -0 1.4257e+08 3.80989e-302 1.4257e+08
31 2 -1.85 0 -9.25 -1.54774e+06 -1.54774e+06 -932148 5.78101e-10 5.78101e-10 1.08611e-09 1.4257e+08 3.04393e-10 1.4257e+08 -1.52196e-09 1.4257e+08
32 2 -3.7 1.85 -9.25 -1.54774e+06 -1.54774e+06 -932148 -0 -0 -1.57636e-09 1.4257e+08 6.08785e-10 1.4257e+08 2.28593e-302 1.4257e+08
33 2 1.85 0 -9.25 -1.54774e+06 -1.54774e+06 -932148 1.55643e-09 -1.77877e-09 1.84389e-09 1.4257e+08 6.08785e-10 1.4257e+08 -1.82636e-09 1.4257e+08
34 2 0 1.85 -9.25 -1.54774e+06 -1.54774e+06 -932148 1.55643e-09 1.77877e-09 -1.75443e-09 1.4257e+08 6.08785e-10 1.4257e+08 -1.82636e-09 1.4257e+08
35 2 5.55 0 -9.25 -1.54774e+06 -1.54774e+06 -932148 2.22347e-10 -4.44693e-10 4.58069e-10 1.4257e+08 3.04393e-10 1.4257e+08 6.08785e-10 1.4257e+08
36 2 3.7 1.85 -9.25 -1.54774e+06 -1.54774e+06 -932148 -0 4.44693e-11 -5.12787e-10 1.4257e+08 -0 1.4257e+08 3.80989e-302 1.4257e+08
37 2 9.25 0 -9.25 -1.58234e+06 -2.44678e+06 -1.58234e+06 -3.40468e-10 -784797 -1.45509e-09 1.03729e+08 8.08897e-10 2.19338e+08 -1.82636e-09 2.19338e+08
38 2 7.4 1.85 -9.25 -1.47015e+06 -1.54774e+06 -932099 1.77877e-09 -122.279 -1.66821e-09 9.87021e+07 9.13178e-10 1.4257e+08 -1.21757e-09 1.4257e+08
39 2 -9.25 3.7 -9.25 -1.58234e+06 -2.44678e+06 -1.58234e+06 2.52919e-10 784797 2.35266e-10 1.03729e+08 -0 2.19338e+08 1.21757e-09 2.19338e+08
40 2 -5.55 3.7 -9.25 -1.54774e+06 -1.54774e+06 -932148 -0 -1.06726e-09 2.5926e-11 1.4257e+08 -1.21757e-09 1.4257e+08 3.4289e-302 1.4257e+08
41 2 -7.4 5.55 -9.25 -1.47015e+06 -1.54774e+06 -932099 -0 122.279 -3.34888e-10 9.87021e+07 -6.08785e-10 1.4257e+08 2.28593e-302 1.4257e+08
42 2 -1.85 3.7 -9.25 -1.54774e+06 -1.54774e+06 -932148 -0 1.06726e-09 2.59477e-11 1.4257e+08 -1.21757e-09 1.4257e+08 3.61939e-302 1.4257e+08
43 2 -3.7 5.55 -9.25 -1.54774e+06 -1.54774e+06 -932148 -0 -0 2.33677e-09 1.4257e+08 -1.21757e-09 1.4257e+08 1.14297e-302 1.4257e+08
44 2 1.85 3.7 -9.25 -1.54774e+06 -1.54774e+06 -932148 -0 -5.33632e-10 2.77499e-11 1.4257e+08 -1.21757e-09 1.4257e+08 3.61939e-302 1.4257e+08
45 2 0 5.55 -9.25 -1.54774e+06 -1.54774e+06 -932148 2.22347e-10 4.44693e-10 -4.19896e-10 1.4257e+08 -1.52196e-09 1.4257e+08 6.08785e-10 1.4257e+08
46 2 5.55 3.7 -9.25 -1.54774e+06 -1.54774e+06 -932148 -0 -3.55755e-10 2.15398e-11 1.4257e+08 6.08785e-10 1.4257e+08 3.04791e-302 1.4257e+08
47 2 3.7 5.55 -9.25 -1.54774e+06 -1.54774e+06 -932148 -0 -0 -3.34888e-10 1.4257e+08 -6.08785e-10 1.4257e+08 3.2384e-302 1.4257e+08
48 2 9.25 3.7 -9.25 -1.58234e+06 -2.44678e+06 -1.58234e+06 -2.5014e-10 -784797 2.20002e-10 1.03729e+08 -1.21757e-09 2.19338e+08 -1.21757e-09 2.19338e+08
49 2 7.4 5.55 -9.25 -1.47015e+06 -1.54774e+06 -932099 -8.44917e-10 -122.279 -1.17905e-09 9.87021e+07 -9.13178e-10 1.4257e+08 -0 1.4257e+08
50 2 -9.25 7.4 -9.25 -1.57925e+06 -1.91967e+06 -1.57925e+06 -7612.98 784819 -7612.98 9.65191e+07 -1.10484e-09 1.31603e+08 -1.21757e-09 1.31603e+08
51 2 -5.55 7.4 -9.25 -1.54774e+06 -1.47015e+06 -932099 9.33856e-10 7.11509e-10 -122.279 1.4257e+08 6.08785e-10 9.87021e+07 1.52196e-09 9.87021e+07
52 2 -7.4 9.25 -9.25 -1.91967e+06 -1.57925e+06 -1.57925e+06 -7612.98 7612.98 -784819 1.31603e+08 3.04393e-10 9.65191e+07 2.2101e-302 9.65191e+07
53 2 -1.85 7.4 -9.25 -1.54774e+06 -1.47015e+06 -932099 -9.33856e-10 -7.11509e-10 -122.279 1.4257e+08 6.08785e-10 9.87021e+07 -1.52196e-09 9.87021e+07
54 2 -3.7 9.25 -9.25 -2.44678e+06 -1.58234e+06 -1.58234e+06 4.169e-12 -8.338e-12 -784797 2.19338e+08 2.13075e-09 1.03729e+08 6.26168e-303 1.03729e+08
55 2 1.85 7.4 -9.25 -1.54774e+06 -1.47015e+06 -932099 1.77877e-09 -1.7343e-09 -122.279 1.4257e+08 3.04393e-10 9.87021e+07 -1.21757e-09 9.87021e+07
56 2 0 9.25 -9.25 -2.44678e+06 -1.58234e+06 -1.58234e+06 -3.3897e-10 -1.45509e-09 -784797 2.19338e+08 1.21757e-09 1.03729e+08 -1.72207e-09 1.03729e+08
57 2 5.55 7.4 -9.25 -1.54774e+06 -1.47015e+06 -932099 -8.44917e-10 -1.20067e-09 -122.279 1.4257e+08 -3.04393e-10 9.87021e+07 1.1454e-24 9.87021e+07
58 2 3.7 9.25 -9.25 -2.44678e+06 -1.58234e+06 -1.58234e+06 -2.35277e-10 2.19991e-10 -784797 2.19338e+08 -9.13178e-10 1.03729e+08 -2.00112e-10 1.03729e+08
59 2 9.25 7.4 -9.25 -1.57925e+06 -1.91967e+06 -1.57925e+06 7612.98 -784819 -7612.98 9.65191e+07 -1.91663e-10 1.31603e+08 -4.58162e-24 1.31603e+08
60 2 7.4 9.25 -9.25 -1.91967e+06 -1.57925e+06 -1.57925e+06 7612.98 -7612.98 -784819 1.31603e+08 2.64628e-24 9.65191e+07 -1.01746e-09 9.65191e+07
61 2 -9.25 -9.25 -7.4 -1.57925e+06 -1.57925e+06 -1.91967e+06 784819 7612.98 7612.98 9.65191e+07 5.0028e-11 9.65191e+07 -1.36765e-09 9.65191e+07
62 2 -5.55 -9.25 -7.4 -1.54774e+06 -932099 -1.47015e+06 -1.07122e-09 -0 122.279 1.4257e+08 -6.08785e-10 7.27068e+07 6.00336e-10 7.27068e+07
63 2 -7.4 -9.25 -5.55 -1.47015e+06 -932099 -1.54774e+06 122.279 -0 -1.06726e-09 9.87021e+07 -3.04393e-10 7.27068e+07 2.52582e-302 7.27068e+07
64 2 -1.85 -9.25 -7.4 -1.54774e+06 -932099 -1.47015e+06 1.0664e-09 -0 122.279 1.4257e+08 -6.08785e-10 7.27068e+07 -4.00224e-10 7.27068e+07
65 2 -3.7 -9.25 -5.55 -1.54774e+06 -932148 -1.54774e+06 2.05844e-11 -0 1.6009e-09 1.4257e+08 -9.13178e-10 7.63117e+07 1.70916e-302 7.63117e+07
66 2 1.85 -9.25 -7.4 -1.54774e+06 -932099 -1.47015e+06 -4.70886e-09 -0 122.279 1.4257e+08 -6.08785e-10 7.27068e+07 -6.00336e-10 7.27068e+07
67 2 0 -9.25 -5.55 -1.54774e+06 -932148 -1.54774e+06 4.19792e-09 7.11509e-10 -1.68983e-09 1.4257e+08 -4.56589e-10 7.63117e+07 4.00224e-10 7.63117e+07
68 2 5.55 -9.25 -7.4 -1.54774e+06 -932099 -1.47015e+06 -3.54799e-10 -0 122.279 1.4257e+08 -0 7.27068e+07 9.58314e-11 7.27068e+07
69 2 3.7 -9.25 -5.55 -1.54774e+06 -932148 -1.54774e+06 2.5926e-11 -0 -1.06726e-09 1.4257e+08 -9.13178e-10 7.63117e+07 2.00112e-10 7.63117e+07
70 2 9.25 -9.25 -7.4 -1.57925e+06 -1.57925e+06 -1.91967e+06 -784819 -7612.98 7612.98 9.65191e+07 -5.58757e-10 9.65191e+07 9.6743e-10 9.65191e+07
71 2 7.4 -9.25 -5.55 -1.47015e+06 -932099 -1.54774e+06 -122.279 2.22347e-09 -3.55755e-10 9.87021e+07 -6.08785e-10 7.27068e+07 3.04393e-10 7.27068e+07
72 2 -9.25 -5.55 -7.4 -932099 -1.54774e+06 -1.47015e+06 -1.08811e-09 122.279 -0 7.27068e+07 4.00224e-10 1.4257e+08 2.43514e-09 1.4257e+08
73 2 -9.25 -7.4 -5.55 -932099 -1.47015e+06 -1.54774e+06 122.279 -1.06726e-09 -0 7.27068e+07 -8.00448e-10 9.87021e+07 3.4289e-302 9.87021e+07
74 2 -7.4 -7.4 -7.4 -16463.8 -16463.8 -16463.8 -0 -0 -0 6.58014e+07 -0 6.58014e+07 2.28593e-302 6.58014e+07
75 2 -5.55 -5.55 -7.4 -32927.5 -32927.5 -16463.8 -0 -0 -0 8.77352e+07 -3.04393e-10 8.77352e+07 3.04791e-302 8.77352e+07
76 2 -5.55 -7.4 -5.55 -32927.5 -16463.8 -32927.5 -0 -0 -0 8.77352e+07 -6.08785e-10 6.58014e+07 2.28593e-302 6.58014e+07
77 2 -7.4 -5.55 -5.55 -16463.8 -32927.5 -32927.5 -0 -0 -0 6.58014e+07 -0 8.77352e+07 3.04791e-302 8.77352e+07
78 2 -3.7 -7.4 -7.4 -32927.5 -16463.8 -16463.8 -0 -0 -0 8.77352e+07 -1.21757e-09 6.58014e+07 2.28593e-302 6.58014e+07
79 2 -1.85 -5.55 -7.4 -32927.5 -32927.5 -16463.8 -0 -0 -0 8.77352e+07 -3.04393e-10 8.77352e+07 3.04791e-302 8.77352e+07
80 2 -1.85 -7.4 -5.55 -32927.5 -16463.8 -32927.5 -0 -0 -0 8.77352e+07 -6.08785e-10 6.58014e+07 2.28593e-302 6.58014e+07
81 2 -3.7 -5.55 -5.55 -32927.5 -32927.5 -32927.5 -0 -0 -0 8.77352e+07 -6.08785e-10 8.77352e+07 3.04791e-302 8.77352e+07
82 2 0 -7.4 -7.4 -32927.5 -16463.8 -16463.8 -0 -0 -0 8.77352e+07 -0 6.58014e+07 2.28593e-302 6.58014e+07
83 2 1.85 -5.55 -7.4 -32927.5 -32927.5 -16463.8 -0 -0 -0 8.77352e+07 3.04393e-10 8.77352e+07 -3.04393e-10 8.77352e+07
84 2 1.85 -7.4 -5.55 -32927.5 -16463.8 -32927.5 -0 -0 -0 8.77352e+07 -0 6.58014e+07 2.28593e-302 6.58014e+07
85 2 0 -5.55 -5.55 -32927.5 -32927.5 -32927.5 -0 -0 -0 8.77352e+07 3.04393e-10 8.77352e+07 3.04393e-10 8.77352e+07
86 2 3.7 -7.4 -7.4 -32927.5 -16463.8 -16463.8 -0 -0 -0 8.77352e+07 -0 6.58014e+07 2.28593e-302 6.58014e+07
87 2 5.55 -5.55 -7.4 -32927.5 -32927.5 -16463.8 -0 -0 -0 8.77352e+07 -6.08785e-10 8.77352e+07 -3.04393e-10 8.77352e+07
88 2 5.55 -7.4 -5.55 -32927.5 -16463.8 -32927.5 -0 -0 -0 8.77352e+07 -0 6.58014e+07 -0 6.58014e+07
89 2 3.7 -5.55 -5.55 -32927.5 -32927.5 -32927.5 -0 -0 -0 8.77352e+07 -0 8.77352e+07 3.04791e-302 8.77352e+07
90 2 7.4 -7.4 -7.4 -16463.8 -16463.8 -16463.8 -0 -0 -0 6.58014e+07 -0 6.58014e+07 1.14297e-302 6.58014e+07
91 2 9.25 -5.55 -7.4 -932099 -1.54774e+06 -1.47015e+06 1.08811e-09 -122.279 -0 7.27068e+07 7.04617e-10 1.4257e+08 -2.73953e-09 1.4257e+08
92 2 9.25 -7.4 -5.55 -932099 -1.47015e+06 -1.54774e+06 -122.279 1.06726e-09 -0 7.27068e+07 -8.00448e-10 9.87021e+07 3.4289e-302 9.87021e+07
93 2 7.4 -5.55 -5.55 -16463.8 -32927.5 -32927.5 -0 -0 -0 6.58014e+07 -3.04393e-10 8.77352e+07 6.08785e-10 8.77352e+07
94 2 -9.25 -1.85 -7.4 -932099 -1.54774e+06 -1.47015e+06 1.05037e-09 122.279 -0 7.27068e+07 8.00448e-10 1.4257e+08 -0 1.4257e+08
95 2 -9.25 -3.7 -5.55 -932148 -1.54774e+06 -1.54774e+06 2.06279e-11 1.6009e-09 -0 7.63117e+07 -8.00448e-10 1.4257e+08 4.95285e-302 1.4257e+08
96 2 -7.4 -3.7 -7.4 -16463.8 -32927.5 -16463.8 -0 -0 -0 6.58014e+07 -0 8.77352e+07 3.04791e-302 8.77352e+07
97 2 -5.55 -1.85 -7.4 -32927.5 -32927.5 -16463.8 -0 -0 -0 8.77352e+07 -3.04393e-10 8.77352e+07 3.04791e-302 8.77352e+07
98 2 -5.55 -3.7 -5.55 -32927.5 -32927.5 -32927.5 -0 -0 -0 8.77352e+07 -0 8.77352e+07 3.04791e-302 8.77352e+07
99 2 -7.4 -1.85 -5.55 -16463.8 -32927.5 -32927.5 -0 -0 -0 6.58014e+07 -0 8.77352e+07 3.04791e-302 8.77352e+07
100 2 -3.7 -3.7 -7.4 -32927.5 -32927.5 -16463.8 -0 -0 -0 8.77352e+07 -0 8.77352e+07 3.04791e-302 8.77352e+07
101 2 -1.85 -1.85 -7.4 -32927.5 -32927.5 -16463.8 -0 -0 -0 8.77352e+07 -3.04393e-10 8.77352e+07 3.04791e-302 8.77352e+07
102 2 -1.85 -3.7 -5.55 -32927.5 -32927.5 -32927.5 -0 -0 -0 8.77352e+07 -0 8.77352e+07 3.04791e-302 8.77352e+07
103 2 -3.7 -1.85 -5.55 -32927.5 -32927.5 -32927.5 -0 -0 -0 8.77352e+07 -6.08785e-10 8.77352e+07 3.04791e-302 8.77352e+07
104 2 0 -3.7 -7.4 -32927.5 -32927.5 -16463.8 -0 -0 -0 8.77352e+07 6.08785e-10 8.77352e+07 9.52472e-303 8.77352e+07
105 2 1.85 -1.85 -7.4 -32927.5 -32927.5 -16463.8 -0 -0 -0 8.77352e+07 3.04393e-10 8.77352e+07 3.04393e-10 8.77352e+07
106 2 1.85 -3.7 -5.55 -32927.5 -32927.5 -32927.5 -0 -0 -0 8.77352e+07 6.08785e-10 8.77352e+07 1.14297e-302 8.77352e+07
107 2 0 -1.85 -5.55 -32927.5 -32927.5 -32927.5 -0 -0 -0 8.77352e+07 3.04393e-10 8.77352e+07 -3.04393e-10 8.77352e+07
108 2 3.7 -3.7 -7.4 -32927.5 -32927.5 -16463.8 -0 -0 -0 8.77352e+07 -0 8.77352e+07 3.04791e-302 8.77352e+07
109 2 5.55 -1.85 -7.4 -32927.5 -32927.5 -16463.8 -0 -0 -0 8.77352e+07 -6.08785e-10 8.77352e+07 3.04393e-10 8.77352e+07
110 2 5.55 -3.7 -5.55 -32927.5 -32927.5 -32927.5 -0 -0 -0 8.77352e+07 -1.21757e-09 8.77352e+07 7.61977e-303 8.77352e+07
111 2 3.7 -1.85 -5.55 -32927.5 -32927.5 -32927.5 -0 -0 -0 8.77352e+07 -0 8.77352e+07 3.04791e-302 8.77352e+07
112 2 7.4 -3.7 -7.4 -16463.8 -32927.5 -16463.8 -0 -0 -0 6.58014e+07 -6.08785e-10 8.77352e+07 7.89934e-26 8.77352e+07
113 2 9.25 -1.85 -7.4 -932099 -1.54774e+06 -1.47015e+06 -1.05037e-09 -122.279 -0 7.27068e+07 1.10484e-09 1.4257e+08 3.04393e-10 1.4257e+08
114 2 9.25 -3.7 -5.55 -932148 -1.54774e+06 -1.54774e+06 -2.05844e-11 -1.6009e-09 -0 7.63117e+07 -1.91663e-10 1.4257e+08 3.04791e-302 1.4257e+08
115 2 7.4 -1.85 -5.55 -16463.8 -32927.5 -32927.5 -0 -0 -0 6.58014e+07 -3.04393e-10 8.77352e+07 -6.08785e-10 8.77352e+07
116 2 -9.25 1.85 -7.4 -932099 -1.54774e+06 -1.47015e+06 -4.72969e-09 122.279 -0 7.27068e+07 -0 1.4257e+08 -3.04393e-09 1.4257e+08
117 2 -9.25 0 -5.55 -932148 -1.54774e+06 -1.54774e+06 4.19799e-09 -1.68983e-09 7.11509e-10 7.63117e+07 -4.00224e-10 1.4257e+08 1.52196e-09 1.4257e+08
118 2 -7.4 0 -7.4 -16463.8 -32927.5 -16463.8 -0 -0 -0 6.58014e+07 -0 8.77352e+07 3.04791e-302 8.77352e+07
119 2 -5.55 1.85 -7.4 -32927.5 -32927.5 -16463.8 -0 -0 -0 8.77352e+07 3.04393e-10 8.77352e+07 -3.04393e-10 8.77352e+07
120 2 -5.55 0 -5.55 -32927.5 -32927.5 -32927.5 -0 -0 -0 8.77352e+07 3.04393e-10 8.77352e+07 3.04393e-10 8.77352e+07
121 2 -7.4 1.85 -5.55 -16463.8 -32927.5 -32927.5 -0 -0 -0 6.58014e+07 -0 8.77352e+07 3.04791e-302 8.77352e+07
122 2 -3.7 0 -7.4 -32927.5 -32927.5 -16463.8 -0 -0 -0 8.77352e+07 6.08785e-10 8.77352e+07 9.52472e-303 8.77352e+07
123 2 -1.85 1.85 -7.4 -32927.5 -32927.5 -16463.8 -0 -0 -0 8.77352e+07 3.04393e-10 8.77352e+07 3.04393e-10 8.77352e+07
124 2 -1.85 0 -5.55 -32927.5 -32927.5 -32927.5 -0 -0 -0 8.77352e+07 3.04393e-10 8.77352e+07 -3.04393e-10 8.77352e+07
125 2 -3.7 1.85 -5.55 -32927.5 -32927.5 -32927.5 -0 -0 -0 8.77352e+07 6.08785e-10 8.77352e+07 1.71445e-302 8.77352e+07
126 2 0 0 -7.4 -32927.5 -32927.5 -16463.8 -0 -0 -0 8.77352e+07 9.13178e-10 8.77352e+07 9.13178e-10 8.77352e+07
127 2 1.85 1.85 -7.4 -32927.5 -32927.5 -16463.8 -0 -0 -0 8.77352e+07 9.13178e-10 8.77352e+07 9.13178e-10 8.77352e+07
128 2 1.85 0 -5.55 -32927.5 -32927.5 -32927.5 -0 -0 -0 8.77352e+07 9.13178e-10 8.77352e+07 -9.13178e-10 8.77352e+07
129 2 0 1.85 -5.55 -32927.5 -32927.5 -32927.5 -0 -0 -0 8.77352e+07 9.13178e-10 8.77352e+07 -9.13178e-10 8.77352e+07
130 2 3.7 0 -7.4 -32927.5 -32927.5 -16463.8 -0 -0 -0 8.77352e+07 -0 8.77352e+07 3.04791e-302 8.77352e+07
131 2 5.55 1.85 -7.4 -32927.5 -32927.5 -16463.8 -0 -0 -0 8.77352e+07 -0 8.77352e+07 -3.04393e-10 8.77352e+07
132 2 5.55 0 -5.55 -32927.5 -32927.5 -32927.5 -0 -0 -0 8.77352e+07 -0 8.77352e+07 3.04393e-10 8.77352e+07
133 2 3.7 1.85 -5.55 -32927.5 -32927.5 -32927.5 -0 -0 -0 8.77352e+07 -0 8.77352e+07 3.04791e-302 8.77352e+07
134 2 7.4 0 -7.4 -16463.8 -32927.5 -16463.8 -0 -0 -0 6.58014e+07 9.13178e-10 8.77352e+07 6.08785e-10 8.77352e+07
135 2 9.25 1.85 -7.4 -932099 -1.54774e+06 -1.47015e+06 4.72977e-09 -122.279 -0 7.27068e+07 9.13178e-10 1.4257e+08 3.9571e-09 1.4257e+08
136 2 9.25 0 -5.55 -932148 -1.54774e+06 -1.54774e+06 -4.19797e-09 1.68983e-09 7.11509e-10 7.63117e+07 5.12954e-10 1.4257e+08 -2.43514e-09 1.4257e+08
137 2 7.4 1.85 -5.55 -16463.8 -32927.5 -32927.5 -0 -0 -0 6.58014e+07 9.13178e-10 8.77352e+07 -6.08785e-10 8.77352e+07
138 2 -9.25 5.55 -7.4 -932099 -1.54774e+06 -1.47015e+06 -3.76578e-10 122.279 -0 7.27068e+07 -4.00224e-10 1.4257e+08 3.04393e-10 1.4257e+08
139 2 -9.25 3.7 -5.55 -932148 -1.54774e+06 -1.54774e+06 2.59694e-11 -1.06726e-09 -0 7.63117e+07 -4.00224e-10 1.4257e+08 -2.3698e-24 1.4257e+08
140 2 -7.4 3.7 -7.4 -16463.8 -32927.5 -16463.8 -0 -0 -0 6.58014e+07 -0 8.77352e+07 3.04791e-302 8.77352e+07
141 2 -5.55 5.55 -7.4 -32927.5 -32927.5 -16463.8 -0 -0 -0 8.77352e+07 -3.04393e-10 8.77352e+07 -3.04393e-10 8.77352e+07
142 2 -5.55 3.7 -5.55 -32927.5 -32927.5 -32927.5 -0 -0 -0 8.77352e+07 -6.08785e-10 8.77352e+07 3.04791e-302 8.77352e+07
143 2 -7.4 5.55 -5.55 -16463.8 -32927.5 -32927.5 -0 -0 -0 6.58014e+07 -0 8.77352e+07 -0 8.77352e+07
144 2 -3.7 3.7 -7.4 -32927.5 -32927.5 -16463.8 -0 -0 -0 8.77352e+07 -1.21757e-09 8.77352e+07 3.04791e-302 8.77352e+07
145 2 -1.85 5.55 -7.4 -32927.5 -32927.5 -16463.8 -0 -0 -0 8.77352e+07 -3.04393e-10 8.77352e+07 3.04393e-10 8.77352e+07
146 2 -1.85 3.7 -5.55 -32927.5 -32927.5 -32927.5 -0 -0 -0 8.77352e+07 -6.08785e-10 8.77352e+07 3.04791e-302 8.77352e+07
147 2 -3.7 5.55 -5.55 -32927.5 -32927.5 -32927.5 -0 -0 -0 8.77352e+07 -6.08785e-10 8.77352e+07 -0 8.77352e+07
148 2 0 3.7 -7.4 -32927.5 -32927.5 -16463.8 -0 -0 -0 8.77352e+07 -0 8.77352e+07 3.04791e-302 8.77352e+07
149 2 1.85 5.55 -7.4 -32927.5 -32927.5 -16463.8 -0 -0 -0 8.77352e+07 -0 8.77352e+07 -3.04393e-10 8.77352e+07
150 2 1.85 3.7 -5.55 -32927.5 -32927.5 -32927.5 -0 -0 -0 8.77352e+07 -0 8.77352e+07 3.04791e-302 8.77352e+07
151 2 0 5.55 -5.55 -32927.5 -32927.5 -32927.5 -0 -0 -0 8.77352e+07 -0 8.77352e+07 3.04393e-10 8.77352e+07
152 2 3.7 3.7 -7.4 -32927.5 -32927.5 -16463.8 -0 -0 -0 8.77352e+07 -0 8.77352e+07 3.04791e-302 8.77352e+07
153 2 5.55 5.55 -7.4 -32927.5 -32927.5 -16463.8 -0 -0 -0 8.77352e+07 -0 8.77352e+07 6.08785e-10 8.77352e+07
154 2 5.55 3.7 -5.55 -32927.5 -32927.5 -32927.5 -0 -0 -0 8.77352e+07 -0 8.77352e+07 7.61977e-303 8.77352e+07
155 2 3.7 5.55 -5.55 -32927.5 -32927.5 -32927.5 -0 -0 -0 8.77352e+07 -0 8.77352e+07 9.52472e-303 8.77352e+07
156 2 7.4 3.7 -7.4 -16463.8 -32927.5 -16463.8 -0 -0 -0 6.58014e+07 -0 8.77352e+07 1.14297e-302 8.77352e+07
157 2 9.25 5.55 -7.4 -932099 -1.54774e+06 -1.47015e+06 3.766e-10 -122.279 -0 7.27068e+07 -4.00224e-10 1.4257e+08 -6.08785e-10 1.4257e+08
158 2 9.25 3.7 -5.55 -932148 -1.54774e+06 -1.54774e+06 -2.60128e-11 1.06726e-09 -0 7.63117e+07 -4.00224e-10 1.4257e+08 2.3698e-24 1.4257e+08
159 2 7.4 5.55 -5.55 -16463.8 -32927.5 -32927.5 -0 -0 -0 6.58014e+07 -0 8.77352e+07 -3.04393e-10 8.77352e+07
160 2 -9.25 9.25 -7.4 -1.57925e+06 -1.57925e+06 -1.91967e+06 -784819 7612.98 -7612.98 9.65191e+07 -3.50196e-10 9.65191e+07 7.58869e-10 9.65191e+07
161 2 -9.25 7.4 -5.55 -932099 -1.47015e+06 -1.54774e+06 -122.279 -3.55755e-10 2.22347e-09 7.27068e+07 -8.00448e-10 9.87021e+07 -6.08785e-10 9.87021e+07
162 2 -7.4 7.4 -7.4 -16463.8 -16463.8 -16463.8 -0 -0 -0 6.58014e+07 -0 6.58014e+07 7.61977e-303 6.58014e+07
163 2 -5.55 9.25 -7.4 -1.54774e+06 -932099 -1.47015e+06 1.06726e-09 -0 -122.279 1.4257e+08 3.04393e-10 7.27068e+07 -9.04729e-10 7.27068e+07
164 2 -5.55 7.4 -5.55 -32927.5 -16463.8 -32927.5 -0 -0 -0 8.77352e+07 6.08785e-10 6.58014e+07 6.08785e-10 6.58014e+07
165 2 -7.4 9.25 -5.55 -1.47015e+06 -932099 -1.54774e+06 -122.279 -0 1.06726e-09 9.87021e+07 -3.04393e-10 7.27068e+07 2.52582e-302 7.27068e+07
166 2 -3.7 7.4 -7.4 -32927.5 -16463.8 -16463.8 -0 -0 -0 8.77352e+07 1.21757e-09 6.58014e+07 1.90494e-303 6.58014e+07
167 2 -1.85 9.25 -7.4 -1.54774e+06 -932099 -1.47015e+06 -1.06726e-09 -0 -122.279 1.4257e+08 3.04393e-10 7.27068e+07 7.04617e-10 7.27068e+07
168 2 -1.85 7.4 -5.55 -32927.5 -16463.8 -32927.5 -0 -0 -0 8.77352e+07 6.08785e-10 6.58014e+07 -6.08785e-10 6.58014e+07
169 2 -3.7 9.25 -5.55 -1.54774e+06 -932148 -1.54774e+06 -2.06061e-11 -0 -1.6009e-09 1.4257e+08 9.13178e-10 7.63117e+07 2.50467e-303 7.63117e+07
170 2 0 7.4 -7.4 -32927.5 -16463.8 -16463.8 -0 -0 -0 8.77352e+07 9.13178e-10 6.58014e+07 6.08785e-10 6.58014e+07
171 2 1.85 9.25 -7.4 -1.54774e+06 -932099 -1.47015e+06 4.71375e-09 -0 -122.279 1.4257e+08 3.04393e-10 7.27068e+07 1.51351e-09 7.27068e+07
172 2 1.85 7.4 -5.55 -32927.5 -16463.8 -32927.5 -0 -0 -0 8.77352e+07 9.13178e-10 6.58014e+07 -6.08785e-10 6.58014e+07
173 2 0 9.25 -5.55 -1.54774e+06 -932148 -1.54774e+06 -4.19797e-09 7.11509e-10 1.68983e-09 1.4257e+08 4.56589e-10 7.63117e+07 -1.3134e-09 7.63117e+07
174 2 3.7 7.4 -7.4 -32927.5 -16463.8 -16463.8 -0 -0 -0 8.77352e+07 -0 6.58014e+07 7.61977e-303 6.58014e+07
175 2 5.55 9.25 -7.4 -1.54774e+06 -932099 -1.47015e+06 3.55755e-10 -0 -122.279 1.4257e+08 -0 7.27068e+07 -4.00224e-10 7.27068e+07
176 2 5.55 7.4 -5.55 -32927.5 -16463.8 -32927.5 -0 -0 -0 8.77352e+07 -0 6.58014e+07 -3.04393e-10 6.58014e+07
177 2 3.7 9.25 -5.55 -1.54774e+06 -932148 -1.54774e+06 -2.59911e-11 -0 1.06726e-09 1.4257e+08 -9.13178e-10 7.63117e+07 -2.00112e-10 7.63117e+07
178 2 7.4 7.4 -7.4 -16463.8 -16463.8 -16463.8 -0 -0 -0 6.58014e+07 9.13178e-10 6.58014e+07 9.13178e-10 6.58014e+07
179 2 9.25 9.25 -7.4 -1.57925e+06 -1.57925e+06 -1.91967e+06 784819 -7612.98 -7612.98 9.65191e+07 -4.58034e-11 9.65191e+07 5.54533e-10 9.65191e+07
180 2 9.25 7.4 -5.55 -932099 -1.47015e+06 -1.54774e+06 122.279 3.55755e-10 2.22347e-09 7.27068e+07 1.1273e-10 9.87021e+07 -3.31772e-24 9.87021e+07
181 2 7.4 9.25 -5.55 -1.47015e+06 -932099 -1.54774e+06 122.279 2.22347e-09 3.55755e-10 9.87021e+07 3.04393e-10 7.27068e+07 -9.13178e-10 7.27068e+07
182 2 -9.25 -9.25 -3.7 -1.58234e+06 -1.58234e+06 -2.44678e+06 784797 -0 -0 1.03729e+08 -6.04561e-10 1.03729e+08 -1.31763e-09 1.03729e+08
183 2 -5.55 -9.25 -3.7 -1.54774e+06 -932148 -1.54774e+06 1.5966e-09 -0 -0 1.4257e+08 -6.08785e-10 7.63117e+07 -2.00112e-10 7.63117e+07
184 2 -7.4 -9.25 -1.85 -1.47015e+06 -932099 -1.54774e+06 122.279 -0 1.06726e-09 9.87021e+07 -3.04393e-10 7.27068e+07 2.52582e-302 7.27068e+07
185 2 -1.85 -9.25 -3.7 -1.54774e+06 -932148 -1.54774e+06 -1.60133e-09 -0 -0 1.4257e+08 -6.08785e-10 7.63117e+07 4.00224e-10 7.63117e+07
186 2 -3.7 -9.25 -1.85 -1.54774e+06 -932148 -1.54774e+06 2.0541e-11 -0 -1.6009e-09 1.4257e+08 -9.13178e-10 7.63117e+07 4.40962e-303 7.63117e+07
187 2 1.85 -9.25 -3.7 -1.54774e+06 -932148 -1.54774e+06 -3.64169e-09 -0 -0 1.4257e+08 -3.04393e-10 7.63117e+07 -6.00336e-10 7.63117e+07
188 2 0 -9.25 -1.85 -1.54774e+06 -932148 -1.54774e+06 4.19792e-09 -7.11509e-10 1.68983e-09 1.4257e+08 -4.56589e-10 7.63117e+07 4.00224e-10 7.63117e+07
189 2 5.55 -9.25 -3.7 -1.54774e+06 -932148 -1.54774e+06 2.31336e-09 -0 -0 1.4257e+08 3.04393e-10 7.63117e+07 -3.04393e-10 7.63117e+07
190 2 3.7 -9.25 -1.85 -1.54774e+06 -932148 -1.54774e+06 2.59694e-11 -0 1.06726e-09 1.4257e+08 -9.13178e-10 7.63117e+07 2.00112e-10 7.63117e+07
191 2 9.25 -9.25 -3.7 -1.58234e+06 -1.58234e+06 -2.44678e+06 -784797 -0 -0 1.03729e+08 -3.00168e-10 1.03729e+08 9.17402e-10 1.03729e+08
192 2 7.4 -9.25 -1.85 -1.47015e+06 -932099 -1.54774e+06 -122.279 -2.22347e-09 3.55755e-10 9.87021e+07 -6.08785e-10 7.27068e+07 3.04393e-10 7.27068e+07
193 2 -9.25 -5.55 -3.7 -932148 -1.54774e+06 -1.54774e+06 1.5764e-09 -0 -0 7.63117e+07 -0 1.4257e+08 2.43514e-09 1.4257e+08
194 2 -9.25 -7.4 -1.85 -932099 -1.47015e+06 -1.54774e+06 122.279 1.06726e-09 -0 7.27068e+07 -8.00448e-10 9.87021e+07 3.4289e-302 9.87021e+07
195 2 -7.4 -7.4 -3.7 -16463.8 -16463.8 -32927.5 -0 -0 -0 6.58014e+07 -0 6.58014e+07 2.28593e-302 6.58014e+07
196 2 -5.55 -5.55 -3.7 -32927.5 -32927.5 -32927.5 -0 -0 -0 8.77352e+07 -3.04393e-10 8.77352e+07 3.04791e-302 8.77352e+07
197 2 -5.55 -7.4 -1.85 -32927.5 -16463.8 -32927.5 -0 -0 -0 8.77352e+07 -6.08785e-10 6.58014e+07 2.28593e-302 6.58014e+07
198 2 -7.4 -5.55 -1.85 -16463.8 -32927.5 -32927.5 -0 -0 -0 6.58014e+07 -0 8.77352e+07 3.04791e-302 8.77352e+07
199 2 -3.7 -7.4 -3.7 -32927.5 -16463.8 -32927.5 -0 -0 -0 8.77352e+07 -1.21757e-09 6.58014e+07 2.28593e-302 6.58014e+07
200 2 -1.85 -5.55 -3.7 -32927.5 -32927.5 -32927.5 -0 -0 -0 8.77352e+07 -3.04393e-10 8.77352e+07 3.04791e-302 8.77352e+07
201 2 -1.85 -7.4 -1.85 -32927.5 -16463.8 -32927.5 -0 -0 -0 8.77352e+07 -6.08785e-10 6.58014e+07 2.28593e-302 6.58014e+07
202 2 -3.7 -5.55 -1.85 -32927.5 -32927.5 -32927.5 -0 -0 -0 8.77352e+07 -6.08785e-10 8.77352e+07 3.04791e-302 8.77352e+07
203 2 0 -7.4 -3.7 -32927.5 -16463.8 -32927.5 -0 -0 -0 8.77352e+07 -0 6.58014e+07 2.28593e-302 6.58014e+07
204 2 1.85 -5.55 -3.7 -32927.5 -32927.5 -32927.5 -0 -0 -0 8.77352e+07 3.04393e-10 8.77352e+07 -3.04393e-10 8.77352e+07
205 2 1.85 -7.4 -1.85 -32927.5 -16463.8 -32927.5 -0 -0 -0 8.77352e+07 -0 6.58014e+07 2.28593e-302 6.58014e+07
206 2 0 -5.55 -1.85 -32927.5 -32927.5 -32927.5 -0 -0 -0 8.77352e+07 3.04393e-10 8.77352e+07 3.04393e-10 8.77352e+07
207 2 3.7 -7.4 -3.7 -32927.5 -16463.8 -32927.5 -0 -0 -0 8.77352e+07 -0 6.58014e+07 2.28593e-302 6.58014e+07
208 2 5.55 -5.55 -3.7 -32927.5 -32927.5 -32927.5 -0 -0 -0 8.77352e+07 -6.08785e-10 8.77352e+07 -3.04393e-10 8.77352e+07
209 2 5.55 -7.4 -1.85 -32927.5 -16463.8 -32927.5 -0 -0 -0 8.77352e+07 -0 6.58014e+07 3.80989e-303 6.58014e+07
210 2 3.7 -5.55 -1.85 -32927.5 -32927.5 -32927.5 -0 -0 -0 8.77352e+07 -0 8.77352e+07 3.04791e-302 8.77352e+07
211 2 7.4 -7.4 -3.7 -16463.8 -16463.8 -32927.5 -0 -0 -0 6.58014e+07 -0 6.58014e+07 1.14297e-302 6.58014e+07
212 2 9.25 -5.55 -3.7 -932148 -1.54774e+06 -1.54774e+06 -1.57638e-09 -0 -0 7.63117e+07 3.04393e-10 1.4257e+08 -2.73953e-09 1.4257e+08
213 2 9.25 -7.4 -1.85 -932099 -1.47015e+06 -1.54774e+06 -122.279 -1.06726e-09 -0 7.27068e+07 -8.00448e-10 9.87021e+07 3.4289e-302 9.87021e+07
214 2 7.4 -5.55 -1.85 -16463.8 -32927.5 -32927.5 -0 -0 -0 6.58014e+07 -3.04393e-10 8.77352e+07 6.08785e-10 8.77352e+07
215 2 -9.25 -1.85 -3.7 -932148 -1.54774e+06 -1.54774e+06 -1.62109e-09 -0 -0 7.63117e+07 4.00224e-10 1.4257e+08 -0 1.4257e+08
216 2 -9.25 -3.7 -1.85 -932148 -1.54774e+06 -1.54774e+06 -0 -1.6009e-09 -0 7.63117e+07 -8.00448e-10 1.4257e+08 4.95285e-302 1.4257e+08
217 2 -7.4 -3.7 -3.7 -16463.8 -32927.5 -32927.5 -0 -0 -0 6.58014e+07 -0 8.77352e+07 3.04791e-302 8.77352e+07
218 2 -5.55 -1.85 -3.7 -32927.5 -32927.5 -32927.5 -0 -0 -0 8.77352e+07 -3.04393e-10 8.77352e+07 3.04791e-302 8.77352e+07
219 2 -5.55 -3.7 -1.85 -32927.5 -32927.5 -32927.5 -0 -0 -0 8.77352e+07 -0 8.77352e+07 3.04791e-302 8.77352e+07
220 2 -7.4 -1.85 -1.85 -16463.8 -32927.5 -32927.5 -0 -0 -0 6.58014e+07 -0 8.77352e+07 3.04791e-302 8.77352e+07
221 2 -3.7 -3.7 -3.7 -32927.5 -32927.5 -32927.5 -0 -0 -0 8.77352e+07 -0 8.77352e+07 3.04791e-302 8.77352e+07
222 2 -1.85 -1.85 -3.7 -32927.5 -32927.5 -32927.5 -0 -0 -0 8.77352e+07 -3.04393e-10 8.77352e+07 3.04791e-302 8.77352e+07
223 2 -1.85 -3.7 -1.85 -32927.5 -32927.5 -32927.5 -0 -0 -0 8.77352e+07 -0 8.77352e+07 3.04791e-302 8.77352e+07
224 2 -3.7 -1.85 -1.85 -32927.5 -32927.5 -32927.5 -0 -0 -0 8.77352e+07 -6.08785e-10 8.77352e+07 3.04791e-302 8.77352e+07
225 2 0 -3.7 -3.7 -32927.5 -32927.5 -32927.5 -0 -0 -0 8.77352e+07 6.08785e-10 8.77352e+07 9.52472e-303 8.77352e+07
226 2 1.85 -1.85 -3.7 -32927.5 -32927.5 -32927.5 -0 -0 -0 8.77352e+07 3.04393e-10 8.77352e+07 3.04393e-10 8.77352e+07
227 2 1.85 -3.7 -1.85 -32927.5 -32927.5 -32927.5 -0 -0 -0 8.77352e+07 6.08785e-10 8.77352e+07 1.33346e-302 8.77352e+07
228 2 0 -1.85 -1.85 -32927.5 -32927.5 -32927.5 -0 -0 -0 8.77352e+07 3.04393e-10 8.77352e+07 -3.04393e-10 8.77352e+07
229 2 3.7 -3.7 -3.7 -32927.5 -32927.5 -32927.5 -0 -0 -0 8.77352e+07 -0 8.77352e+07 3.04791e-302 8.77352e+07
230 2 5.55 -1.85 -3.7 -32927.5 -32927.5 -32927.5 -0 -0 -0 8.77352e+07 -6.08785e-10 8.77352e+07 3.04393e-10 8.77352e+07
231 2 5.55 -3.7 -1.85 -32927.5 -32927.5 -32927.5 -0 -0 -0 8.77352e+07 -1.21757e-09 8.77352e+07 1.14297e-302 8.77352e+07