ITEM: TIMESTEP
0
ITEM: NUMBER OF ATOMS
665
ITEM: BOX BOUNDS xy xz yz pp pp pp
-1.0000000000000000e+01 1.0000000000000000e+01 0.0000000000000000e+00
-1.0000000000000000e+01 1.0000000000000000e+01 0.0000000000000000e+00
-1.0000000000000000e+01 1.0000000000000000e+01 0.0000000000000000e+00
ITEM: ATOMS id type x y z c_1[1] c_1[2] c_1[3] c_1[4] c_1[5] c_1[6] c_1[7] c_1[8] c_1[13] c_1[15] c_1[22]
1 2 -7.4 -9.25 -9.25 4.83809e+07 5.52936e+07 5.52936e+07 -6.92782e+06 -6.92782e+06 -8.13665e+06 6.00258e+07 2.88777e+06 4.26956e+07 -286135 3.59022e+07
2 2 -3.7 -9.25 -9.25 8.07018e+07 5.79365e+07 5.79365e+07 -0.103217 -0.103217 -6.78728e+06 1.02482e+08 3.59357e+06 4.55424e+07 -0 3.93388e+07
3 2 0 -9.25 -9.25 8.07018e+07 5.79365e+07 5.79365e+07 -9.34931e-10 -1.41858e-09 -6.78728e+06 1.02482e+08 3.59357e+06 4.55424e+07 -3.11285e-10 3.93388e+07
4 2 3.7 -9.25 -9.25 8.07018e+07 5.79365e+07 5.79365e+07 0.103217 0.103217 -6.78728e+06 1.02482e+08 3.59357e+06 4.55424e+07 -4.89163e-10 3.93388e+07
5 2 7.4 -9.25 -9.25 4.83809e+07 5.52936e+07 5.52936e+07 6.92782e+06 6.92782e+06 -8.13665e+06 6.00258e+07 2.88777e+06 4.26956e+07 286135 3.59022e+07
6 2 -9.25 -7.4 -9.25 5.52936e+07 4.83809e+07 5.52936e+07 -6.92782e+06 -8.13665e+06 -6.92782e+06 4.26956e+07 2.88777e+06 6.00258e+07 -1.74097e+06 4.98317e+07
7 2 -5.55 -7.4 -9.25 5.12377e+07 3.56458e+07 4.8951e+07 75.9988 -43.2891 -3.56721e+06 6.50975e+07 3.46432e+06 4.35514e+07 -0 3.71803e+07
8 2 -7.4 -5.55 -9.25 3.56458e+07 5.12377e+07 4.8951e+07 75.9988 -3.56721e+06 -43.2891 4.35514e+07 3.46432e+06 6.50975e+07 -0 5.34032e+07
9 2 -1.85 -7.4 -9.25 5.12374e+07 3.56459e+07 4.8951e+07 1.71156e-17 1.07625e-09 -3.56719e+06 6.50975e+07 3.46432e+06 4.35514e+07 -0 3.71803e+07
10 2 -3.7 -5.55 -9.25 5.10461e+07 5.10461e+07 5.01973e+07 -5.02765e-12 -0.00110772 -28.5004 6.50975e+07 3.46432e+06 6.50975e+07 -0 5.34032e+07
11 2 1.85 -7.4 -9.25 5.12374e+07 3.56459e+07 4.8951e+07 -7.11509e-10 4.62836e-09 -3.56719e+06 6.50975e+07 3.46432e+06 4.35514e+07 -0 3.71803e+07
12 2 0 -5.55 -9.25 5.10461e+07 5.10461e+07 5.01973e+07 1.06329e-12 -3.7281e-09 -28.5004 6.50975e+07 3.46432e+06 6.50975e+07 3.55755e-10 5.34032e+07
13 2 5.55 -7.4 -9.25 5.12377e+07 3.56458e+07 4.8951e+07 -75.9988 43.2891 -3.56721e+06 6.50975e+07 3.46432e+06 4.35514e+07 -0 3.71803e+07
14 2 3.7 -5.55 -9.25 5.10461e+07 5.10461e+07 5.01973e+07 3.64822e-10 0.00110772 -28.5004 6.50975e+07 3.46432e+06 6.50975e+07 -0 5.34032e+07
15 2 9.25 -7.4 -9.25 5.52936e+07 4.83809e+07 5.52936e+07 6.92782e+06 8.13665e+06 -6.92782e+06 4.26956e+07 2.88777e+06 6.00258e+07 1.74097e+06 4.98317e+07
16 2 7.4 -5.55 -9.25 3.56458e+07 5.12377e+07 4.8951e+07 -75.9988 3.56721e+06 -43.2891 4.35514e+07 3.46432e+06 6.50975e+07 -8.89387e-11 5.34032e+07
17 2 -9.25 -3.7 -9.25 5.79365e+07 8.07018e+07 5.79365e+07 -0.103217 -6.78728e+06 -0.103217 4.55424e+07 3.59357e+06 1.02482e+08 -0 8.33759e+07
18 2 -5.55 -3.7 -9.25 5.10461e+07 5.10461e+07 5.01973e+07 -1.25943e-11 -28.5004 -0.00110772 6.50975e+07 3.46432e+06 6.50975e+07 -0 5.34032e+07
19 2 -7.4 -1.85 -9.25 3.56459e+07 5.12374e+07 4.8951e+07 -3.55755e-10 -3.56719e+06 1.62813e-09 4.35514e+07 3.46432e+06 6.50975e+07 -0 5.34032e+07
20 2 -1.85 -3.7 -9.25 5.10461e+07 5.10461e+07 5.01973e+07 -2.1875e-14 1.12101e-09 -0.00110772 6.50975e+07 3.46432e+06 6.50975e+07 -0 5.34032e+07
21 2 -3.7 -1.85 -9.25 5.10461e+07 5.10461e+07 5.01973e+07 3.35706e-19 -0.00110772 7.01223e-10 6.50975e+07 3.46432e+06 6.50975e+07 -0 5.34032e+07
22 2 1.85 -3.7 -9.25 5.10461e+07 5.10461e+07 5.01973e+07 8.21998e-18 5.65463e-09 -0.00110772 6.50975e+07 3.46432e+06 6.50975e+07 -0 5.34032e+07
23 2 0 -1.85 -9.25 5.10461e+07 5.10461e+07 5.01973e+07 1.50331e-12 -3.54579e-09 1.42302e-09 6.50975e+07 3.46432e+06 6.50975e+07 -3.55755e-10 5.34032e+07
24 2 5.55 -3.7 -9.25 5.10461e+07 5.10461e+07 5.01973e+07 -4.90031e-15 28.5004 -0.00110772 6.50975e+07 3.46432e+06 6.50975e+07 -0 5.34032e+07
25 2 3.7 -1.85 -9.25 5.10461e+07 5.10461e+07 5.01973e+07 -3.55755e-10 0.00110772 1.06726e-09 6.50975e+07 3.46432e+06 6.50975e+07 -0 5.34032e+07
26 2 9.25 -3.7 -9.25 5.79365e+07 8.07018e+07 5.79365e+07 0.103217 6.78728e+06 -0.103217 4.55424e+07 3.59357e+06 1.02482e+08 -0 8.33759e+07
27 2 7.4 -1.85 -9.25 3.56459e+07 5.12374e+07 4.8951e+07 -5.52332e-10 3.56719e+06 2.13453e-09 4.35514e+07 3.46432e+06 6.50975e+07 8.89387e-11 5.34032e+07
28 2 -9.25 0 -9.25 5.79365e+07 8.07018e+07 5.79365e+07 -1.42302e-09 -6.78728e+06 -1.7702e-09 4.55424e+07 3.59357e+06 1.02482e+08 7.11509e-10 8.33759e+07
29 2 -5.55 0 -9.25 5.10461e+07 5.10461e+07 5.01973e+07 -3.89718e-12 -28.5004 -3.9131e-09 6.50975e+07 3.46432e+06 6.50975e+07 2.22347e-10 5.34032e+07
30 2 -7.4 1.85 -9.25 3.56459e+07 5.12374e+07 4.8951e+07 -3.55755e-10 -3.56719e+06 4.82992e-09 4.35514e+07 3.46432e+06 6.50975e+07 -0 5.34032e+07
31 2 -1.85 0 -9.25 5.10461e+07 5.10461e+07 5.01973e+07 4.72232e-12 1.77877e-09 -3.86745e-09 6.50975e+07 3.46432e+06 6.50975e+07 -2.22347e-10 5.34032e+07
32 2 -3.7 1.85 -9.25 5.10461e+07 5.10461e+07 5.01973e+07 1.47877e-18 -0.00110772 5.68179e-09 6.50975e+07 3.46432e+06 6.50975e+07 -0 5.34032e+07
33 2 1.85 0 -9.25 5.10461e+07 5.10461e+07 5.01973e+07 3.56568e-10 5.69207e-09 -3.9125e-09 6.50975e+07 3.46432e+06 6.50975e+07 -4.00224e-10 5.34032e+07
34 2 0 1.85 -9.25 5.10461e+07 5.10461e+07 5.01973e+07 3.53408e-10 -3.54962e-09 5.33632e-09 6.50975e+07 3.46432e+06 6.50975e+07 -4.00224e-10 5.34032e+07
35 2 5.55 0 -9.25 5.10461e+07 5.10461e+07 5.01973e+07 -1.06964e-09 28.5004 -2.98153e-09 6.50975e+07 3.46432e+06 6.50975e+07 8.00448e-10 5.34032e+07
36 2 3.7 1.85 -9.25 5.10461e+07 5.10461e+07 5.01973e+07 -3.55755e-10 0.00110772 4.62481e-09 6.50975e+07 3.46432e+06 6.50975e+07 -0 5.34032e+07
37 2 9.25 0 -9.25 5.79365e+07 8.07018e+07 5.79365e+07 7.11509e-10 6.78728e+06 -1.06752e-09 4.55424e+07 3.59357e+06 1.02482e+08 -1.06726e-09 8.33759e+07
38 2 7.4 1.85 -9.25 3.56459e+07 5.12374e+07 4.8951e+07 -2.08891e-10 3.56719e+06 3.9133e-09 4.35514e+07 3.46432e+06 6.50975e+07 4.00224e-10 5.34032e+07
39 2 -9.25 3.7 -9.25 5.79365e+07 8.07018e+07 5.79365e+07 0.103217 -6.78728e+06 0.103217 4.55424e+07 3.59357e+06 1.02482e+08 8.89387e-10 8.33759e+07
40 2 -5.55 3.7 -9.25 5.10461e+07 5.10461e+07 5.01973e+07 3.58432e-10 -28.5004 0.00110772 6.50975e+07 3.46432e+06 6.50975e+07 -0 5.34032e+07
41 2 -7.4 5.55 -9.25 3.56458e+07 5.12377e+07 4.8951e+07 -75.9988 -3.56721e+06 43.2891 4.35514e+07 3.46432e+06 6.50975e+07 -0 5.34032e+07
42 2 -1.85 3.7 -9.25 5.10461e+07 5.10461e+07 5.01973e+07 -3.5252e-10 7.11508e-10 0.00110772 6.50975e+07 3.46432e+06 6.50975e+07 -0 5.34032e+07
43 2 -3.7 5.55 -9.25 5.10461e+07 5.10461e+07 5.01973e+07 3.55755e-10 -0.00110772 28.5004 6.50975e+07 3.46432e+06 6.50975e+07 -0 5.34032e+07
44 2 1.85 3.7 -9.25 5.10461e+07 5.10461e+07 5.01973e+07 -3.57186e-10 4.62481e-09 0.00110772 6.50975e+07 3.46432e+06 6.50975e+07 -0 5.34032e+07
45 2 0 5.55 -9.25 5.10461e+07 5.10461e+07 5.01973e+07 -1.0588e-09 -3.01544e-09 28.5004 6.50975e+07 3.46432e+06 6.50975e+07 8.00448e-10 5.34032e+07
46 2 5.55 3.7 -9.25 5.10461e+07 5.10461e+07 5.01973e+07 -5.15983e-13 28.5004 0.00110772 6.50975e+07 3.46432e+06 6.50975e+07 -0 5.34032e+07
47 2 3.7 5.55 -9.25 5.10461e+07 5.10461e+07 5.01973e+07 -3.55755e-10 0.00110773 28.5004 6.50975e+07 3.46432e+06 6.50975e+07 -0 5.34032e+07
48 2 9.25 3.7 -9.25 5.79365e+07 8.07018e+07 5.79365e+07 -0.103217 6.78728e+06 0.103217 4.55424e+07 3.59357e+06 1.02482e+08 -8.89387e-10 8.33759e+07
49 2 7.4 5.55 -9.25 3.56458e+07 5.12377e+07 4.8951e+07 75.9988 3.56721e+06 43.2891 4.35514e+07 3.46432e+06 6.50975e+07 -0 5.34032e+07
50 2 -9.25 7.4 -9.25 5.52936e+07 4.83809e+07 5.52936e+07 6.92782e+06 -8.13665e+06 6.92782e+06 4.26956e+07 2.88777e+06 6.00258e+07 1.74097e+06 4.98317e+07
51 2 -5.55 7.4 -9.25 5.12377e+07 3.56458e+07 4.8951e+07 -75.9988 -43.2891 3.56721e+06 6.50975e+07 3.46432e+06 4.35514e+07 -4.44693e-11 3.71803e+07
52 2 -7.4 9.25 -9.25 4.83809e+07 5.52936e+07 5.52936e+07 6.92782e+06 -6.92782e+06 8.13665e+06 6.00258e+07 2.88777e+06 4.26956e+07 286135 3.59022e+07
53 2 -1.85 7.4 -9.25 5.12374e+07 3.56459e+07 4.8951e+07 1.49388e-10 2.3124e-09 3.56719e+06 6.50975e+07 3.46432e+06 4.35514e+07 4.44693e-11 3.71803e+07
54 2 -3.7 9.25 -9.25 8.07018e+07 5.79365e+07 5.79365e+07 0.103217 -0.103217 6.78728e+06 1.02482e+08 3.59357e+06 4.55424e+07 -0 3.93388e+07
55 2 1.85 7.4 -9.25 5.12374e+07 3.56459e+07 4.8951e+07 -9.17404e-10 4.09117e-09 3.56719e+06 6.50975e+07 3.46432e+06 4.35514e+07 4.00224e-10 3.71803e+07
56 2 0 9.25 -9.25 8.07018e+07 5.79365e+07 5.79365e+07 1.06726e-09 -1.06724e-09 6.78728e+06 1.02482e+08 3.59357e+06 4.55424e+07 -2.22347e-11 3.93388e+07
57 2 5.55 7.4 -9.25 5.12377e+07 3.56458e+07 4.8951e+07 75.9988 43.2891 3.56721e+06 6.50975e+07 3.46432e+06 4.35514e+07 -0 3.71803e+07
58 2 3.7 9.25 -9.25 8.07018e+07 5.79365e+07 5.79365e+07 -0.103217 0.103217 6.78728e+06 1.02482e+08 3.59357e+06 4.55424e+07 5.11397e-10 3.93388e+07
59 2 9.25 7.4 -9.25 5.52936e+07 4.83809e+07 5.52936e+07 -6.92782e+06 8.13665e+06 6.92782e+06 4.26956e+07 2.88777e+06 6.00258e+07 -1.74097e+06 4.98317e+07
60 2 7.4 9.25 -9.25 4.83809e+07 5.52936e+07 5.52936e+07 -6.92782e+06 6.92782e+06 8.13665e+06 6.00258e+07 2.88777e+06 4.26956e+07 -286135 3.59022e+07
61 2 -9.25 -9.25 -7.4 5.52936e+07 5.52936e+07 4.83809e+07 -8.13665e+06 -6.92782e+06 -6.92782e+06 4.26956e+07 2.67618e+06 4.26956e+07 -1.032e+06 3.56906e+07
62 2 -5.55 -9.25 -7.4 5.12377e+07 4.8951e+07 3.56458e+07 -43.2891 75.9988 -3.56721e+06 6.50975e+07 2.72304e+06 3.1295e+07 1.33408e-10 2.69739e+07
63 2 -7.4 -9.25 -5.55 3.56458e+07 4.8951e+07 5.12377e+07 -3.56721e+06 75.9988 -43.2891 4.35514e+07 2.3353e+06 3.1295e+07 -157189 2.65862e+07
64 2 -1.85 -9.25 -7.4 5.12374e+07 4.8951e+07 3.56459e+07 1.45195e-09 -3.55755e-10 -3.56719e+06 6.50975e+07 2.72304e+06 3.1295e+07 4.44693e-11 2.69739e+07
65 2 -3.7 -9.25 -5.55 5.10461e+07 5.01973e+07 5.10461e+07 -0.00110772 3.25662e-14 -28.5004 6.50975e+07 2.72304e+06 3.27098e+07 -0 2.83249e+07
66 2 1.85 -9.25 -7.4 5.12374e+07 4.8951e+07 3.56459e+07 4.60501e-09 -7.11509e-10 -3.56719e+06 6.50975e+07 2.72304e+06 3.1295e+07 -1.77877e-10 2.69739e+07
67 2 0 -9.25 -5.55 5.10461e+07 5.01973e+07 5.10461e+07 -2.8469e-09 -3.46323e-10 -28.5004 6.50975e+07 2.72304e+06 3.27098e+07 -6.6704e-11 2.83249e+07
68 2 5.55 -9.25 -7.4 5.12377e+07 4.8951e+07 3.56458e+07 43.2891 -75.9988 -3.56721e+06 6.50975e+07 2.72304e+06 3.1295e+07 1.77877e-10 2.69739e+07
69 2 3.7 -9.25 -5.55 5.10461e+07 5.01973e+07 5.10461e+07 0.00110772 -3.34663e-13 -28.5004 6.50975e+07 2.72304e+06 3.27098e+07 -2.66816e-10 2.83249e+07
70 2 9.25 -9.25 -7.4 5.52936e+07 5.52936e+07 4.83809e+07 8.13665e+06 6.92782e+06 -6.92782e+06 4.26956e+07 2.67618e+06 4.26956e+07 1.032e+06 3.56906e+07
71 2 7.4 -9.25 -5.55 3.56458e+07 4.8951e+07 5.12377e+07 3.56721e+06 -75.9988 -43.2891 4.35514e+07 2.3353e+06 3.1295e+07 157189 2.65862e+07
72 2 -9.25 -5.55 -7.4 4.8951e+07 5.12377e+07 3.56458e+07 -43.2891 -3.56721e+06 75.9988 3.1295e+07 2.72304e+06 6.50975e+07 -0 5.26619e+07
73 2 -9.25 -7.4 -5.55 4.8951e+07 3.56458e+07 5.12377e+07 -3.56721e+06 -43.2891 75.9988 3.1295e+07 2.3353e+06 4.35514e+07 -956410 3.60513e+07
74 2 -7.4 -7.4 -7.4 2.43647e+07 2.43647e+07 2.43647e+07 -135336 -135336 -135336 2.87089e+07 2.09588e+06 2.87089e+07 -0 2.3649e+07
75 2 -5.55 -5.55 -7.4 3.12104e+07 3.12104e+07 2.4217e+07 -6.1435e-06 8.60624 8.60624 3.96758e+07 2.09588e+06 3.96758e+07 1.77877e-10 3.16519e+07
76 2 -5.55 -7.4 -5.55 3.12104e+07 2.4217e+07 3.12104e+07 8.60624 -6.1435e-06 8.60624 3.96758e+07 2.09588e+06 2.87089e+07 -0 2.3649e+07
77 2 -7.4 -5.55 -5.55 2.4217e+07 3.12104e+07 3.12104e+07 8.60624 8.60624 -6.14349e-06 2.87089e+07 2.09588e+06 3.96758e+07 -0 3.16519e+07
78 2 -3.7 -7.4 -7.4 3.14195e+07 2.4291e+07 2.4291e+07 -7.60816e-11 -1.58067e-14 -135245 3.96758e+07 2.09588e+06 2.87089e+07 -0 2.3649e+07
79 2 -1.85 -5.55 -7.4 3.12103e+07 3.12104e+07 2.4217e+07 -3.79312e-10 -0 8.60624 3.96758e+07 2.09588e+06 3.96758e+07 -1.77877e-10 3.16519e+07
80 2 -1.85 -7.4 -5.55 3.12103e+07 2.4217e+07 3.12104e+07 -0 -3.79312e-10 8.60624 3.96758e+07 2.09588e+06 2.87089e+07 -0 2.3649e+07
81 2 -3.7 -5.55 -5.55 3.10011e+07 3.10011e+07 3.10011e+07 6.1726e-12 4.26235e-15 -6.14459e-06 3.96758e+07 2.09588e+06 3.96758e+07 -0 3.16519e+07
82 2 0 -7.4 -7.4 3.14195e+07 2.4291e+07 2.4291e+07 6.4681e-10 1.17719e-11 -135245 3.96758e+07 2.09588e+06 2.87089e+07 -0 2.3649e+07
83 2 1.85 -5.55 -7.4 3.12103e+07 3.12104e+07 2.4217e+07 -1.94565e-11 -7.11509e-10 8.60624 3.96758e+07 2.09588e+06 3.96758e+07 -0 3.16519e+07
84 2 1.85 -7.4 -5.55 3.12103e+07 2.4217e+07 3.12104e+07 -3.55755e-10 3.36298e-10 8.60624 3.96758e+07 2.09588e+06 2.87089e+07 -0 2.3649e+07
85 2 0 -5.55 -5.55 3.10011e+07 3.10011e+07 3.10011e+07 -3.32351e-10 -3.43962e-10 -6.14424e-06 3.96758e+07 2.09588e+06 3.96758e+07 -0 3.16519e+07
86 2 3.7 -7.4 -7.4 3.14195e+07 2.4291e+07 2.4291e+07 -1.14636e-09 -1.06729e-09 -135245 3.96758e+07 2.09588e+06 2.87089e+07 -0 2.3649e+07
87 2 5.55 -5.55 -7.4 3.12104e+07 3.12104e+07 2.4217e+07 6.14534e-06 -8.60624 8.60624 3.96758e+07 2.09588e+06 3.96758e+07 2.66816e-10 3.16519e+07
88 2 5.55 -7.4 -5.55 3.12104e+07 2.4217e+07 3.12104e+07 -8.60624 6.14534e-06 8.60624 3.96758e+07 2.09588e+06 2.87089e+07 -0 2.3649e+07
89 2 3.7 -5.55 -5.55 3.10011e+07 3.10011e+07 3.10011e+07 2.59013e-11 2.84054e-14 -6.14424e-06 3.96758e+07 2.09588e+06 3.96758e+07 -0 3.16519e+07
90 2 7.4 -7.4 -7.4 2.43647e+07 2.43647e+07 2.43647e+07 135336 135336 -135336 2.87089e+07 2.09588e+06 2.87089e+07 -0 2.3649e+07
91 2 9.25 -5.55 -7.4 4.8951e+07 5.12377e+07 3.56458e+07 43.2891 3.56721e+06 75.9988 3.1295e+07 2.72304e+06 6.50975e+07 -0 5.26619e+07
92 2 9.25 -7.4 -5.55 4.8951e+07 3.56458e+07 5.12377e+07 3.56721e+06 43.2891 75.9988 3.1295e+07 2.3353e+06 4.35514e+07 956410 3.60513e+07
93 2 7.4 -5.55 -5.55 2.4217e+07 3.12104e+07 3.12104e+07 -8.60624 -8.60624 -6.14353e-06 2.87089e+07 2.09588e+06 3.96758e+07 -2.66816e-10 3.16519e+07
94 2 -9.25 -1.85 -7.4 4.8951e+07 5.12374e+07 3.56459e+07 1.42302e-09 -3.56719e+06 -3.55755e-10 3.1295e+07 2.72304e+06 6.50975e+07 -3.55755e-10 5.26619e+07
95 2 -9.25 -3.7 -5.55 5.01973e+07 5.10461e+07 5.10461e+07 -0.00110772 -28.5004 3.55791e-10 3.27098e+07 2.72304e+06 6.50975e+07 -0 5.26619e+07
96 2 -7.4 -3.7 -7.4 2.4291e+07 3.14195e+07 2.4291e+07 -7.36242e-11 -135245 -0 2.87089e+07 2.09588e+06 3.96758e+07 -0 3.16519e+07
97 2 -5.55 -1.85 -7.4 3.12104e+07 3.12103e+07 2.4217e+07 -3.75381e-10 8.60624 -0 3.96758e+07 2.09588e+06 3.96758e+07 -1.77877e-10 3.16519e+07
98 2 -5.55 -3.7 -5.55 3.10011e+07 3.10011e+07 3.10011e+07 4.59992e-15 -6.14459e-06 4.26235e-15 3.96758e+07 2.09588e+06 3.96758e+07 -0 3.16519e+07
99 2 -7.4 -1.85 -5.55 2.4217e+07 3.12103e+07 3.12104e+07 -0 8.60624 -3.52062e-10 2.87089e+07 2.09588e+06 3.96758e+07 -0 3.16519e+07
100 2 -3.7 -3.7 -7.4 3.12103e+07 3.12103e+07 2.42171e+07 -7.95736e-12 -2.79206e-18 -3.55755e-10 3.96758e+07 2.09588e+06 3.96758e+07 -0 3.16519e+07
101 2 -1.85 -1.85 -7.4 3.12103e+07 3.12103e+07 2.42171e+07 3.65231e-10 3.45514e-10 -0 3.96758e+07 2.09588e+06 3.96758e+07 1.77877e-10 3.16519e+07
102 2 -1.85 -3.7 -5.55 3.10011e+07 3.10011e+07 3.10011e+07 -4.37088e-15 2.40016e-12 2.4064e-12 3.96758e+07 2.09588e+06 3.96758e+07 -0 3.16519e+07
103 2 -3.7 -1.85 -5.55 3.10011e+07 3.10011e+07 3.10011e+07 -0 6.99414e-12 1.58864e-12 3.96758e+07 2.09588e+06 3.96758e+07 -0 3.16519e+07
104 2 0 -3.7 -7.4 3.12103e+07 3.12103e+07 2.42171e+07 6.56306e-12 7.11106e-10 -0 3.96758e+07 2.09588e+06 3.96758e+07 -0 3.16519e+07
105 2 1.85 -1.85 -7.4 3.12103e+07 3.12103e+07 2.42171e+07 -6.92382e-10 -7.16494e-10 -3.55755e-10 3.96758e+07 2.09588e+06 3.96758e+07 -0 3.16519e+07
106 2 1.85 -3.7 -5.55 3.10011e+07 3.10011e+07 3.10011e+07 1.42499e-16 3.46456e-10 -1.73346e-11 3.96758e+07 2.09588e+06 3.96758e+07 -0 3.16519e+07
107 2 0 -1.85 -5.55 3.10011e+07 3.10011e+07 3.10011e+07 7.17307e-10 -3.53495e-10 2.73213e-16 3.96758e+07 2.09588e+06 3.96758e+07 -0 3.16519e+07
108 2 3.7 -3.7 -7.4 3.12103e+07 3.12103e+07 2.42171e+07 -1.79808e-12 -7.11509e-10 3.55755e-10 3.96758e+07 2.09588e+06 3.96758e+07 -0 3.16519e+07
109 2 5.55 -1.85 -7.4 3.12104e+07 3.12103e+07 2.4217e+07 -3.98384e-11 -8.60624 -7.11509e-10 3.96758e+07 2.09588e+06 3.96758e+07 -2.66816e-10 3.16519e+07
110 2 5.55 -3.7 -5.55 3.10011e+07 3.10011e+07 3.10011e+07 -1.18978e-15 6.1439e-06 -3.55588e-10 3.96758e+07 2.09588e+06 3.96758e+07 -0 3.16519e+07
111 2 3.7 -1.85 -5.55 3.10011e+07 3.10011e+07 3.10011e+07 8.11883e-13 4.40225e-12 -1.879e-16 3.96758e+07 2.09588e+06 3.96758e+07 -0 3.16519e+07
112 2 7.4 -3.7 -7.4 2.4291e+07 3.14195e+07 2.4291e+07 8.01354e-11 135245 -0 2.87089e+07 2.09588e+06 3.96758e+07 -0 3.16519e+07
113 2 9.25 -1.85 -7.4 4.8951e+07 5.12374e+07 3.56459e+07 -2.13453e-09 3.56719e+06 -3.55755e-10 3.1295e+07 2.72304e+06 6.50975e+07 3.55755e-10 5.26619e+07
114 2 9.25 -3.7 -5.55 5.01973e+07 5.10461e+07 5.10461e+07 0.00110772 28.5004 3.55784e-10 3.27098e+07 2.72304e+06 6.50975e+07 -0 5.26619e+07
115 2 7.4 -1.85 -5.55 2.4217e+07 3.12103e+07 3.12104e+07 3.14512e-12 -8.60624 -3.55755e-10 2.87089e+07 2.09588e+06 3.96758e+07 2.66816e-10 3.16519e+07
116 2 -9.25 1.85 -7.4 4.8951e+07 5.12374e+07 3.56459e+07 4.26906e-09 -3.56719e+06 -3.55755e-10 3.1295e+07 2.72304e+06 6.50975e+07 1.77877e-10 5.26619e+07
117 2 -9.25 0 -5.55 5.01973e+07 5.10461e+07 5.10461e+07 -2.84604e-09 -28.5004 -6.97737e-10 3.27098e+07 2.72304e+06 6.50975e+07 -1.77877e-10 5.26619e+07
118 2 -7.4 0 -7.4 2.4291e+07 3.14195e+07 2.4291e+07 6.40879e-10 -135245 5.43736e-12 2.87089e+07 2.09588e+06 3.96758e+07 -0 3.16519e+07
119 2 -5.55 1.85 -7.4 3.12104e+07 3.12103e+07 2.4217e+07 -1.59315e-11 8.60624 -7.11509e-10 3.96758e+07 2.09588e+06 3.96758e+07 -0 3.16519e+07
120 2 -5.55 0 -5.55 3.10011e+07 3.10011e+07 3.10011e+07 -3.46893e-10 -6.14424e-06 -3.50297e-10 3.96758e+07 2.09588e+06 3.96758e+07 -0 3.16519e+07
121 2 -7.4 1.85 -5.55 2.4217e+07 3.12103e+07 3.12104e+07 -7.11509e-10 8.60624 3.5612e-10 2.87089e+07 2.09588e+06 3.96758e+07 -0 3.16519e+07
122 2 -3.7 0 -7.4 3.12103e+07 3.12103e+07 2.42171e+07 6.32373e-12 -0 7.17834e-10 3.96758e+07 2.09588e+06 3.96758e+07 -0 3.16519e+07
123 2 -1.85 1.85 -7.4 3.12103e+07 3.12103e+07 2.42171e+07 -6.99725e-10 -9.49422e-13 -7.11509e-10 3.96758e+07 2.09588e+06 3.96758e+07 -0 3.16519e+07
124 2 -1.85 0 -5.55 3.10011e+07 3.10011e+07 3.10011e+07 7.21318e-10 2.73213e-16 -3.49485e-10 3.96758e+07 2.09588e+06 3.96758e+07 -0 3.16519e+07
125 2 -3.7 1.85 -5.55 3.10011e+07 3.10011e+07 3.10011e+07 -0 -3.81395e-12 6.93359e-10 3.96758e+07 2.09588e+06 3.96758e+07 -0 3.16519e+07
126 2 0 0 -7.4 3.12103e+07 3.12103e+07 2.42171e+07 -6.99746e-10 3.61648e-10 2.4762e-15 3.96758e+07 2.09588e+06 3.96758e+07 -0 3.16519e+07
127 2 1.85 1.85 -7.4 3.12103e+07 3.12103e+07 2.42171e+07 -7.09767e-10 -7.1201e-10 -7.11509e-10 3.96758e+07 2.09588e+06 3.96758e+07 -0 3.16519e+07
128 2 1.85 0 -5.55 3.10011e+07 3.10011e+07 3.10011e+07 4.07143e-12 7.11509e-10 -7.16741e-10 3.96758e+07 2.09588e+06 3.96758e+07 -0 3.16519e+07
129 2 0 1.85 -5.55 3.10011e+07 3.10011e+07 3.10011e+07 3.56252e-10 -7.14546e-10 7.11509e-10 3.96758e+07 2.09588e+06 3.96758e+07 -0 3.16519e+07
130 2 3.7 0 -7.4 3.12103e+07 3.12103e+07 2.42171e+07 9.23027e-12 4.26565e-17 3.55757e-10 3.96758e+07 2.09588e+06 3.96758e+07 -0 3.16519e+07
131 2 5.55 1.85 -7.4 3.12104e+07 3.12103e+07 2.4217e+07 7.08041e-10 -8.60624 3.55755e-10 3.96758e+07 2.09588e+06 3.96758e+07 -4.44693e-10 3.16519e+07
132 2 5.55 0 -5.55 3.10011e+07 3.10011e+07 3.10011e+07 -3.57895e-10 6.14388e-06 1.48352e-11 3.96758e+07 2.09588e+06 3.96758e+07 4.44693e-10 3.16519e+07
133 2 3.7 1.85 -5.55 3.10011e+07 3.10011e+07 3.10011e+07 3.55349e-10 4.8096e-12 3.55755e-10 3.96758e+07 2.09588e+06 3.96758e+07 -0 3.16519e+07
134 2 7.4 0 -7.4 2.4291e+07 3.14195e+07 2.4291e+07 -2.81766e-10 135245 3.55757e-10 2.87089e+07 2.09588e+06 3.96758e+07 -4.44693e-10 3.16519e+07
135 2 9.25 1.85 -7.4 4.8951e+07 5.12374e+07 3.56459e+07 -5.69207e-09 3.56719e+06 -3.55755e-10 3.1295e+07 2.72304e+06 6.50975e+07 -1.77877e-10 5.26619e+07
136 2 9.25 0 -5.55 5.01973e+07 5.10461e+07 5.10461e+07 3.55755e-09 28.5004 -1.06727e-09 3.27098e+07 2.72304e+06 6.50975e+07 1.77877e-10 5.26619e+07
137 2 7.4 1.85 -5.55 2.4217e+07 3.12103e+07 3.12104e+07 -1.24756e-11 -8.60624 1.02587e-16 2.87089e+07 2.09588e+06 3.96758e+07 4.44693e-10 3.16519e+07
138 2 -9.25 5.55 -7.4 4.8951e+07 5.12377e+07 3.56458e+07 43.2891 -3.56721e+06 -75.9988 3.1295e+07 2.72304e+06 6.50975e+07 3.55755e-10 5.26619e+07
139 2 -9.25 3.7 -5.55 5.01973e+07 5.10461e+07 5.10461e+07 0.00110772 -28.5004 -3.55284e-10 3.27098e+07 2.72304e+06 6.50975e+07 7.11509e-10 5.26619e+07
140 2 -7.4 3.7 -7.4 2.4291e+07 3.14195e+07 2.4291e+07 -1.12876e-09 -135245 -7.1235e-10 2.87089e+07 2.09588e+06 3.96758e+07 -0 3.16519e+07
141 2 -5.55 5.55 -7.4 3.12104e+07 3.12104e+07 2.4217e+07 6.14534e-06 8.60624 -8.60624 3.96758e+07 2.09588e+06 3.96758e+07 1.77877e-10 3.16519e+07
142 2 -5.55 3.7 -5.55 3.10011e+07 3.10011e+07 3.10011e+07 2.54975e-11 -6.14424e-06 2.88665e-14 3.96758e+07 2.09588e+06 3.96758e+07 -0 3.16519e+07
143 2 -7.4 5.55 -5.55 2.4217e+07 3.12104e+07 3.12104e+07 -8.60624 8.60624 6.14532e-06 2.87089e+07 2.09588e+06 3.96758e+07 -0 3.16519e+07
144 2 -3.7 3.7 -7.4 3.12103e+07 3.12103e+07 2.42171e+07 -2.75928e-14 -0 -7.11538e-10 3.96758e+07 2.09588e+06 3.96758e+07 -0 3.16519e+07
145 2 -1.85 5.55 -7.4 3.12103e+07 3.12104e+07 2.4217e+07 -2.45693e-11 -7.25141e-10 -8.60624 3.96758e+07 2.09588e+06 3.96758e+07 -1.77877e-10 3.16519e+07
146 2 -1.85 3.7 -5.55 3.10011e+07 3.10011e+07 3.10011e+07 3.59336e-10 4.26565e-17 1.29358e-11 3.96758e+07 2.09588e+06 3.96758e+07 -0 3.16519e+07
147 2 -3.7 5.55 -5.55 3.10011e+07 3.10011e+07 3.10011e+07 3.55755e-10 -2.1898e-12 6.14388e-06 3.96758e+07 2.09588e+06 3.96758e+07 -0 3.16519e+07
148 2 0 3.7 -7.4 3.12103e+07 3.12103e+07 2.42171e+07 7.45658e-12 3.63648e-10 -3.55755e-10 3.96758e+07 2.09588e+06 3.96758e+07 -0 3.16519e+07
149 2 1.85 5.55 -7.4 3.12103e+07 3.12104e+07 2.4217e+07 1.06293e-09 3.47073e-10 -8.60624 3.96758e+07 2.09588e+06 3.96758e+07 -4.44693e-10 3.16519e+07
150 2 1.85 3.7 -5.55 3.10011e+07 3.10011e+07 3.10011e+07 3.53041e-10 3.55755e-10 2.50347e-12 3.96758e+07 2.09588e+06 3.96758e+07 -0 3.16519e+07
151 2 0 5.55 -5.55 3.10011e+07 3.10011e+07 3.10011e+07 -3.4228e-10 2.74905e-11 6.14388e-06 3.96758e+07 2.09588e+06 3.96758e+07 4.44693e-10 3.16519e+07
152 2 3.7 3.7 -7.4 3.12103e+07 3.12103e+07 2.42171e+07 3.52726e-10 -4.26565e-17 -1.2797e-16 3.96758e+07 2.09588e+06 3.96758e+07 -0 3.16519e+07
153 2 5.55 5.55 -7.4 3.12104e+07 3.12104e+07 2.4217e+07 -6.1446e-06 -8.60624 -8.60624 3.96758e+07 2.09588e+06 3.96758e+07 4.44693e-10 3.16519e+07
154 2 5.55 3.7 -5.55 3.10011e+07 3.10011e+07 3.10011e+07 -1.19669e-13 6.14424e-06 3.70714e-10 3.96758e+07 2.09588e+06 3.96758e+07 -0 3.16519e+07
155 2 3.7 5.55 -5.55 3.10011e+07 3.10011e+07 3.10011e+07 4.05954e-13 3.46587e-10 6.14424e-06 3.96758e+07 2.09588e+06 3.96758e+07 -0 3.16519e+07
156 2 7.4 3.7 -7.4 2.4291e+07 3.14195e+07 2.4291e+07 7.68197e-10 135245 -1.06726e-09 2.87089e+07 2.09588e+06 3.96758e+07 -0 3.16519e+07
157 2 9.25 5.55 -7.4 4.8951e+07 5.12377e+07 3.56458e+07 -43.2891 3.56721e+06 -75.9988 3.1295e+07 2.72304e+06 6.50975e+07 -8.89387e-10 5.26619e+07
158 2 9.25 3.7 -5.55 5.01973e+07 5.10461e+07 5.10461e+07 -0.00110772 28.5004 -3.55753e-10 3.27098e+07 2.72304e+06 6.50975e+07 -7.11509e-10 5.26619e+07
159 2 7.4 5.55 -5.55 2.4217e+07 3.12104e+07 3.12104e+07 8.60624 -8.60624 6.14495e-06 2.87089e+07 2.09588e+06 3.96758e+07 -0 3.16519e+07
160 2 -9.25 9.25 -7.4 5.52936e+07 5.52936e+07 4.83809e+07 8.13665e+06 -6.92782e+06 6.92782e+06 4.26956e+07 2.67618e+06 4.26956e+07 1.032e+06 3.56906e+07
161 2 -9.25 7.4 -5.55 4.8951e+07 3.56458e+07 5.12377e+07 3.56721e+06 -43.2891 -75.9988 3.1295e+07 2.3353e+06 4.35514e+07 956410 3.60513e+07
162 2 -7.4 7.4 -7.4 2.43647e+07 2.43647e+07 2.43647e+07 135336 -135336 135336 2.87089e+07 2.09588e+06 2.87089e+07 -0 2.3649e+07
163 2 -5.55 9.25 -7.4 5.12377e+07 4.8951e+07 3.56458e+07 43.2891 75.9988 3.56721e+06 6.50975e+07 2.72304e+06 3.1295e+07 -1.33408e-10 2.69739e+07
164 2 -5.55 7.4 -5.55 3.12104e+07 2.4217e+07 3.12104e+07 -8.60624 -6.14353e-06 -8.60624 3.96758e+07 2.09588e+06 2.87089e+07 -1.77877e-10 2.3649e+07
165 2 -7.4 9.25 -5.55 3.56458e+07 4.8951e+07 5.12377e+07 3.56721e+06 75.9988 43.2891 4.35514e+07 2.3353e+06 3.1295e+07 157189 2.65862e+07
166 2 -3.7 7.4 -7.4 3.14195e+07 2.4291e+07 2.4291e+07 7.89235e-11 -0 135245 3.96758e+07 2.09588e+06 2.87089e+07 -0 2.3649e+07
167 2 -1.85 9.25 -7.4 5.12374e+07 4.8951e+07 3.56459e+07 -2.13453e-09 -1.06726e-09 3.56719e+06 6.50975e+07 2.72304e+06 3.1295e+07 -4.44693e-11 2.69739e+07
168 2 -1.85 7.4 -5.55 3.12103e+07 2.4217e+07 3.12104e+07 3.53961e-10 -3.55755e-10 -8.60624 3.96758e+07 2.09588e+06 2.87089e+07 1.77877e-10 2.3649e+07
169 2 -3.7 9.25 -5.55 5.10461e+07 5.01973e+07 5.10461e+07 0.00110772 -2.84375e-15 28.5004 6.50975e+07 2.72304e+06 3.27098e+07 -0 2.83249e+07
170 2 0 7.4 -7.4 3.14195e+07 2.4291e+07 2.4291e+07 -2.77191e-10 7.09772e-10 135245 3.96758e+07 2.09588e+06 2.87089e+07 -4.44693e-10 2.3649e+07
171 2 1.85 9.25 -7.4 5.12374e+07 4.8951e+07 3.56459e+07 -4.62481e-09 -0 3.56719e+06 6.50975e+07 2.72304e+06 3.1295e+07 1.77877e-10 2.69739e+07
172 2 1.85 7.4 -5.55 3.12103e+07 2.4217e+07 3.12104e+07 -1.86111e-11 -2.73213e-16 -8.60624 3.96758e+07 2.09588e+06 2.87089e+07 4.44693e-10 2.3649e+07
173 2 0 9.25 -5.55 5.10461e+07 5.01973e+07 5.10461e+07 3.55755e-09 -3.55754e-10 28.5004 6.50975e+07 2.72304e+06 3.27098e+07 4.44693e-11 2.83249e+07
174 2 3.7 7.4 -7.4 3.14195e+07 2.4291e+07 2.4291e+07 4.85007e-11 -7.11187e-10 135245 3.96758e+07 2.09588e+06 2.87089e+07 -0 2.3649e+07
175 2 5.55 9.25 -7.4 5.12377e+07 4.8951e+07 3.56458e+07 -43.2891 -75.9988 3.56721e+06 6.50975e+07 2.72304e+06 3.1295e+07 -6.22571e-10 2.69739e+07
176 2 5.55 7.4 -5.55 3.12104e+07 2.4217e+07 3.12104e+07 8.60624 6.14531e-06 -8.60624 3.96758e+07 2.09588e+06 2.87089e+07 -0 2.3649e+07
177 2 3.7 9.25 -5.55 5.10461e+07 5.01973e+07 5.10461e+07 -0.00110772 3.03823e-16 28.5004 6.50975e+07 2.72304e+06 3.27098e+07 2.22347e-10 2.83249e+07
178 2 7.4 7.4 -7.4 2.43647e+07 2.43647e+07 2.43647e+07 -135336 135336 135336 2.87089e+07 2.09588e+06 2.87089e+07 -4.44693e-10 2.3649e+07
179 2 9.25 9.25 -7.4 5.52936e+07 5.52936e+07 4.83809e+07 -8.13665e+06 6.92782e+06 6.92782e+06 4.26956e+07 2.67618e+06 4.26956e+07 -1.032e+06 3.56906e+07
180 2 9.25 7.4 -5.55 4.8951e+07 3.56458e+07 5.12377e+07 -3.56721e+06 43.2891 -75.9988 3.1295e+07 2.3353e+06 4.35514e+07 -956410 3.60513e+07
181 2 7.4 9.25 -5.55 3.56458e+07 4.8951e+07 5.12377e+07 -3.56721e+06 -75.9988 43.2891 4.35514e+07 2.3353e+06 3.1295e+07 -157189 2.65862e+07
182 2 -9.25 -9.25 -3.7 5.79365e+07 5.79365e+07 8.07018e+07 -6.78728e+06 -0.103217 -0.103217 4.55424e+07 2.72846e+06 4.55424e+07 -979721 3.84737e+07
183 2 -5.55 -9.25 -3.7 5.10461e+07 5.01973e+07 5.10461e+07 -28.5004 -1.29922e-11 -0.00110772 6.50975e+07 2.72304e+06 3.27098e+07 1.33408e-10 2.83249e+07
184 2 -7.4 -9.25 -1.85 3.56459e+07 4.8951e+07 5.12374e+07 -3.56719e+06 -7.11509e-10 7.11509e-10 4.35514e+07 2.3353e+06 3.1295e+07 -157189 2.65862e+07
185 2 -1.85 -9.25 -3.7 5.10461e+07 5.01973e+07 5.10461e+07 7.34808e-10 -2.14031e-14 -0.00110772 6.50975e+07 2.72304e+06 3.27098e+07 4.44693e-11 2.83249e+07
186 2 -3.7 -9.25 -1.85 5.10461e+07 5.01973e+07 5.10461e+07 -0.00110772 -4.34643e-17 -0 6.50975e+07 2.72304e+06 3.27098e+07 -0 2.83249e+07
187 2 1.85 -9.25 -3.7 5.10461e+07 5.01973e+07 5.10461e+07 4.56629e-09 4.81547e-16 -0.00110772 6.50975e+07 2.72304e+06 3.27098e+07 1.33408e-10 2.83249e+07
188 2 0 -9.25 -1.85 5.10461e+07 5.01973e+07 5.10461e+07 -2.83388e-09 3.57632e-10 -0 6.50975e+07 2.72304e+06 3.27098e+07 -4.44693e-11 2.83249e+07
189 2 5.55 -9.25 -3.7 5.10461e+07 5.01973e+07 5.10461e+07 28.5004 -5.85248e-15 -0.00110772 6.50975e+07 2.72304e+06 3.27098e+07 -1.33408e-10 2.83249e+07
190 2 3.7 -9.25 -1.85 5.10461e+07 5.01973e+07 5.10461e+07 0.00110772 -3.83863e-15 7.11509e-10 6.50975e+07 2.72304e+06 3.27098e+07 -2.22347e-10 2.83249e+07
191 2 9.25 -9.25 -3.7 5.79365e+07 5.79365e+07 8.07018e+07 6.78728e+06 0.103217 -0.103217 4.55424e+07 2.72846e+06 4.55424e+07 979721 3.84737e+07
192 2 7.4 -9.25 -1.85 3.56459e+07 4.8951e+07 5.12374e+07 3.56719e+06 5.1574e-10 7.11509e-10 4.35514e+07 2.3353e+06 3.1295e+07 157189 2.65862e+07
193 2 -9.25 -5.55 -3.7 5.01973e+07 5.10461e+07 5.10461e+07 -28.5004 -0.00110772 -3.55732e-10 3.27098e+07 2.72304e+06 6.50975e+07 -1.77877e-10 5.26619e+07
194 2 -9.25 -7.4 -1.85 4.8951e+07 3.56459e+07 5.12374e+07 -3.56719e+06 1.42302e-09 -3.55755e-10 3.1295e+07 2.3353e+06 4.35514e+07 -956410 3.60513e+07
195 2 -7.4 -7.4 -3.7 2.4291e+07 2.4291e+07 3.14195e+07 -135245 2.79689e-10 3.55755e-10 2.87089e+07 2.09588e+06 2.87089e+07 -0 2.3649e+07
196 2 -5.55 -5.55 -3.7 3.10011e+07 3.10011e+07 3.10011e+07 -6.14457e-06 4.59992e-15 3.86559e-15 3.96758e+07 2.09588e+06 3.96758e+07 1.77877e-10 3.16519e+07
197 2 -5.55 -7.4 -1.85 3.12104e+07 2.4217e+07 3.12103e+07 8.60624 -1.05484e-09 -0 3.96758e+07 2.09588e+06 2.87089e+07 -0 2.3649e+07
198 2 -7.4 -5.55 -1.85 2.4217e+07 3.12104e+07 3.12103e+07 8.60624 -0 -1.05897e-09 2.87089e+07 2.09588e+06 3.96758e+07 -0 3.16519e+07
199 2 -3.7 -7.4 -3.7 3.12103e+07 2.42171e+07 3.12103e+07 -4.05783e-13 7.31534e-16 4.26524e-17 3.96758e+07 2.09588e+06 2.87089e+07 -0 2.3649e+07
200 2 -1.85 -5.55 -3.7 3.10011e+07 3.10011e+07 3.10011e+07 -1.87628e-11 -4.37088e-15 -9.92707e-12 3.96758e+07 2.09588e+06 3.96758e+07 -1.77877e-10 3.16519e+07
201 2 -1.85 -7.4 -1.85 3.12103e+07 2.42171e+07 3.12103e+07 -7.21979e-12 3.45514e-10 -0 3.96758e+07 2.09588e+06 2.87089e+07 -0 2.3649e+07
202 2 -3.7 -5.55 -1.85 3.10011e+07 3.10011e+07 3.10011e+07 -1.47818e-11 -0 -3.69148e-10 3.96758e+07 2.09588e+06 3.96758e+07 -0 3.16519e+07
203 2 0 -7.4 -3.7 3.12103e+07 2.42171e+07 3.12103e+07 7.10699e-10 3.55349e-10 4.03108e-17 3.96758e+07 2.09588e+06 2.87089e+07 -0 2.3649e+07
204 2 1.85 -5.55 -3.7 3.10011e+07 3.10011e+07 3.10011e+07 3.3467e-10 1.42499e-16 -1.74828e-11 3.96758e+07 2.09588e+06 3.96758e+07 -0 3.16519e+07
205 2 1.85 -7.4 -1.85 3.12103e+07 2.42171e+07 3.12103e+07 -7.22194e-10 -1.07225e-09 -3.55755e-10 3.96758e+07 2.09588e+06 2.87089e+07 -0 2.3649e+07