ITEM: TIMESTEP
0
ITEM: NUMBER OF ATOMS
3
ITEM: BOX BOUNDS xy xz yz pp pp pp
0.0000000000000000e+00 5.0000000000000000e+01 0.0000000000000000e+00
0.0000000000000000e+00 5.0000000000000000e+01 0.0000000000000000e+00
0.0000000000000000e+00 5.0000000000000000e+01 0.0000000000000000e+00
ITEM: ATOMS id type x y z c_1[1] c_1[2] c_1[3] c_1[4] c_1[5] c_1[6] c_1[7] c_1[8] c_1[13] c_1[15] c_1[22]
1 2 0.378614 0.321535 0 -3.06506e+08 -5.22851e+08 -0 -9.25981e+07 -0 -0 1.73598e+09 -9.3797e+08 -6.66508e+08 -1.35614e+09 -1.77111e+09
2 2 0 0 0 -7.95099e+08 -1.86481e+08 -0 -2.19585e+08 -0 -0 -7.07234e+08 3.4521e+09 -9.2398e+08 -1.13195e+09 -1.51937e+09
3 2 0.5 0 0 -5.84473e+08 -3.3637e+08 -0 1.26987e+08 -0 -0 -2.51497e+09 4.55934e+09 2.57472e+08 -2.24188e+08 -2.51735e+08
ITEM: TIMESTEP
1
ITEM: NUMBER OF ATOMS
3
ITEM: BOX BOUNDS xy xz yz pp pp pp
0.0000000000000000e+00 5.0500000000000000e+01 5.0000000000000000e-01
0.0000000000000000e+00 5.0000000000000000e+01 0.0000000000000000e+00
0.0000000000000000e+00 5.0000000000000000e+01 0.0000000000000000e+00
ITEM: ATOMS id type x y z c_1[1] c_1[2] c_1[3] c_1[4] c_1[5] c_1[6] c_1[7] c_1[8] c_1[13] c_1[15] c_1[22]
1 2 0.381829 0.321535 0 -3.06506e+08 -5.22851e+08 -0 -9.25981e+07 -0 -0 1.73598e+09 -9.3797e+08 -6.66508e+08 -1.35614e+09 -1.77111e+09
2 2 0 0 0 -7.95099e+08 -1.86481e+08 -0 -2.19585e+08 -0 -0 -7.07234e+08 3.4521e+09 -9.2398e+08 -1.13195e+09 -1.51937e+09
3 2 0.5 0 0 -5.84473e+08 -3.3637e+08 -0 1.26987e+08 -0 -0 -2.51497e+09 4.55934e+09 2.57472e+08 -2.24188e+08 -2.51735e+08
ITEM: TIMESTEP
2
ITEM: NUMBER OF ATOMS
3
ITEM: BOX BOUNDS xy xz yz pp pp pp
0.0000000000000000e+00 5.1000000000000000e+01 1.0000000000000000e+00
0.0000000000000000e+00 5.0000000000000000e+01 0.0000000000000000e+00
0.0000000000000000e+00 5.0000000000000000e+01 0.0000000000000000e+00
ITEM: ATOMS id type x y z c_1[1] c_1[2] c_1[3] c_1[4] c_1[5] c_1[6] c_1[7] c_1[8] c_1[13] c_1[15] c_1[22]
1 2 0.385045 0.321535 0 -3.26583e+08 -5.37748e+08 -0 -1.1206e+08 -0 -0 2.0777e+09 -1.105e+09 -7.78164e+08 -1.5732e+09 -2.06267e+09
2 2 0 0 0 -7.84567e+08 -1.99154e+08 -0 -2.365e+08 -0 -0 -1.90889e+08 2.88559e+09 -1.04024e+09 -1.35244e+09 -1.80521e+09
3 2 0.5 0 0 -5.49453e+08 -3.38594e+08 -0 1.2444e+08 -0 -0 -2.33814e+09 4.15285e+09 2.62077e+08 -2.20759e+08 -2.57461e+08
ITEM: TIMESTEP
3
ITEM: NUMBER OF ATOMS
3
ITEM: BOX BOUNDS xy xz yz pp pp pp
0.0000000000000000e+00 5.1500000000000000e+01 1.5000000000000000e+00
0.0000000000000000e+00 5.0000000000000000e+01 0.0000000000000000e+00
0.0000000000000000e+00 5.0000000000000000e+01 0.0000000000000000e+00
ITEM: ATOMS id type x y z c_1[1] c_1[2] c_1[3] c_1[4] c_1[5] c_1[6] c_1[7] c_1[8] c_1[13] c_1[15] c_1[22]
1 2 0.38826 0.321535 0 -3.50435e+08 -5.54773e+08 -0 -1.34423e+08 -0 -0 2.41498e+09 -1.23771e+09 -8.64541e+08 -1.76925e+09 -2.33578e+09
2 2 0 0 0 -7.79143e+08 -2.13992e+08 -0 -2.5626e+08 -0 -0 3.68371e+08 2.30492e+09 -1.13119e+09 -1.55208e+09 -2.07264e+09
3 2 0.5 0 0 -5.15826e+08 -3.40781e+08 -0 1.21836e+08 -0 -0 -2.11387e+09 3.69791e+09 2.66646e+08 -2.17168e+08 -2.63139e+08
ITEM: TIMESTEP
4
ITEM: NUMBER OF ATOMS
3
ITEM: BOX BOUNDS xy xz yz pp pp pp
0.0000000000000000e+00 5.2000000000000000e+01 2.0000000000000000e+00
0.0000000000000000e+00 5.0000000000000000e+01 0.0000000000000000e+00
0.0000000000000000e+00 5.0000000000000000e+01 0.0000000000000000e+00
ITEM: ATOMS id type x y z c_1[1] c_1[2] c_1[3] c_1[4] c_1[5] c_1[6] c_1[7] c_1[8] c_1[13] c_1[15] c_1[22]
1 2 0.391475 0.321535 0 -3.77883e+08 -5.73687e+08 -0 -1.59467e+08 -0 -0 2.74165e+09 -1.33173e+09 -9.23728e+08 -1.939e+09 -2.58319e+09
2 2 0 0 0 -7.79367e+08 -2.30756e+08 -0 -2.78643e+08 -0 -0 9.67691e+08 1.71715e+09 -1.19491e+09 -1.72558e+09 -2.31443e+09
3 2 0.5 0 0 -4.84316e+08 -3.42931e+08 -0 1.19176e+08 -0 -0 -1.83888e+09 3.19721e+09 2.71185e+08 -2.13418e+08 -2.68764e+08
ITEM: TIMESTEP
5
ITEM: NUMBER OF ATOMS
3
ITEM: BOX BOUNDS xy xz yz pp pp pp
0.0000000000000000e+00 5.2500000000000000e+01 2.5000000000000000e+00
0.0000000000000000e+00 5.0000000000000000e+01 0.0000000000000000e+00
0.0000000000000000e+00 5.0000000000000000e+01 0.0000000000000000e+00
ITEM: ATOMS id type x y z c_1[1] c_1[2] c_1[3] c_1[4] c_1[5] c_1[6] c_1[7] c_1[8] c_1[13] c_1[15] c_1[22]
1 2 0.394691 0.321535 0 -4.08654e+08 -5.94203e+08 -0 -1.86902e+08 -0 -0 3.05266e+09 -1.38452e+09 -9.55142e+08 -2.07848e+09 -2.79901e+09
2 2 0 0 0 -7.85762e+08 -2.49162e+08 -0 -3.0336e+08 -0 -0 1.60307e+09 1.13115e+09 -1.23082e+09 -1.86898e+09 -2.52469e+09
3 2 0.5 0 0 -4.55722e+08 -3.45041e+08 -0 1.16458e+08 -0 -0 -1.5121e+09 2.65709e+09 2.75677e+08 -2.09505e+08 -2.74328e+08
ITEM: TIMESTEP
6
ITEM: NUMBER OF ATOMS
3
ITEM: BOX BOUNDS xy xz yz pp pp pp
0.0000000000000000e+00 5.3000000000000000e+01 3.0000000000000000e+00
0.0000000000000000e+00 5.0000000000000000e+01 0.0000000000000000e+00
0.0000000000000000e+00 5.0000000000000000e+01 0.0000000000000000e+00
ITEM: ATOMS id type x y z c_1[1] c_1[2] c_1[3] c_1[4] c_1[5] c_1[6] c_1[7] c_1[8] c_1[13] c_1[15] c_1[22]
1 2 0.397906 0.321535 0 -4.42398e+08 -6.15998e+08 -0 -2.16381e+08 -0 -0 3.34394e+09 -1.39515e+09 -9.59272e+08 -2.18496e+09 -2.97863e+09
2 2 0 0 0 -7.98806e+08 -2.68888e+08 -0 -3.30066e+08 -0 -0 2.26737e+09 5.59546e+08 -1.23939e+09 -1.97953e+09 -2.69881e+09
3 2 0.5 0 0 -4.30876e+08 -3.47109e+08 -0 1.13685e+08 -0 -0 -1.13661e+09 2.08926e+09 2.80116e+08 -2.05429e+08 -2.79827e+08
ITEM: TIMESTEP
7
ITEM: NUMBER OF ATOMS
3
ITEM: BOX BOUNDS xy xz yz pp pp pp
0.0000000000000000e+00 5.3500000000000000e+01 3.5000000000000000e+00
0.0000000000000000e+00 5.0000000000000000e+01 0.0000000000000000e+00
0.0000000000000000e+00 5.0000000000000000e+01 0.0000000000000000e+00
ITEM: ATOMS id type x y z c_1[1] c_1[2] c_1[3] c_1[4] c_1[5] c_1[6] c_1[7] c_1[8] c_1[13] c_1[15] c_1[22]
1 2 0.401121 0.321535 0 -4.78696e+08 -6.38726e+08 -0 -2.47517e+08 -0 -0 3.61235e+09 -1.36409e+09 -9.37462e+08 -2.25674e+09 -3.11863e+09
2 2 0 0 0 -8.1887e+08 -2.89591e+08 -0 -3.58375e+08 -0 -0 2.94727e+09 2.14756e+07 -1.22196e+09 -2.05555e+09 -2.83338e+09
3 2 0.5 0 0 -4.10573e+08 -3.49135e+08 -0 1.10857e+08 -0 -0 -7.226e+08 1.51333e+09 2.84498e+08 -2.01191e+08 -2.85252e+08
ITEM: TIMESTEP
8
ITEM: NUMBER OF ATOMS
3
ITEM: BOX BOUNDS xy xz yz pp pp pp
0.0000000000000000e+00 5.4000000000000000e+01 4.0000000000000000e+00
0.0000000000000000e+00 5.0000000000000000e+01 0.0000000000000000e+00
0.0000000000000000e+00 5.0000000000000000e+01 0.0000000000000000e+00
ITEM: ATOMS id type x y z c_1[1] c_1[2] c_1[3] c_1[4] c_1[5] c_1[6] c_1[7] c_1[8] c_1[13] c_1[15] c_1[22]
1 2 0.404337 0.321535 0 -5.17079e+08 -6.62027e+08 -0 -2.79893e+08 -0 -0 3.85555e+09 -1.29302e+09 -8.91732e+08 -2.2931e+09 -3.21671e+09
2 2 0 0 0 -8.461e+08 -3.10911e+08 -0 -3.87869e+08 -0 -0 3.61821e+09 -4.53526e+08 -1.18055e+09 -2.09631e+09 -2.92611e+09
3 2 0.5 0 0 -3.9543e+08 -3.51116e+08 -0 1.07975e+08 -0 -0 -2.92312e+08 9.60526e+08 2.88819e+08 -1.96793e+08 -2.90598e+08
ITEM: TIMESTEP
9
ITEM: NUMBER OF ATOMS
3
ITEM: BOX BOUNDS xy xz yz pp pp pp
0.0000000000000000e+00 5.4500000000000000e+01 4.5000000000000000e+00
0.0000000000000000e+00 5.0000000000000000e+01 0.0000000000000000e+00
0.0000000000000000e+00 5.0000000000000000e+01 0.0000000000000000e+00
ITEM: ATOMS id type x y z c_1[1] c_1[2] c_1[3] c_1[4] c_1[5] c_1[6] c_1[7] c_1[8] c_1[13] c_1[15] c_1[22]
1 2 0.407552 0.321535 0 -5.57036e+08 -6.85539e+08 -0 -3.13072e+08 -0 -0 4.07201e+09 -1.1846e+09 -8.24598e+08 -2.29419e+09 -3.27161e+09
2 2 0 0 0 -8.80195e+08 -3.32489e+08 -0 -4.18112e+08 -0 -0 4.23647e+09 -8.198e+08 -1.11768e+09 -2.10195e+09 -2.97575e+09
3 2 0.5 0 0 -3.85662e+08 -3.5305e+08 -0 1.0504e+08 -0 -0 1.12084e+08 4.79185e+08 2.93081e+08 -1.92237e+08 -2.95856e+08
ITEM: TIMESTEP
10
ITEM: NUMBER OF ATOMS
3
ITEM: BOX BOUNDS xy xz yz pp pp pp
0.0000000000000000e+00 5.5000000000000000e+01 5.0000000000000000e+00
0.0000000000000000e+00 5.0000000000000000e+01 0.0000000000000000e+00
0.0000000000000000e+00 5.0000000000000000e+01 0.0000000000000000e+00
ITEM: ATOMS id type x y z c_1[1] c_1[2] c_1[3] c_1[4] c_1[5] c_1[6] c_1[7] c_1[8] c_1[13] c_1[15] c_1[22]
1 2 0.410767 0.321535 0 -5.98027e+08 -7.08903e+08 -0 -3.46608e+08 -0 -0 4.2608e+09 -1.04234e+09 -7.38951e+08 -2.26087e+09 -3.28302e+09
2 2 0 0 0 -9.20032e+08 -3.53966e+08 -0 -4.48659e+08 -0 -0 4.72619e+09 -1.00711e+09 -1.03622e+09 -2.07335e+09 -2.982e+09
3 2 0.5 0 0 -3.80688e+08 -3.54937e+08 -0 1.02052e+08 -0 -0 4.15612e+08 1.43058e+08 2.97269e+08 -1.87523e+08 -3.0102e+08
ITEM: TIMESTEP
11
ITEM: NUMBER OF ATOMS
3
ITEM: BOX BOUNDS xy xz yz pp pp pp
0.0000000000000000e+00 5.5500000000000000e+01 5.5000000000000000e+00
0.0000000000000000e+00 5.0000000000000000e+01 0.0000000000000000e+00
0.0000000000000000e+00 5.0000000000000000e+01 0.0000000000000000e+00
ITEM: ATOMS id type x y z c_1[1] c_1[2] c_1[3] c_1[4] c_1[5] c_1[6] c_1[7] c_1[8] c_1[13] c_1[15] c_1[22]
1 2 0.413983 0.321535 0 -6.39498e+08 -7.31772e+08 -0 -3.80056e+08 -0 -0 4.42166e+09 -8.7038e+08 -6.37886e+08 -2.19466e+09 -3.25149e+09
2 2 0 0 0 -9.63043e+08 -3.74998e+08 -0 -4.79068e+08 -0 -0 4.9717e+09 -9.21069e+08 -9.39263e+08 -2.01201e+09 -2.94541e+09
3 2 0.5 0 0 -3.78501e+08 -3.56774e+08 -0 9.90122e+07 -0 -0 5.02888e+08 5.06893e+07 3.01377e+08 -1.82651e+08 -3.06085e+08
ITEM: TIMESTEP
12
ITEM: NUMBER OF ATOMS
3
ITEM: BOX BOUNDS xy xz yz pp pp pp
0.0000000000000000e+00 5.6000000000000000e+01 6.0000000000000000e+00
0.0000000000000000e+00 5.0000000000000000e+01 0.0000000000000000e+00
0.0000000000000000e+00 5.0000000000000000e+01 0.0000000000000000e+00
ITEM: ATOMS id type x y z c_1[1] c_1[2] c_1[3] c_1[4] c_1[5] c_1[6] c_1[7] c_1[8] c_1[13] c_1[15] c_1[22]
1 2 0.417198 0.321535 0 -6.80887e+08 -7.53819e+08 -0 -4.12982e+08 -0 -0 4.55478e+09 -6.73344e+08 -5.2461e+08 -2.09762e+09 -3.17836e+09
2 2 0 0 0 -1.00623e+09 -3.95259e+08 -0 -5.08904e+08 -0 -0 5.1035e+09 -7.20862e+08 -8.3001e+08 -1.91999e+09 -2.86732e+09
3 2 0.5 0 0 -3.76663e+08 -3.58561e+08 -0 9.59224e+07 -0 -0 5.04196e+08 4.75179e+07 3.054e+08 -1.77623e+08 -3.11043e+08
ITEM: TIMESTEP
13
ITEM: NUMBER OF ATOMS
3
ITEM: BOX BOUNDS xy xz yz pp pp pp
0.0000000000000000e+00 5.6500000000000000e+01 6.5000000000000000e+00
0.0000000000000000e+00 5.0000000000000000e+01 0.0000000000000000e+00
0.0000000000000000e+00 5.0000000000000000e+01 0.0000000000000000e+00
ITEM: ATOMS id type x y z c_1[1] c_1[2] c_1[3] c_1[4] c_1[5] c_1[6] c_1[7] c_1[8] c_1[13] c_1[15] c_1[22]
1 2 0.420414 0.321535 0 -7.21637e+08 -7.74739e+08 -0 -4.44968e+08 -0 -0 4.66082e+09 -4.56151e+08 -4.02324e+08 -1.97221e+09 -3.0656e+09
2 2 0 0 0 -1.04872e+09 -4.14445e+08 -0 -5.37751e+08 -0 -0 5.20822e+09 -5.00559e+08 -7.11656e+08 -1.79977e+09 -2.74972e+09
3 2 0.5 0 0 -3.74872e+08 -3.60294e+08 -0 9.27832e+07 -0 -0 5.05503e+08 4.44076e+07 3.09332e+08 -1.72443e+08 -3.15887e+08
ITEM: TIMESTEP
14
ITEM: NUMBER OF ATOMS
3
ITEM: BOX BOUNDS xy xz yz pp pp pp
0.0000000000000000e+00 5.7000000000000000e+01 7.0000000000000000e+00
0.0000000000000000e+00 5.0000000000000000e+01 0.0000000000000000e+00
0.0000000000000000e+00 5.0000000000000000e+01 0.0000000000000000e+00
ITEM: ATOMS id type x y z c_1[1] c_1[2] c_1[3] c_1[4] c_1[5] c_1[6] c_1[7] c_1[8] c_1[13] c_1[15] c_1[22]
1 2 0.423629 0.321535 0 -7.61208e+08 -7.94254e+08 -0 -4.75619e+08 -0 -0 4.74077e+09 -2.23901e+08 -2.74149e+08 -1.82128e+09 -2.91579e+09
2 2 0 0 0 -1.08998e+09 -4.3228e+08 -0 -5.65215e+08 -0 -0 5.28686e+09 -2.65265e+08 -5.87323e+08 -1.65417e+09 -2.59518e+09
3 2 0.5 0 0 -3.73129e+08 -3.61974e+08 -0 8.9596e+07 -0 -0 5.06803e+08 4.1364e+07 3.13174e+08 -1.67113e+08 -3.2061e+08
ITEM: TIMESTEP
15
ITEM: NUMBER OF ATOMS
3
ITEM: BOX BOUNDS xy xz yz pp pp pp
0.0000000000000000e+00 5.7500000000000000e+01 7.5000000000000000e+00
0.0000000000000000e+00 5.0000000000000000e+01 0.0000000000000000e+00
0.0000000000000000e+00 5.0000000000000000e+01 0.0000000000000000e+00
ITEM: ATOMS id type x y z c_1[1] c_1[2] c_1[3] c_1[4] c_1[5] c_1[6] c_1[7] c_1[8] c_1[13] c_1[15] c_1[22]
1 2 0.426844 0.321535 0 -7.99079e+08 -8.12116e+08 -0 -5.0457e+08 -0 -0 4.79592e+09 1.82947e+07 -1.43052e+08 -1.6479e+09 -2.73195e+09
2 2 0 0 0 -1.12949e+09 -4.48518e+08 -0 -5.90932e+08 -0 -0 5.34071e+09 -2.00975e+07 -4.59972e+08 -1.48626e+09 -2.40674e+09
3 2 0.5 0 0 -3.71436e+08 -3.63598e+08 -0 8.6362e+07 -0 -0 5.08092e+08 3.83921e+07 3.16919e+08 -1.61637e+08 -3.25206e+08
ITEM: TIMESTEP
16
ITEM: NUMBER OF ATOMS
3
ITEM: BOX BOUNDS xy xz yz pp pp pp
0.0000000000000000e+00 5.8000000000000000e+01 8.0000000000000000e+00
0.0000000000000000e+00 5.0000000000000000e+01 0.0000000000000000e+00
0.0000000000000000e+00 5.0000000000000000e+01 0.0000000000000000e+00
ITEM: ATOMS id type x y z c_1[1] c_1[2] c_1[3] c_1[4] c_1[5] c_1[6] c_1[7] c_1[8] c_1[13] c_1[15] c_1[22]
1 2 0.43006 0.321535 0 -8.34761e+08 -8.28112e+08 -0 -5.3149e+08 -0 -0 4.82777e+09 2.65399e+08 -1.18051e+07 -1.45529e+09 -2.51749e+09
2 2 0 0 0 -1.16675e+09 -4.62947e+08 -0 -6.14572e+08 -0 -0 5.37127e+09 2.29902e+08 -3.32363e+08 -1.29928e+09 -2.18782e+09
3 2 0.5 0 0 -3.69795e+08 -3.65165e+08 -0 8.30825e+07 -0 -0 5.09366e+08 3.54969e+07 3.20557e+08 -1.56016e+08 -3.29668e+08
ITEM: TIMESTEP
17
ITEM: NUMBER OF ATOMS
3
ITEM: BOX BOUNDS xy xz yz pp pp pp
0.0000000000000000e+00 5.8500000000000000e+01 8.5000000000000000e+00
0.0000000000000000e+00 5.0000000000000000e+01 0.0000000000000000e+00
0.0000000000000000e+00 5.0000000000000000e+01 0.0000000000000000e+00
ITEM: ATOMS id type x y z c_1[1] c_1[2] c_1[3] c_1[4] c_1[5] c_1[6] c_1[7] c_1[8] c_1[13] c_1[15] c_1[22]
1 2 0.433275 0.321535 0 -8.67801e+08 -8.42061e+08 -0 -5.56083e+08 -0 -0 4.83797e+09 5.12589e+08 1.17089e+08 -1.24679e+09 -2.27608e+09
2 2 0 0 0 -1.20131e+09 -4.75388e+08 -0 -6.35842e+08 -0 -0 5.3802e+09 4.79906e+08 -2.06994e+08 -1.09653e+09 -1.94209e+09
3 2 0.5 0 0 -3.68208e+08 -3.66673e+08 -0 7.9759e+07 -0 -0 5.10621e+08 3.26833e+07 3.24083e+08 -1.50254e+08 -3.3399e+08
ITEM: TIMESTEP
18
ITEM: NUMBER OF ATOMS
3
ITEM: BOX BOUNDS xy xz yz pp pp pp
0.0000000000000000e+00 5.9000000000000000e+01 9.0000000000000000e+00
0.0000000000000000e+00 5.0000000000000000e+01 0.0000000000000000e+00
0.0000000000000000e+00 5.0000000000000000e+01 0.0000000000000000e+00
ITEM: ATOMS id type x y z c_1[1] c_1[2] c_1[3] c_1[4] c_1[5] c_1[6] c_1[7] c_1[8] c_1[13] c_1[15] c_1[22]
1 2 0.43649 0.321535 0 -8.97788e+08 -8.53818e+08 -0 -5.78094e+08 -0 -0 4.82824e+09 7.55308e+08 2.41397e+08 -1.02571e+09 -2.01158e+09
2 2 0 0 0 -1.23276e+09 -4.85696e+08 -0 -6.54486e+08 -0 -0 5.36922e+09 7.25352e+08 -8.60945e+07 -8.81357e+08 -1.67341e+09
3 2 0.5 0 0 -3.66676e+08 -3.68122e+08 -0 7.63929e+07 -0 -0 5.11853e+08 2.99565e+07 3.27491e+08 -1.44354e+08 -3.38165e+08
ITEM: TIMESTEP
19
ITEM: NUMBER OF ATOMS
3
ITEM: BOX BOUNDS xy xz yz pp pp pp
0.0000000000000000e+00 5.9500000000000000e+01 9.5000000000000000e+00
0.0000000000000000e+00 5.0000000000000000e+01 0.0000000000000000e+00
0.0000000000000000e+00 5.0000000000000000e+01 0.0000000000000000e+00
ITEM: ATOMS id type x y z c_1[1] c_1[2] c_1[3] c_1[4] c_1[5] c_1[6] c_1[7] c_1[8] c_1[13] c_1[15] c_1[22]
1 2 0.439706 0.321535 0 -9.24354e+08 -8.63272e+08 -0 -5.97308e+08 -0 -0 4.80036e+09 9.89373e+08 3.59197e+08 -7.95334e+08 -1.72794e+09
2 2 0 0 0 -1.26072e+09 -4.93762e+08 -0 -6.70293e+08 -0 -0 5.34012e+09 9.62052e+08 2.84204e+07 -6.57013e+08 -1.38575e+09
3 2 0.5 0 0 -3.65201e+08 -3.69509e+08 -0 7.29857e+07 -0 -0 5.13058e+08 2.73212e+07 3.30777e+08 -1.38321e+08 -3.42188e+08
ITEM: TIMESTEP
20
ITEM: NUMBER OF ATOMS
3
ITEM: BOX BOUNDS xy xz yz pp pp pp
0.0000000000000000e+00 6.0000000000000000e+01 1.0000000000000000e+01
0.0000000000000000e+00 5.0000000000000000e+01 0.0000000000000000e+00
0.0000000000000000e+00 5.0000000000000000e+01 0.0000000000000000e+00
ITEM: ATOMS id type x y z c_1[1] c_1[2] c_1[3] c_1[4] c_1[5] c_1[6] c_1[7] c_1[8] c_1[13] c_1[15] c_1[22]
1 2 0.442921 0.321535 0 -9.4718e+08 -8.70343e+08 -0 -6.13551e+08 -0 -0 4.75609e+09 1.21099e+09 4.68867e+08 -5.5883e+08 -1.42913e+09
2 2 0 0 0 -1.28489e+09 -4.99509e+08 -0 -6.8309e+08 -0 -0 5.29466e+09 1.18621e+09 1.34932e+08 -4.26671e+08 -1.08308e+09
3 2 0.5 0 0 -3.63785e+08 -3.70834e+08 -0 6.95391e+07 -0 -0 5.14232e+08 2.47825e+07 3.33934e+08 -1.32159e+08 -3.46051e+08
ITEM: TIMESTEP
21
ITEM: NUMBER OF ATOMS
3
ITEM: BOX BOUNDS xy xz yz pp pp pp
0.0000000000000000e+00 6.0500000000000000e+01 1.0500000000000000e+01
0.0000000000000000e+00 5.0000000000000000e+01 0.0000000000000000e+00
0.0000000000000000e+00 5.0000000000000000e+01 0.0000000000000000e+00
ITEM: ATOMS id type x y z c_1[1] c_1[2] c_1[3] c_1[4] c_1[5] c_1[6] c_1[7] c_1[8] c_1[13] c_1[15] c_1[22]
1 2 0.446136 0.321535 0 -9.65997e+08 -8.74987e+08 -0 -6.2669e+08 -0 -0 4.69715e+09 1.41684e+09 5.69103e+08 -3.19204e+08 -1.11905e+09
2 2 0 0 0 -1.30497e+09 -5.02892e+08 -0 -6.92745e+08 -0 -0 5.23456e+09 1.3945e+09 2.32141e+08 -1.93332e+08 -7.69304e+08
3 2 0.5 0 0 -3.62429e+08 -3.72095e+08 -0 6.60546e+07 -0 -0 5.1537e+08 2.2345e+07 3.36962e+08 -1.25872e+08 -3.4975e+08
ITEM: TIMESTEP
22
ITEM: NUMBER OF ATOMS
3
ITEM: BOX BOUNDS xy xz yz pp pp pp
0.0000000000000000e+00 6.1000000000000000e+01 1.1000000000000000e+01
0.0000000000000000e+00 5.0000000000000000e+01 0.0000000000000000e+00
0.0000000000000000e+00 5.0000000000000000e+01 0.0000000000000000e+00
ITEM: ATOMS id type x y z c_1[1] c_1[2] c_1[3] c_1[4] c_1[5] c_1[6] c_1[7] c_1[8] c_1[13] c_1[15] c_1[22]
1 2 0.449352 0.321535 0 -9.80584e+08 -8.77188e+08 -0 -6.36632e+08 -0 -0 4.62517e+09 1.60406e+09 6.58894e+08 -7.92815e+07 -8.01518e+08
2 2 0 0 0 -1.32077e+09 -5.03896e+08 -0 -6.99167e+08 -0 -0 5.16146e+09 1.58404e+09 3.19036e+08 4.01859e+07 -4.48239e+08
3 2 0.5 0 0 -3.61135e+08 -3.73292e+08 -0 6.25341e+07 -0 -0 5.16469e+08 2.00133e+07 3.39858e+08 -1.19467e+08 -3.53279e+08
ITEM: TIMESTEP
23
ITEM: NUMBER OF ATOMS
3
ITEM: BOX BOUNDS xy xz yz pp pp pp
0.0000000000000000e+00 6.1500000000000000e+01 1.1500000000000000e+01
0.0000000000000000e+00 5.0000000000000000e+01 0.0000000000000000e+00
0.0000000000000000e+00 5.0000000000000000e+01 0.0000000000000000e+00
ITEM: ATOMS id type x y z c_1[1] c_1[2] c_1[3] c_1[4] c_1[5] c_1[6] c_1[7] c_1[8] c_1[13] c_1[15] c_1[22]
1 2 0.452567 0.321535 0 -9.90774e+08 -8.76957e+08 -0 -6.43323e+08 -0 -0 4.5417e+09 1.77027e+09 7.37515e+08 1.58345e+08 -4.80137e+08
2 2 0 0 0 -1.3321e+09 -5.02535e+08 -0 -7.02303e+08 -0 -0 5.07692e+09 1.75247e+09 3.94903e+08 2.71293e+08 -1.23506e+08
3 2 0.5 0 0 -3.59904e+08 -3.74423e+08 -0 5.89793e+07 -0 -0 5.17526e+08 1.77916e+07 3.42611e+08 -1.12948e+08 -3.56631e+08
ITEM: TIMESTEP
24
ITEM: NUMBER OF ATOMS
3
ITEM: BOX BOUNDS xy xz yz pp pp pp
0.0000000000000000e+00 6.2000000000000000e+01 1.2000000000000000e+01
0.0000000000000000e+00 5.0000000000000000e+01 0.0000000000000000e+00
0.0000000000000000e+00 5.0000000000000000e+01 0.0000000000000000e+00
ITEM: ATOMS id type x y z c_1[1] c_1[2] c_1[3] c_1[4] c_1[5] c_1[6] c_1[7] c_1[8] c_1[13] c_1[15] c_1[22]
1 2 0.455782 0.321535 0 -9.96444e+08 -8.74333e+08 -0 -6.46745e+08 -0 -0 4.44816e+09 1.91357e+09 8.04504e+08 3.9132e+08 -1.58328e+08
2 2 0 0 0 -1.33884e+09 -4.98846e+08 -0 -7.02137e+08 -0 -0 4.98236e+09 1.89789e+09 4.59285e+08 4.97639e+08 2.01474e+08
3 2 0.5 0 0 -3.58737e+08 -3.75487e+08 -0 5.53921e+07 -0 -0 5.18536e+08 1.56843e+07 3.45219e+08 -1.06319e+08 -3.59802e+08
ITEM: TIMESTEP
25
ITEM: NUMBER OF ATOMS
3
ITEM: BOX BOUNDS xy xz yz pp pp pp
0.0000000000000000e+00 6.2500000000000000e+01 1.2500000000000000e+01
0.0000000000000000e+00 5.0000000000000000e+01 0.0000000000000000e+00
0.0000000000000000e+00 5.0000000000000000e+01 0.0000000000000000e+00
ITEM: ATOMS id type x y z c_1[1] c_1[2] c_1[3] c_1[4] c_1[5] c_1[6] c_1[7] c_1[8] c_1[13] c_1[15] c_1[22]
1 2 0.458998 0.321535 0 -9.97522e+08 -8.69375e+08 -0 -6.46911e+08 -0 -0 4.34586e+09 2.03256e+09 8.59651e+08 6.17546e+08 1.60748e+08
2 2 0 0 0 -1.34092e+09 -4.92892e+08 -0 -6.98686e+08 -0 -0 4.87908e+09 2.01887e+09 5.11975e+08 7.17133e+08 5.23536e+08
3 2 0.5 0 0 -3.57637e+08 -3.76483e+08 -0 5.17742e+07 -0 -0 5.19496e+08 1.36952e+07 3.47675e+08 -9.95868e+07 -3.62788e+08
ITEM: TIMESTEP
26
ITEM: NUMBER OF ATOMS
3
ITEM: BOX BOUNDS xy xz yz pp pp pp
0.0000000000000000e+00 6.3000000000000000e+01 1.3000000000000000e+01
0.0000000000000000e+00 5.0000000000000000e+01 0.0000000000000000e+00
0.0000000000000000e+00 5.0000000000000000e+01 0.0000000000000000e+00
ITEM: ATOMS id type x y z c_1[1] c_1[2] c_1[3] c_1[4] c_1[5] c_1[6] c_1[7] c_1[8] c_1[13] c_1[15] c_1[22]
1 2 0.462213 0.321535 0 -9.93979e+08 -8.62165e+08 -0 -6.4387e+08 -0 -0 4.23595e+09 2.12627e+09 9.02958e+08 8.35192e+08 4.742e+08
2 2 0 0 0 -1.33831e+09 -4.84754e+08 -0 -6.91997e+08 -0 -0 4.76824e+09 2.11444e+09 5.5298e+08 9.27949e+08 8.39782e+08
3 2 0.5 0 0 -3.56604e+08 -3.7741e+08 -0 4.81277e+07 -0 -0 5.20404e+08 1.18284e+07 3.49977e+08 -9.2757e+07 -3.65582e+08
ITEM: TIMESTEP
27
ITEM: NUMBER OF ATOMS
3
ITEM: BOX BOUNDS xy xz yz pp pp pp
0.0000000000000000e+00 6.3500000000000000e+01 1.3500000000000000e+01
0.0000000000000000e+00 5.0000000000000000e+01 0.0000000000000000e+00
0.0000000000000000e+00 5.0000000000000000e+01 0.0000000000000000e+00
ITEM: ATOMS id type x y z c_1[1] c_1[2] c_1[3] c_1[4] c_1[5] c_1[6] c_1[7] c_1[8] c_1[13] c_1[15] c_1[22]
1 2 0.465428 0.321535 0 -9.85828e+08 -8.528e+08 -0 -6.37694e+08 -0 -0 4.11946e+09 2.19414e+09 9.34624e+08 1.04269e+09 7.79431e+08
2 2 0 0 0 -1.33102e+09 -4.74531e+08 -0 -6.82149e+08 -0 -0 4.65088e+09 2.18405e+09 5.82502e+08 1.12853e+09 1.14761e+09
3 2 0.5 0 0 -3.5564e+08 -3.78269e+08 -0 4.44544e+07 -0 -0 5.21256e+08 1.00875e+07 3.52121e+08 -8.5836e+07 -3.68181e+08
ITEM: TIMESTEP
28
ITEM: NUMBER OF ATOMS
3
ITEM: BOX BOUNDS xy xz yz pp pp pp
0.0000000000000000e+00 6.4000000000000000e+01 1.4000000000000000e+01
0.0000000000000000e+00 5.0000000000000000e+01 0.0000000000000000e+00
0.0000000000000000e+00 5.0000000000000000e+01 0.0000000000000000e+00
ITEM: ATOMS id type x y z c_1[1] c_1[2] c_1[3] c_1[4] c_1[5] c_1[6] c_1[7] c_1[8] c_1[13] c_1[15] c_1[22]
1 2 0.468644 0.321535 0 -9.73123e+08 -8.41392e+08 -0 -6.28484e+08 -0 -0 3.99728e+09 2.23604e+09 9.55009e+08 1.23874e+09 1.07415e+09
2 2 0 0 0 -1.3191e+09 -4.62336e+08 -0 -6.69241e+08 -0 -0 4.5279e+09 2.22757e+09 6.00906e+08 1.31757e+09 1.44473e+09
3 2 0.5 0 0 -3.54746e+08 -3.79057e+08 -0 4.07565e+07 -0 -0 5.22049e+08 8.47585e+06 3.54103e+08 -7.88299e+07 -3.70581e+08
ITEM: TIMESTEP
29
ITEM: NUMBER OF ATOMS
3
ITEM: BOX BOUNDS xy xz yz pp pp pp
0.0000000000000000e+00 6.4500000000000000e+01 1.4500000000000000e+01
0.0000000000000000e+00 5.0000000000000000e+01 0.0000000000000000e+00
0.0000000000000000e+00 5.0000000000000000e+01 0.0000000000000000e+00
ITEM: ATOMS id type x y z c_1[1] c_1[2] c_1[3] c_1[4] c_1[5] c_1[6] c_1[7] c_1[8] c_1[13] c_1[15] c_1[22]
1 2 0.471859 0.321535 0 -9.5595e+08 -8.28067e+08 -0 -6.1636e+08 -0 -0 3.87019e+09 2.25217e+09 9.64614e+08 1.42228e+09 1.35636e+09
2 2 0 0 0 -1.30265e+09 -4.48292e+08 -0 -6.53396e+08 -0 -0 4.40006e+09 2.24517e+09 6.08694e+08 1.49403e+09 1.72914e+09
3 2 0.5 0 0 -3.53923e+08 -3.79774e+08 -0 3.70359e+07 -0 -0 5.22781e+08 6.99667e+06 3.5592e+08 -7.17454e+07 -3.72778e+08
ITEM: TIMESTEP
30
ITEM: NUMBER OF ATOMS
3
ITEM: BOX BOUNDS xy xz yz pp pp pp
0.0000000000000000e+00 6.5000000000000000e+01 1.5000000000000000e+01
0.0000000000000000e+00 5.0000000000000000e+01 0.0000000000000000e+00
0.0000000000000000e+00 5.0000000000000000e+01 0.0000000000000000e+00
ITEM: ATOMS id type x y z c_1[1] c_1[2] c_1[3] c_1[4] c_1[5] c_1[6] c_1[7] c_1[8] c_1[13] c_1[15] c_1[22]
1 2 0.475074 0.321535 0 -9.34431e+08 -8.12956e+08 -0 -6.01461e+08 -0 -0 3.73883e+09 2.24305e+09 9.6405e+08 1.59252e+09 1.62439e+09
2 2 0 0 0 -1.28177e+09 -4.32536e+08 -0 -6.34755e+08 -0 -0 4.26802e+09 2.2374e+09 6.06482e+08 1.65711e+09 1.99916e+09
3 2 0.5 0 0 -3.53172e+08 -3.8042e+08 -0 3.32947e+07 -0 -0 5.23448e+08 5.6529e+06 3.57569e+08 -6.45893e+07 -3.74767e+08
ITEM: TIMESTEP
31
ITEM: NUMBER OF ATOMS
3
ITEM: BOX BOUNDS xy xz yz pp pp pp
0.0000000000000000e+00 6.5500000000000000e+01 1.5500000000000000e+01
0.0000000000000000e+00 5.0000000000000000e+01 0.0000000000000000e+00
0.0000000000000000e+00 5.0000000000000000e+01 0.0000000000000000e+00
ITEM: ATOMS id type x y z c_1[1] c_1[2] c_1[3] c_1[4] c_1[5] c_1[6] c_1[7] c_1[8] c_1[13] c_1[15] c_1[22]
1 2 0.47829 0.321535 0 -9.08713e+08 -7.962e+08 -0 -5.8394e+08 -0 -0 3.60374e+09 2.20949e+09 9.54015e+08 1.74887e+09 1.87685e+09
2 2 0 0 0 -1.25663e+09 -4.15206e+08 -0 -6.13475e+08 -0 -0 4.13231e+09 2.20505e+09 5.94969e+08 1.80624e+09 2.2534e+09
3 2 0.5 0 0 -3.52495e+08 -3.80995e+08 -0 2.9535e+07 -0 -0 5.2405e+08 4.44725e+06 3.59046e+08 -5.73685e+07 -3.76547e+08
ITEM: TIMESTEP
32
ITEM: NUMBER OF ATOMS
3
ITEM: BOX BOUNDS xy xz yz pp pp pp
0.0000000000000000e+00 6.6000000000000000e+01 1.6000000000000000e+01
0.0000000000000000e+00 5.0000000000000000e+01 0.0000000000000000e+00
0.0000000000000000e+00 5.0000000000000000e+01 0.0000000000000000e+00
ITEM: ATOMS id type x y z c_1[1] c_1[2] c_1[3] c_1[4] c_1[5] c_1[6] c_1[7] c_1[8] c_1[13] c_1[15] c_1[22]
1 2 0.481505 0.321535 0 -8.78967e+08 -7.77945e+08 -0 -5.63966e+08 -0 -0 3.46535e+09 2.15252e+09 9.35271e+08 1.89097e+09 2.11265e+09
2 2 0 0 0 -1.22738e+09 -3.96448e+08 -0 -5.89725e+08 -0 -0 3.99338e+09 2.14914e+09 5.74921e+08 1.94106e+09 2.49076e+09
3 2 0.5 0 0 -3.51892e+08 -3.81497e+08 -0 2.57589e+07 -0 -0 5.24583e+08 3.38212e+06 3.60351e+08 -5.00901e+07 -3.78115e+08
ITEM: TIMESTEP
33
ITEM: NUMBER OF ATOMS
3
ITEM: BOX BOUNDS xy xz yz pp pp pp
0.0000000000000000e+00 6.6500000000000000e+01 1.6500000000000000e+01
0.0000000000000000e+00 5.0000000000000000e+01 0.0000000000000000e+00
0.0000000000000000e+00 5.0000000000000000e+01 0.0000000000000000e+00
ITEM: ATOMS id type x y z c_1[1] c_1[2] c_1[3] c_1[4] c_1[5] c_1[6] c_1[7] c_1[8] c_1[13] c_1[15] c_1[22]
1 2 0.48472 0.321535 0 -8.45387e+08 -7.58335e+08 -0 -5.41712e+08 -0 -0 3.32401e+09 2.07338e+09 9.08622e+08 2.01864e+09 2.33097e+09
2 2 0 0 0 -1.19422e+09 -3.76409e+08 -0 -5.63681e+08 -0 -0 3.85157e+09 2.07092e+09 5.47143e+08 2.0614e+09 2.71044e+09
3 2 0.5 0 0 -3.51364e+08 -3.81926e+08 -0 2.19687e+07 -0 -0 5.25046e+08 2.45966e+06 3.61479e+08 -4.27612e+07 -3.79467e+08
ITEM: TIMESTEP
34
ITEM: NUMBER OF ATOMS
3
ITEM: BOX BOUNDS xy xz yz pp pp pp
0.0000000000000000e+00 6.7000000000000000e+01 1.7000000000000000e+01
0.0000000000000000e+00 5.0000000000000000e+01 0.0000000000000000e+00
0.0000000000000000e+00 5.0000000000000000e+01 0.0000000000000000e+00
ITEM: ATOMS id type x y z c_1[1] c_1[2] c_1[3] c_1[4] c_1[5] c_1[6] c_1[7] c_1[8] c_1[13] c_1[15] c_1[22]
1 2 0.487936 0.321535 0 -8.08182e+08 -7.3752e+08 -0 -5.17361e+08 -0 -0 3.18e+09 1.97344e+09 8.74897e+08 2.1319e+09 2.53125e+09
2 2 0 0 0 -1.15737e+09 -3.55237e+08 -0 -5.35527e+08 -0 -0 3.70716e+09 1.97176e+09 5.12466e+08 2.16729e+09 2.91185e+09
3 2 0.5 0 0 -3.50913e+08 -3.82283e+08 -0 1.81664e+07 -0 -0 5.25437e+08 1.68173e+06 3.62431e+08 -3.53893e+07 -3.80602e+08
ITEM: TIMESTEP
35
ITEM: NUMBER OF ATOMS
3
ITEM: BOX BOUNDS xy xz yz pp pp pp
0.0000000000000000e+00 6.7500000000000000e+01 1.7500000000000000e+01
0.0000000000000000e+00 5.0000000000000000e+01 0.0000000000000000e+00
0.0000000000000000e+00 5.0000000000000000e+01 0.0000000000000000e+00
ITEM: ATOMS id type x y z c_1[1] c_1[2] c_1[3] c_1[4] c_1[5] c_1[6] c_1[7] c_1[8] c_1[13] c_1[15] c_1[22]
1 2 0.491151 0.321535 0 -7.67574e+08 -7.15645e+08 -0 -4.91099e+08 -0 -0 3.03351e+09 1.85423e+09 8.34929e+08 2.2309e+09 2.71316e+09
2 2 0 0 0 -1.11704e+09 -3.33078e+08 -0 -5.05453e+08 -0 -0 3.56034e+09 1.85318e+09 4.71726e+08 2.25888e+09 3.09468e+09
3 2 0.5 0 0 -3.50539e+08 -3.82567e+08 -0 1.43542e+07 -0 -0 5.25755e+08 1.0499e+06 3.63203e+08 -2.79818e+07 -3.81517e+08
ITEM: TIMESTEP
36
ITEM: NUMBER OF ATOMS
3
ITEM: BOX BOUNDS xy xz yz pp pp pp
0.0000000000000000e+00 6.8000000000000000e+01 1.8000000000000000e+01
0.0000000000000000e+00 5.0000000000000000e+01 0.0000000000000000e+00
0.0000000000000000e+00 5.0000000000000000e+01 0.0000000000000000e+00
ITEM: ATOMS id type x y z c_1[1] c_1[2] c_1[3] c_1[4] c_1[5] c_1[6] c_1[7] c_1[8] c_1[13] c_1[15] c_1[22]
1 2 0.494366 0.321535 0 -7.23796e+08 -6.92854e+08 -0 -4.63113e+08 -0 -0 2.88471e+09 1.71732e+09 7.89548e+08 2.31594e+09 2.8766e+09
2 2 0 0 0 -1.07346e+09 -3.10076e+08 -0 -4.73647e+08 -0 -0 3.41129e+09 1.71675e+09 4.25752e+08 2.33649e+09 3.25881e+09
3 2 0.5 0 0 -3.50242e+08 -3.82778e+08 -0 1.05343e+07 -0 -0 5.25999e+08 565448 3.63796e+08 -2.05463e+07 -3.82213e+08
ITEM: TIMESTEP
37
ITEM: NUMBER OF ATOMS
3
ITEM: BOX BOUNDS xy xz yz pp pp pp
0.0000000000000000e+00 6.8500000000000000e+01 1.8500000000000000e+01
0.0000000000000000e+00 5.0000000000000000e+01 0.0000000000000000e+00
0.0000000000000000e+00 5.0000000000000000e+01 0.0000000000000000e+00
ITEM: ATOMS id type x y z c_1[1] c_1[2] c_1[3] c_1[4] c_1[5] c_1[6] c_1[7] c_1[8] c_1[13] c_1[15] c_1[22]
1 2 0.497582 0.321535 0 -6.77086e+08 -6.69285e+08 -0 -4.33589e+08 -0 -0 2.73371e+09 1.56436e+09 7.39556e+08 2.38743e+09 3.02166e+09
2 2 0 0 0 -1.02687e+09 -2.86369e+08 -0 -4.40298e+08 -0 -0 3.26011e+09 1.56413e+09 3.75349e+08 2.40052e+09 3.40435e+09
3 2 0.5 0 0 -3.50024e+08 -3.82916e+08 -0 6.70897e+06 -0 -0 5.26168e+08 229349 3.64207e+08 -1.30901e+07 -3.82687e+08
ITEM: TIMESTEP
38
ITEM: NUMBER OF ATOMS
3
ITEM: BOX BOUNDS xy xz yz pp pp pp
0.0000000000000000e+00 6.9000000000000000e+01 1.9000000000000000e+01
0.0000000000000000e+00 5.0000000000000000e+01 0.0000000000000000e+00
0.0000000000000000e+00 5.0000000000000000e+01 0.0000000000000000e+00
ITEM: ATOMS id type x y z c_1[1] c_1[2] c_1[3] c_1[4] c_1[5] c_1[6] c_1[7] c_1[8] c_1[13] c_1[15] c_1[22]
1 2 0.500797 0.321535 0 -6.27686e+08 -6.45073e+08 -0 -4.02713e+08 -0 -0 2.58057e+09 1.39702e+09 6.85732e+08 2.44589e+09 3.1486e+09
2 2 0 0 0 -9.77527e+08 -2.62092e+08 -0 -4.05593e+08 -0 -0 3.10688e+09 1.39698e+09 3.21296e+08 2.45151e+09 3.53154e+09
3 2 0.5 0 0 -3.49884e+08 -3.82981e+08 -0 2.88029e+06 -0 -0 5.26261e+08 42274.8 3.64436e+08 -5.62111e+06 -3.82939e+08
ITEM: TIMESTEP
39
ITEM: NUMBER OF ATOMS
3
ITEM: BOX BOUNDS xy xz yz pp pp pp
0.0000000000000000e+00 6.9500000000000000e+01 1.9500000000000000e+01
0.0000000000000000e+00 5.0000000000000000e+01 0.0000000000000000e+00
0.0000000000000000e+00 5.0000000000000000e+01 0.0000000000000000e+00