ITEM: TIMESTEP
0
ITEM: NUMBER OF ATOMS
4
ITEM: BOX BOUNDS xy xz yz pp pp pp
0.0000000000000000e+00 5.0000000000000000e+01 0.0000000000000000e+00
0.0000000000000000e+00 5.0000000000000000e+01 0.0000000000000000e+00
0.0000000000000000e+00 5.0000000000000000e+01 0.0000000000000000e+00
ITEM: ATOMS id type x y z c_1[1] c_1[2] c_1[3] c_1[4] c_1[5] c_1[6] c_1[7] c_1[22]
1 2 0.378614 0.321535 0 -6.01397e+08 -5.88501e+08 -0 5.84428e+07 -0 -0 1.34238e+09 -1.91933e+09
2 2 0 0 0 -7.78064e+08 -5.57536e+08 -0 -2.15376e+08 -0 -0 -1.93012e+09 -2.09946e+09
3 2 0.5 0 0 -5.7694e+08 -3.27955e+08 -0 1.33395e+08 -0 -0 -3.03309e+09 -2.65043e+08
4 2 0 0.5 0 -2.97193e+08 -4.41177e+08 -0 1.46151e+08 -0 -0 3.1496e+08 -3.05212e+08
ITEM: TIMESTEP
1
ITEM: NUMBER OF ATOMS
4
ITEM: BOX BOUNDS xy xz yz pp pp pp
0.0000000000000000e+00 5.0000500000000002e+01 5.0000000000238742e-04
0.0000000000000000e+00 5.0000000000000000e+01 0.0000000000000000e+00
0.0000000000000000e+00 5.0000000000000000e+01 0.0000000000000000e+00
ITEM: ATOMS id type x y z c_1[1] c_1[2] c_1[3] c_1[4] c_1[5] c_1[6] c_1[7] c_1[22]
1 2 0.378617 0.321535 0 -6.01397e+08 -5.88501e+08 -0 5.84428e+07 -0 -0 1.34238e+09 -1.92025e+09
2 2 0 0 0 -7.78064e+08 -5.57536e+08 -0 -2.15376e+08 -0 -0 -1.93012e+09 -2.10038e+09
3 2 0.5 0 0 -5.7694e+08 -3.27955e+08 -0 1.33395e+08 -0 -0 -3.03309e+09 -2.65043e+08
4 2 5e-06 0.5 0 -2.97193e+08 -4.41177e+08 -0 1.46151e+08 -0 -0 3.1496e+08 -3.05212e+08
ITEM: TIMESTEP
2
ITEM: NUMBER OF ATOMS
4
ITEM: BOX BOUNDS xy xz yz pp pp pp
0.0000000000000000e+00 5.0000999999999998e+01 9.9999999999766942e-04
0.0000000000000000e+00 5.0000000000000000e+01 0.0000000000000000e+00
0.0000000000000000e+00 5.0000000000000000e+01 0.0000000000000000e+00
ITEM: ATOMS id type x y z c_1[1] c_1[2] c_1[3] c_1[4] c_1[5] c_1[6] c_1[7] c_1[22]
1 2 0.37862 0.321535 0 -6.01417e+08 -5.88517e+08 -0 5.84239e+07 -0 -0 1.34249e+09 -1.91971e+09
2 2 0 0 0 -7.78055e+08 -5.57543e+08 -0 -2.15396e+08 -0 -0 -1.92978e+09 -2.09982e+09
3 2 0.5 0 0 -5.76906e+08 -3.27958e+08 -0 1.33393e+08 -0 -0 -3.03285e+09 -2.65048e+08
4 2 1e-05 0.5 0 -2.97192e+08 -4.41172e+08 -0 1.46148e+08 -0 -0 3.14958e+08 -3.052e+08
ITEM: TIMESTEP
3
ITEM: NUMBER OF ATOMS
4
ITEM: BOX BOUNDS xy xz yz pp pp pp
0.0000000000000000e+00 5.0001500000000000e+01 1.5000000000000568e-03
0.0000000000000000e+00 5.0000000000000000e+01 0.0000000000000000e+00
0.0000000000000000e+00 5.0000000000000000e+01 0.0000000000000000e+00
ITEM: ATOMS id type x y z c_1[1] c_1[2] c_1[3] c_1[4] c_1[5] c_1[6] c_1[7] c_1[22]
1 2 0.378624 0.321535 0 -6.01438e+08 -5.88532e+08 -0 5.84051e+07 -0 -0 1.34259e+09 -1.92009e+09
2 2 0 0 0 -7.78045e+08 -5.57551e+08 -0 -2.15417e+08 -0 -0 -1.92944e+09 -2.10019e+09
3 2 0.5 0 0 -5.76872e+08 -3.2796e+08 -0 1.33391e+08 -0 -0 -3.03262e+09 -2.65053e+08
4 2 1.5e-05 0.5 0 -2.97192e+08 -4.41168e+08 -0 1.46145e+08 -0 -0 3.14955e+08 -3.05188e+08
ITEM: TIMESTEP
4
ITEM: NUMBER OF ATOMS
4
ITEM: BOX BOUNDS xy xz yz pp pp pp
0.0000000000000000e+00 5.0002000000000002e+01 2.0000000000024443e-03
0.0000000000000000e+00 5.0000000000000000e+01 0.0000000000000000e+00
0.0000000000000000e+00 5.0000000000000000e+01 0.0000000000000000e+00
ITEM: ATOMS id type x y z c_1[1] c_1[2] c_1[3] c_1[4] c_1[5] c_1[6] c_1[7] c_1[22]
1 2 0.378627 0.321535 0 -6.01458e+08 -5.88548e+08 -0 5.83862e+07 -0 -0 1.3427e+09 -1.92048e+09
2 2 0 0 0 -7.78035e+08 -5.57559e+08 -0 -2.15437e+08 -0 -0 -1.9291e+09 -2.10055e+09
3 2 0.5 0 0 -5.76837e+08 -3.27962e+08 -0 1.33389e+08 -0 -0 -3.03238e+09 -2.65059e+08
4 2 2e-05 0.5 0 -2.97192e+08 -4.41163e+08 -0 1.46143e+08 -0 -0 3.14952e+08 -3.05175e+08
ITEM: TIMESTEP
5
ITEM: NUMBER OF ATOMS
4
ITEM: BOX BOUNDS xy xz yz pp pp pp
0.0000000000000000e+00 5.0002499999999998e+01 2.4999999999977263e-03
0.0000000000000000e+00 5.0000000000000000e+01 0.0000000000000000e+00
0.0000000000000000e+00 5.0000000000000000e+01 0.0000000000000000e+00
ITEM: ATOMS id type x y z c_1[1] c_1[2] c_1[3] c_1[4] c_1[5] c_1[6] c_1[7] c_1[22]
1 2 0.37863 0.321535 0 -6.01478e+08 -5.88564e+08 -0 5.83674e+07 -0 -0 1.3428e+09 -1.92086e+09
2 2 0 0 0 -7.78026e+08 -5.57567e+08 -0 -2.15458e+08 -0 -0 -1.92876e+09 -2.10091e+09
3 2 0.5 0 0 -5.76803e+08 -3.27964e+08 -0 1.33387e+08 -0 -0 -3.03215e+09 -2.65064e+08
4 2 2.5e-05 0.5 0 -2.97191e+08 -4.41159e+08 -0 1.4614e+08 -0 -0 3.14949e+08 -3.05163e+08
ITEM: TIMESTEP
6
ITEM: NUMBER OF ATOMS
4
ITEM: BOX BOUNDS xy xz yz pp pp pp
0.0000000000000000e+00 5.0003000000000000e+01 3.0000000000001137e-03
0.0000000000000000e+00 5.0000000000000000e+01 0.0000000000000000e+00
0.0000000000000000e+00 5.0000000000000000e+01 0.0000000000000000e+00
ITEM: ATOMS id type x y z c_1[1] c_1[2] c_1[3] c_1[4] c_1[5] c_1[6] c_1[7] c_1[22]
1 2 0.378633 0.321535 0 -6.01498e+08 -5.8858e+08 -0 5.83485e+07 -0 -0 1.3429e+09 -1.92124e+09
2 2 0 0 0 -7.78016e+08 -5.57575e+08 -0 -2.15478e+08 -0 -0 -1.92842e+09 -2.10128e+09
3 2 0.5 0 0 -5.76768e+08 -3.27966e+08 -0 1.33385e+08 -0 -0 -3.03191e+09 -2.6507e+08
4 2 3e-05 0.5 0 -2.97191e+08 -4.41155e+08 -0 1.46137e+08 -0 -0 3.14947e+08 -3.05151e+08
ITEM: TIMESTEP
7
ITEM: NUMBER OF ATOMS
4
ITEM: BOX BOUNDS xy xz yz pp pp pp
0.0000000000000000e+00 5.0003500000000003e+01 3.5000000000025011e-03
0.0000000000000000e+00 5.0000000000000000e+01 0.0000000000000000e+00
0.0000000000000000e+00 5.0000000000000000e+01 0.0000000000000000e+00
ITEM: ATOMS id type x y z c_1[1] c_1[2] c_1[3] c_1[4] c_1[5] c_1[6] c_1[7] c_1[22]
1 2 0.378637 0.321535 0 -6.01518e+08 -5.88596e+08 -0 5.83296e+07 -0 -0 1.34301e+09 -1.92162e+09
2 2 0 0 0 -7.78006e+08 -5.57582e+08 -0 -2.15499e+08 -0 -0 -1.92808e+09 -2.10164e+09
3 2 0.5 0 0 -5.76734e+08 -3.27969e+08 -0 1.33383e+08 -0 -0 -3.03167e+09 -2.65075e+08
4 2 3.5e-05 0.5 0 -2.97191e+08 -4.4115e+08 -0 1.46134e+08 -0 -0 3.14944e+08 -3.05139e+08
ITEM: TIMESTEP
8
ITEM: NUMBER OF ATOMS
4
ITEM: BOX BOUNDS xy xz yz pp pp pp
0.0000000000000000e+00 5.0003999999999998e+01 3.9999999999977831e-03
0.0000000000000000e+00 5.0000000000000000e+01 0.0000000000000000e+00
0.0000000000000000e+00 5.0000000000000000e+01 0.0000000000000000e+00
ITEM: ATOMS id type x y z c_1[1] c_1[2] c_1[3] c_1[4] c_1[5] c_1[6] c_1[7] c_1[22]
1 2 0.37864 0.321535 0 -6.01538e+08 -5.88612e+08 -0 5.83107e+07 -0 -0 1.34311e+09 -1.922e+09
2 2 0 0 0 -7.77996e+08 -5.5759e+08 -0 -2.15519e+08 -0 -0 -1.92773e+09 -2.10201e+09
3 2 0.5 0 0 -5.76699e+08 -3.27971e+08 -0 1.33381e+08 -0 -0 -3.03144e+09 -2.6508e+08
4 2 4e-05 0.5 0 -2.97191e+08 -4.41146e+08 -0 1.46131e+08 -0 -0 3.14941e+08 -3.05127e+08
ITEM: TIMESTEP
9
ITEM: NUMBER OF ATOMS
4
ITEM: BOX BOUNDS xy xz yz pp pp pp
0.0000000000000000e+00 5.0004500000000000e+01 4.5000000000001705e-03
0.0000000000000000e+00 5.0000000000000000e+01 0.0000000000000000e+00
0.0000000000000000e+00 5.0000000000000000e+01 0.0000000000000000e+00
ITEM: ATOMS id type x y z c_1[1] c_1[2] c_1[3] c_1[4] c_1[5] c_1[6] c_1[7] c_1[22]
1 2 0.378643 0.321535 0 -6.01558e+08 -5.88628e+08 -0 5.82919e+07 -0 -0 1.34322e+09 -1.92238e+09
2 2 0 0 0 -7.77987e+08 -5.57598e+08 -0 -2.1554e+08 -0 -0 -1.92739e+09 -2.10237e+09
3 2 0.5 0 0 -5.76665e+08 -3.27973e+08 -0 1.33379e+08 -0 -0 -3.0312e+09 -2.65086e+08
4 2 4.5e-05 0.5 0 -2.9719e+08 -4.41141e+08 -0 1.46128e+08 -0 -0 3.14938e+08 -3.05114e+08
ITEM: TIMESTEP
10
ITEM: NUMBER OF ATOMS
4
ITEM: BOX BOUNDS xy xz yz pp pp pp
0.0000000000000000e+00 5.0005000000000003e+01 5.0000000000025580e-03
0.0000000000000000e+00 5.0000000000000000e+01 0.0000000000000000e+00
0.0000000000000000e+00 5.0000000000000000e+01 0.0000000000000000e+00
ITEM: ATOMS id type x y z c_1[1] c_1[2] c_1[3] c_1[4] c_1[5] c_1[6] c_1[7] c_1[22]
1 2 0.378646 0.321535 0 -6.01578e+08 -5.88644e+08 -0 5.8273e+07 -0 -0 1.34332e+09 -1.92276e+09
2 2 0 0 0 -7.77977e+08 -5.57606e+08 -0 -2.15561e+08 -0 -0 -1.92705e+09 -2.10273e+09
3 2 0.5 0 0 -5.76631e+08 -3.27975e+08 -0 1.33377e+08 -0 -0 -3.03097e+09 -2.65091e+08
4 2 5e-05 0.5 0 -2.9719e+08 -4.41137e+08 -0 1.46126e+08 -0 -0 3.14935e+08 -3.05102e+08
ITEM: TIMESTEP
11
ITEM: NUMBER OF ATOMS
4
ITEM: BOX BOUNDS xy xz yz pp pp pp
0.0000000000000000e+00 5.0005499999999998e+01 5.4999999999978400e-03
0.0000000000000000e+00 5.0000000000000000e+01 0.0000000000000000e+00
0.0000000000000000e+00 5.0000000000000000e+01 0.0000000000000000e+00
ITEM: ATOMS id type x y z c_1[1] c_1[2] c_1[3] c_1[4] c_1[5] c_1[6] c_1[7] c_1[22]
1 2 0.378649 0.321535 0 -6.01598e+08 -5.88659e+08 -0 5.82541e+07 -0 -0 1.34343e+09 -1.92314e+09
2 2 0 0 0 -7.77967e+08 -5.57614e+08 -0 -2.15581e+08 -0 -0 -1.92671e+09 -2.1031e+09
3 2 0.5 0 0 -5.76596e+08 -3.27977e+08 -0 1.33374e+08 -0 -0 -3.03073e+09 -2.65097e+08
4 2 5.5e-05 0.5 0 -2.9719e+08 -4.41132e+08 -0 1.46123e+08 -0 -0 3.14933e+08 -3.0509e+08
ITEM: TIMESTEP
12
ITEM: NUMBER OF ATOMS
4
ITEM: BOX BOUNDS xy xz yz pp pp pp
0.0000000000000000e+00 5.0006000000000000e+01 6.0000000000002274e-03
0.0000000000000000e+00 5.0000000000000000e+01 0.0000000000000000e+00
0.0000000000000000e+00 5.0000000000000000e+01 0.0000000000000000e+00
ITEM: ATOMS id type x y z c_1[1] c_1[2] c_1[3] c_1[4] c_1[5] c_1[6] c_1[7] c_1[22]
1 2 0.378653 0.321535 0 -6.01618e+08 -5.88675e+08 -0 5.82352e+07 -0 -0 1.34353e+09 -1.92352e+09
2 2 0 0 0 -7.77958e+08 -5.57622e+08 -0 -2.15602e+08 -0 -0 -1.92637e+09 -2.10346e+09
3 2 0.5 0 0 -5.76562e+08 -3.2798e+08 -0 1.33372e+08 -0 -0 -3.03049e+09 -2.65102e+08
4 2 6e-05 0.5 0 -2.97189e+08 -4.41128e+08 -0 1.4612e+08 -0 -0 3.1493e+08 -3.05078e+08
ITEM: TIMESTEP
13
ITEM: NUMBER OF ATOMS
4
ITEM: BOX BOUNDS xy xz yz pp pp pp
0.0000000000000000e+00 5.0006500000000003e+01 6.5000000000026148e-03
0.0000000000000000e+00 5.0000000000000000e+01 0.0000000000000000e+00
0.0000000000000000e+00 5.0000000000000000e+01 0.0000000000000000e+00
ITEM: ATOMS id type x y z c_1[1] c_1[2] c_1[3] c_1[4] c_1[5] c_1[6] c_1[7] c_1[22]
1 2 0.378656 0.321535 0 -6.01638e+08 -5.88691e+08 -0 5.82163e+07 -0 -0 1.34363e+09 -1.9239e+09
2 2 0 0 0 -7.77948e+08 -5.57629e+08 -0 -2.15622e+08 -0 -0 -1.92603e+09 -2.10382e+09
3 2 0.5 0 0 -5.76527e+08 -3.27982e+08 -0 1.3337e+08 -0 -0 -3.03026e+09 -2.65107e+08
4 2 6.5e-05 0.5 0 -2.97189e+08 -4.41123e+08 -0 1.46117e+08 -0 -0 3.14927e+08 -3.05066e+08
ITEM: TIMESTEP
14
ITEM: NUMBER OF ATOMS
4
ITEM: BOX BOUNDS xy xz yz pp pp pp
0.0000000000000000e+00 5.0006999999999998e+01 6.9999999999978968e-03
0.0000000000000000e+00 5.0000000000000000e+01 0.0000000000000000e+00
0.0000000000000000e+00 5.0000000000000000e+01 0.0000000000000000e+00
ITEM: ATOMS id type x y z c_1[1] c_1[2] c_1[3] c_1[4] c_1[5] c_1[6] c_1[7] c_1[22]
1 2 0.378659 0.321535 0 -6.01659e+08 -5.88707e+08 -0 5.81974e+07 -0 -0 1.34374e+09 -1.92429e+09
2 2 0 0 0 -7.77938e+08 -5.57637e+08 -0 -2.15643e+08 -0 -0 -1.92569e+09 -2.10419e+09
3 2 0.5 0 0 -5.76493e+08 -3.27984e+08 -0 1.33368e+08 -0 -0 -3.03002e+09 -2.65113e+08
4 2 7e-05 0.5 0 -2.97189e+08 -4.41119e+08 -0 1.46114e+08 -0 -0 3.14924e+08 -3.05054e+08
ITEM: TIMESTEP
15
ITEM: NUMBER OF ATOMS
4
ITEM: BOX BOUNDS xy xz yz pp pp pp
0.0000000000000000e+00 5.0007500000000000e+01 7.5000000000002842e-03
0.0000000000000000e+00 5.0000000000000000e+01 0.0000000000000000e+00
0.0000000000000000e+00 5.0000000000000000e+01 0.0000000000000000e+00
ITEM: ATOMS id type x y z c_1[1] c_1[2] c_1[3] c_1[4] c_1[5] c_1[6] c_1[7] c_1[22]
1 2 0.378662 0.321535 0 -6.01679e+08 -5.88723e+08 -0 5.81785e+07 -0 -0 1.34384e+09 -1.92467e+09
2 2 0 0 0 -7.77929e+08 -5.57645e+08 -0 -2.15663e+08 -0 -0 -1.92535e+09 -2.10455e+09
3 2 0.5 0 0 -5.76459e+08 -3.27986e+08 -0 1.33366e+08 -0 -0 -3.02978e+09 -2.65118e+08
4 2 7.5e-05 0.5 0 -2.97188e+08 -4.41114e+08 -0 1.46111e+08 -0 -0 3.14922e+08 -3.05041e+08
ITEM: TIMESTEP
16
ITEM: NUMBER OF ATOMS
4
ITEM: BOX BOUNDS xy xz yz pp pp pp
0.0000000000000000e+00 5.0008000000000003e+01 8.0000000000026716e-03
0.0000000000000000e+00 5.0000000000000000e+01 0.0000000000000000e+00
0.0000000000000000e+00 5.0000000000000000e+01 0.0000000000000000e+00
ITEM: ATOMS id type x y z c_1[1] c_1[2] c_1[3] c_1[4] c_1[5] c_1[6] c_1[7] c_1[22]
1 2 0.378665 0.321535 0 -6.01699e+08 -5.88739e+08 -0 5.81596e+07 -0 -0 1.34395e+09 -1.92505e+09
2 2 0 0 0 -7.77919e+08 -5.57653e+08 -0 -2.15684e+08 -0 -0 -1.92501e+09 -2.10491e+09
3 2 0.5 0 0 -5.76424e+08 -3.27989e+08 -0 1.33364e+08 -0 -0 -3.02955e+09 -2.65124e+08
4 2 8e-05 0.5 0 -2.97188e+08 -4.4111e+08 -0 1.46109e+08 -0 -0 3.14919e+08 -3.05029e+08
ITEM: TIMESTEP
17
ITEM: NUMBER OF ATOMS
4
ITEM: BOX BOUNDS xy xz yz pp pp pp
0.0000000000000000e+00 5.0008499999999998e+01 8.4999999999979536e-03
0.0000000000000000e+00 5.0000000000000000e+01 0.0000000000000000e+00
0.0000000000000000e+00 5.0000000000000000e+01 0.0000000000000000e+00
ITEM: ATOMS id type x y z c_1[1] c_1[2] c_1[3] c_1[4] c_1[5] c_1[6] c_1[7] c_1[22]
1 2 0.378669 0.321535 0 -6.01719e+08 -5.88755e+08 -0 5.81407e+07 -0 -0 1.34405e+09 -1.92543e+09
2 2 0 0 0 -7.77909e+08 -5.57661e+08 -0 -2.15704e+08 -0 -0 -1.92466e+09 -2.10528e+09
3 2 0.5 0 0 -5.7639e+08 -3.27991e+08 -0 1.33362e+08 -0 -0 -3.02931e+09 -2.65129e+08
4 2 8.5e-05 0.5 0 -2.97188e+08 -4.41105e+08 -0 1.46106e+08 -0 -0 3.14916e+08 -3.05017e+08
ITEM: TIMESTEP
18
ITEM: NUMBER OF ATOMS
4
ITEM: BOX BOUNDS xy xz yz pp pp pp
0.0000000000000000e+00 5.0009000000000000e+01 9.0000000000003411e-03
0.0000000000000000e+00 5.0000000000000000e+01 0.0000000000000000e+00
0.0000000000000000e+00 5.0000000000000000e+01 0.0000000000000000e+00
ITEM: ATOMS id type x y z c_1[1] c_1[2] c_1[3] c_1[4] c_1[5] c_1[6] c_1[7] c_1[22]
1 2 0.378672 0.321535 0 -6.01739e+08 -5.88771e+08 -0 5.81217e+07 -0 -0 1.34416e+09 -1.92581e+09
2 2 0 0 0 -7.779e+08 -5.57669e+08 -0 -2.15725e+08 -0 -0 -1.92432e+09 -2.10564e+09
3 2 0.5 0 0 -5.76355e+08 -3.27993e+08 -0 1.3336e+08 -0 -0 -3.02907e+09 -2.65134e+08
4 2 9e-05 0.5 0 -2.97188e+08 -4.41101e+08 -0 1.46103e+08 -0 -0 3.14913e+08 -3.05005e+08
ITEM: TIMESTEP
19
ITEM: NUMBER OF ATOMS
4
ITEM: BOX BOUNDS xy xz yz pp pp pp
0.0000000000000000e+00 5.0009500000000003e+01 9.5000000000027285e-03
0.0000000000000000e+00 5.0000000000000000e+01 0.0000000000000000e+00
0.0000000000000000e+00 5.0000000000000000e+01 0.0000000000000000e+00
ITEM: ATOMS id type x y z c_1[1] c_1[2] c_1[3] c_1[4] c_1[5] c_1[6] c_1[7] c_1[22]
1 2 0.378675 0.321535 0 -6.01759e+08 -5.88787e+08 -0 5.81028e+07 -0 -0 1.34426e+09 -1.92619e+09
2 2 0 0 0 -7.7789e+08 -5.57676e+08 -0 -2.15746e+08 -0 -0 -1.92398e+09 -2.106e+09
3 2 0.5 0 0 -5.76321e+08 -3.27995e+08 -0 1.33358e+08 -0 -0 -3.02884e+09 -2.6514e+08
4 2 9.5e-05 0.5 0 -2.97187e+08 -4.41097e+08 -0 1.461e+08 -0 -0 3.14911e+08 -3.04993e+08
ITEM: TIMESTEP
20
ITEM: NUMBER OF ATOMS
4
ITEM: BOX BOUNDS xy xz yz pp pp pp
0.0000000000000000e+00 5.0009999999999998e+01 9.9999999999980105e-03
0.0000000000000000e+00 5.0000000000000000e+01 0.0000000000000000e+00
0.0000000000000000e+00 5.0000000000000000e+01 0.0000000000000000e+00
ITEM: ATOMS id type x y z c_1[1] c_1[2] c_1[3] c_1[4] c_1[5] c_1[6] c_1[7] c_1[22]
1 2 0.378678 0.321535 0 -6.01779e+08 -5.88803e+08 -0 5.80839e+07 -0 -0 1.34436e+09 -1.92657e+09
2 2 0 0 0 -7.7788e+08 -5.57684e+08 -0 -2.15766e+08 -0 -0 -1.92364e+09 -2.10637e+09
3 2 0.5 0 0 -5.76286e+08 -3.27997e+08 -0 1.33356e+08 -0 -0 -3.0286e+09 -2.65145e+08
4 2 0.0001 0.5 0 -2.97187e+08 -4.41092e+08 -0 1.46097e+08 -0 -0 3.14908e+08 -3.04981e+08
