ITEM: TIMESTEP
0
ITEM: NUMBER OF ATOMS
3
ITEM: BOX BOUNDS xy xz yz pp pp pp
0.0000000000000000e+00 5.0000000000000000e+01 0.0000000000000000e+00
0.0000000000000000e+00 5.0000000000000000e+01 0.0000000000000000e+00
0.0000000000000000e+00 5.0000000000000000e+01 0.0000000000000000e+00
ITEM: ATOMS id type x y z c_1[1] c_1[2] c_1[3] c_1[4] c_1[5] c_1[6] c_1[7] c_1[22]
1 2 0.378614 0.321535 0 -2.96401e+08 -5.09853e+08 -0 -8.719e+07 -0 -0 9.8073e+08 -3.37356e+09
2 2 0 0 0 -7.67103e+08 -1.79847e+08 -0 -2.11774e+08 -0 -0 8.15616e+11 -1.44599e+09
3 2 0.5 0 0 -5.64768e+08 -3.30006e+08 -0 1.24584e+08 -0 -0 8.14086e+11 -1.92756e+09
ITEM: TIMESTEP
1
ITEM: NUMBER OF ATOMS
3
ITEM: BOX BOUNDS xy xz yz pp pp pp
0.0000000000000000e+00 5.0500000000000000e+01 5.0000000000000000e-01
0.0000000000000000e+00 5.0000000000000000e+01 0.0000000000000000e+00
0.0000000000000000e+00 5.0000000000000000e+01 0.0000000000000000e+00
ITEM: ATOMS id type x y z c_1[1] c_1[2] c_1[3] c_1[4] c_1[5] c_1[6] c_1[7] c_1[22]
1 2 0.381829 0.321535 0 -2.96401e+08 -5.09853e+08 -0 -8.719e+07 -0 -0 9.8073e+08 -3.37373e+09
2 2 0 0 0 -7.67103e+08 -1.79847e+08 -0 -2.11774e+08 -0 -0 8.15616e+11 -1.44617e+09
3 2 0.5 0 0 -5.64768e+08 -3.30006e+08 -0 1.24584e+08 -0 -0 8.14086e+11 -1.92756e+09
ITEM: TIMESTEP
2
ITEM: NUMBER OF ATOMS
3
ITEM: BOX BOUNDS xy xz yz pp pp pp
0.0000000000000000e+00 5.1000000000000000e+01 1.0000000000000000e+00
0.0000000000000000e+00 5.0000000000000000e+01 0.0000000000000000e+00
0.0000000000000000e+00 5.0000000000000000e+01 0.0000000000000000e+00
ITEM: ATOMS id type x y z c_1[1] c_1[2] c_1[3] c_1[4] c_1[5] c_1[6] c_1[7] c_1[22]
1 2 0.385045 0.321535 0 -3.14823e+08 -5.23627e+08 -0 -1.05233e+08 -0 -0 1.24352e+14 8.42165e+14
2 2 0 0 0 -7.56665e+08 -1.91427e+08 -0 -2.27324e+08 -0 -0 -1.86629e+17 8.30981e+12
3 2 0.5 0 0 -5.31584e+08 -3.322e+08 -0 1.22091e+08 -0 -0 -1.86528e+17 8.33855e+14
ITEM: TIMESTEP
3
ITEM: NUMBER OF ATOMS
3
ITEM: BOX BOUNDS xy xz yz pp pp pp
0.0000000000000000e+00 5.1500000000000000e+01 1.5000000000000000e+00
0.0000000000000000e+00 5.0000000000000000e+01 0.0000000000000000e+00
0.0000000000000000e+00 5.0000000000000000e+01 0.0000000000000000e+00
ITEM: ATOMS id type x y z c_1[1] c_1[2] c_1[3] c_1[4] c_1[5] c_1[6] c_1[7] c_1[22]
1 2 0.38826 0.321535 0 -3.36711e+08 -5.39354e+08 -0 -1.25944e+08 -0 -0 -2.95105e+19 -1.88412e+20
2 2 0 0 0 -7.50945e+08 -2.04994e+08 -0 -2.45485e+08 -0 -0 9.4121e+22 -4.15506e+18
3 2 0.5 0 0 -4.99711e+08 -3.3436e+08 -0 1.19541e+08 -0 -0 9.41034e+22 -1.84257e+20
ITEM: TIMESTEP
4
ITEM: NUMBER OF ATOMS
3
ITEM: BOX BOUNDS xy xz yz pp pp pp
0.0000000000000000e+00 5.2000000000000000e+01 2.0000000000000000e+00
0.0000000000000000e+00 5.0000000000000000e+01 0.0000000000000000e+00
0.0000000000000000e+00 5.0000000000000000e+01 0.0000000000000000e+00
ITEM: ATOMS id type x y z c_1[1] c_1[2] c_1[3] c_1[4] c_1[5] c_1[6] c_1[7] c_1[22]
1 2 0.391475 0.321535 0 -3.61898e+08 -5.56811e+08 -0 -1.49114e+08 -0 -0 1.21889e+25 9.06455e+25
2 2 0 0 0 -7.50458e+08 -2.20327e+08 -0 -2.66049e+08 -0 -0 -2.12008e+28 9.28392e+23
3 2 0.5 0 0 -4.69835e+08 -3.36484e+08 -0 1.16935e+08 -0 -0 -2.11913e+28 8.97171e+25
ITEM: TIMESTEP
5
ITEM: NUMBER OF ATOMS
3
ITEM: BOX BOUNDS xy xz yz pp pp pp
0.0000000000000000e+00 5.2500000000000000e+01 2.5000000000000000e+00
0.0000000000000000e+00 5.0000000000000000e+01 0.0000000000000000e+00
0.0000000000000000e+00 5.0000000000000000e+01 0.0000000000000000e+00
ITEM: ATOMS id type x y z c_1[1] c_1[2] c_1[3] c_1[4] c_1[5] c_1[6] c_1[7] c_1[22]
1 2 0.394691 0.321535 0 -3.90127e+08 -5.75731e+08 -0 -1.74474e+08 -0 -0 -2.89436e+30 -1.99218e+31
2 2 0 0 0 -7.557e+08 -2.37161e+08 -0 -2.88748e+08 -0 -0 1.05052e+34 -4.5663e+29
3 2 0.5 0 0 -4.42712e+08 -3.38571e+08 -0 1.14275e+08 -0 -0 1.05037e+34 -1.94651e+31
ITEM: TIMESTEP
6
ITEM: NUMBER OF ATOMS
3
ITEM: BOX BOUNDS xy xz yz pp pp pp
0.0000000000000000e+00 5.3000000000000000e+01 3.0000000000000000e+00
0.0000000000000000e+00 5.0000000000000000e+01 0.0000000000000000e+00
0.0000000000000000e+00 5.0000000000000000e+01 0.0000000000000000e+00
ITEM: ATOMS id type x y z c_1[1] c_1[2] c_1[3] c_1[4] c_1[5] c_1[6] c_1[7] c_1[22]
1 2 0.397906 0.321535 0 -4.21075e+08 -5.95817e+08 -0 -2.01704e+08 -0 -0 1.14463e+36 9.36628e+36
2 2 0 0 0 -7.67132e+08 -2.55199e+08 -0 -3.13263e+08 -0 -0 -2.31547e+39 9.99661e+34
3 2 0.5 0 0 -4.19133e+08 -3.40617e+08 -0 1.11559e+08 -0 -0 -2.31463e+39 9.26631e+36
ITEM: TIMESTEP
7
ITEM: NUMBER OF ATOMS
3
ITEM: BOX BOUNDS xy xz yz pp pp pp
0.0000000000000000e+00 5.3500000000000000e+01 3.5000000000000000e+00
0.0000000000000000e+00 5.0000000000000000e+01 0.0000000000000000e+00
0.0000000000000000e+00 5.0000000000000000e+01 0.0000000000000000e+00
ITEM: ATOMS id type x y z c_1[1] c_1[2] c_1[3] c_1[4] c_1[5] c_1[6] c_1[7] c_1[22]
1 2 0.401121 0.321535 0 -4.54354e+08 -6.16748e+08 -0 -2.30446e+08 -0 -0 -2.70727e+41 -2.00466e+42
2 2 0 0 0 -7.85118e+08 -2.74125e+08 -0 -3.39236e+08 -0 -0 1.11788e+45 -4.7963e+40
3 2 0.5 0 0 -3.9985e+08 -3.42623e+08 -0 1.0879e+08 -0 -0 1.11776e+45 -1.9567e+42
ITEM: TIMESTEP
8
ITEM: NUMBER OF ATOMS
3
ITEM: BOX BOUNDS xy xz yz pp pp pp
0.0000000000000000e+00 5.4000000000000000e+01 4.0000000000000000e+00
0.0000000000000000e+00 5.0000000000000000e+01 0.0000000000000000e+00
0.0000000000000000e+00 5.0000000000000000e+01 0.0000000000000000e+00
ITEM: ATOMS id type x y z c_1[1] c_1[2] c_1[3] c_1[4] c_1[5] c_1[6] c_1[7] c_1[22]
1 2 0.404337 0.321535 0 -4.89532e+08 -6.38195e+08 -0 -2.60315e+08 -0 -0 1.01197e+47 9.12492e+47
2 2 0 0 0 -8.09811e+08 -2.93608e+08 -0 -3.66282e+08 -0 -0 -2.38997e+50 1.01956e+46
3 2 0.5 0 0 -3.85453e+08 -3.44587e+08 -0 1.05968e+08 -0 -0 -2.38928e+50 9.02297e+47
ITEM: TIMESTEP
9
ITEM: NUMBER OF ATOMS
3
ITEM: BOX BOUNDS xy xz yz pp pp pp
0.0000000000000000e+00 5.4500000000000000e+01 4.5000000000000000e+00
0.0000000000000000e+00 5.0000000000000000e+01 0.0000000000000000e+00
0.0000000000000000e+00 5.0000000000000000e+01 0.0000000000000000e+00
ITEM: ATOMS id type x y z c_1[1] c_1[2] c_1[3] c_1[4] c_1[5] c_1[6] c_1[7] c_1[22]
1 2 0.407552 0.321535 0 -5.26139e+08 -6.59823e+08 -0 -2.9091e+08 -0 -0 -2.37325e+52 -1.88384e+53
2 2 0 0 0 -8.40941e+08 -3.13317e+08 -0 -3.94003e+08 -0 -0 1.11407e+56 -4.72724e+51
3 2 0.5 0 0 -3.76146e+08 -3.46506e+08 -0 1.03093e+08 -0 -0 1.11398e+56 -1.83657e+53
ITEM: TIMESTEP
10
ITEM: NUMBER OF ATOMS
3
ITEM: BOX BOUNDS xy xz yz pp pp pp
0.0000000000000000e+00 5.5000000000000000e+01 5.0000000000000000e+00
0.0000000000000000e+00 5.0000000000000000e+01 0.0000000000000000e+00
0.0000000000000000e+00 5.0000000000000000e+01 0.0000000000000000e+00
ITEM: ATOMS id type x y z c_1[1] c_1[2] c_1[3] c_1[4] c_1[5] c_1[6] c_1[7] c_1[22]
1 2 0.410767 0.321535 0 -5.6368e+08 -6.81304e+08 -0 -3.21823e+08 -0 -0 8.26712e+57 8.21897e+58
2 2 0 0 0 -8.77466e+08 -3.32925e+08 -0 -4.21989e+08 -0 -0 -2.28893e+61 9.66338e+56
3 2 0.5 0 0 -3.71385e+08 -3.48379e+08 -0 1.00166e+08 -0 -0 -2.28841e+61 8.12234e+58
ITEM: TIMESTEP
11
ITEM: NUMBER OF ATOMS
3
ITEM: BOX BOUNDS xy xz yz pp pp pp
0.0000000000000000e+00 5.5500000000000000e+01 5.5000000000000000e+00
0.0000000000000000e+00 5.0000000000000000e+01 0.0000000000000000e+00
0.0000000000000000e+00 5.0000000000000000e+01 0.0000000000000000e+00
ITEM: ATOMS id type x y z c_1[1] c_1[2] c_1[3] c_1[4] c_1[5] c_1[6] c_1[7] c_1[22]
1 2 0.413983 0.321535 0 -6.01646e+08 -7.02321e+08 -0 -3.52646e+08 -0 -0 -1.9146e+63 -1.6203e+64
2 2 0 0 0 -9.16972e+08 -3.52116e+08 -0 -4.49835e+08 -0 -0 1.02043e+67 -4.28722e+62
3 2 0.5 0 0 -3.6927e+08 -3.50206e+08 -0 9.71893e+07 -0 -0 1.02038e+67 -1.57743e+64
ITEM: TIMESTEP
12
ITEM: NUMBER OF ATOMS
3
ITEM: BOX BOUNDS xy xz yz pp pp pp
0.0000000000000000e+00 5.6000000000000000e+01 6.0000000000000000e+00
0.0000000000000000e+00 5.0000000000000000e+01 0.0000000000000000e+00
0.0000000000000000e+00 5.0000000000000000e+01 0.0000000000000000e+00
ITEM: ATOMS id type x y z c_1[1] c_1[2] c_1[3] c_1[4] c_1[5] c_1[6] c_1[7] c_1[22]
1 2 0.417198 0.321535 0 -6.39524e+08 -7.22575e+08 -0 -3.82982e+08 -0 -0 6.12178e+68 6.70476e+69
2 2 0 0 0 -9.56632e+08 -3.70592e+08 -0 -4.77145e+08 -0 -0 -1.99513e+72 8.34328e+67
3 2 0.5 0 0 -3.67488e+08 -3.51983e+08 -0 9.41628e+07 -0 -0 -1.99479e+72 6.62133e+69
ITEM: TIMESTEP
13
ITEM: NUMBER OF ATOMS
3
ITEM: BOX BOUNDS xy xz yz pp pp pp
0.0000000000000000e+00 5.6500000000000000e+01 6.5000000000000000e+00
0.0000000000000000e+00 5.0000000000000000e+01 0.0000000000000000e+00
0.0000000000000000e+00 5.0000000000000000e+01 0.0000000000000000e+00
ITEM: ATOMS id type x y z c_1[1] c_1[2] c_1[3] c_1[4] c_1[5] c_1[6] c_1[7] c_1[22]
1 2 0.420414 0.321535 0 -6.76807e+08 -7.41786e+08 -0 -4.12449e+08 -0 -0 -1.39514e+74 -1.2489e+75
2 2 0 0 0 -9.95648e+08 -3.88076e+08 -0 -5.03537e+08 -0 -0 8.42003e+77 -3.50541e+73
3 2 0.5 0 0 -3.65755e+08 -3.5371e+08 -0 9.10877e+07 -0 -0 8.41981e+77 -1.21385e+75
ITEM: TIMESTEP
14
ITEM: NUMBER OF ATOMS
3
ITEM: BOX BOUNDS xy xz yz pp pp pp
0.0000000000000000e+00 5.7000000000000000e+01 7.0000000000000000e+00
0.0000000000000000e+00 5.0000000000000000e+01 0.0000000000000000e+00
0.0000000000000000e+00 5.0000000000000000e+01 0.0000000000000000e+00
ITEM: ATOMS id type x y z c_1[1] c_1[2] c_1[3] c_1[4] c_1[5] c_1[6] c_1[7] c_1[22]
1 2 0.423629 0.321535 0 -7.13e+08 -7.59703e+08 -0 -4.40689e+08 -0 -0 4.02827e+79 4.8464e+80
2 2 0 0 0 -1.03352e+09 -4.04318e+08 -0 -5.28654e+08 -0 -0 -1.54987e+83 6.42489e+78
3 2 0.5 0 0 -3.64071e+08 -3.55386e+08 -0 8.79653e+07 -0 -0 -1.54969e+83 4.78215e+80
ITEM: TIMESTEP
15
ITEM: NUMBER OF ATOMS
3
ITEM: BOX BOUNDS xy xz yz pp pp pp
0.0000000000000000e+00 5.7500000000000000e+01 7.5000000000000000e+00
0.0000000000000000e+00 5.0000000000000000e+01 0.0000000000000000e+00
0.0000000000000000e+00 5.0000000000000000e+01 0.0000000000000000e+00
ITEM: ATOMS id type x y z c_1[1] c_1[2] c_1[3] c_1[4] c_1[5] c_1[6] c_1[7] c_1[22]
1 2 0.426844 0.321535 0 -7.47629e+08 -7.76101e+08 -0 -4.67368e+08 -0 -0 -9.0019e+84 -8.43158e+85
2 2 0 0 0 -1.06979e+09 -4.19093e+08 -0 -5.52164e+08 -0 -0 6.12243e+88 -2.52769e+84
3 2 0.5 0 0 -3.62439e+08 -3.57008e+08 -0 8.47968e+07 -0 -0 6.12241e+88 -8.17881e+85
ITEM: TIMESTEP
16
ITEM: NUMBER OF ATOMS
3
ITEM: BOX BOUNDS xy xz yz pp pp pp
0.0000000000000000e+00 5.8000000000000000e+01 8.0000000000000000e+00
0.0000000000000000e+00 5.0000000000000000e+01 0.0000000000000000e+00
0.0000000000000000e+00 5.0000000000000000e+01 0.0000000000000000e+00
ITEM: ATOMS id type x y z c_1[1] c_1[2] c_1[3] c_1[4] c_1[5] c_1[6] c_1[7] c_1[22]
1 2 0.43006 0.321535 0 -7.8025e+08 -7.90785e+08 -0 -4.92184e+08 -0 -0 2.30621e+90 3.03022e+91
2 2 0 0 0 -1.10399e+09 -4.32209e+08 -0 -5.73767e+08 -0 -0 -1.04848e+94 4.31202e+89
3 2 0.5 0 0 -3.6086e+08 -3.58575e+08 -0 8.15833e+07 -0 -0 -1.0484e+94 2.9871e+91
ITEM: TIMESTEP
17
ITEM: NUMBER OF ATOMS
3
ITEM: BOX BOUNDS xy xz yz pp pp pp
0.0000000000000000e+00 5.8500000000000000e+01 8.5000000000000000e+00
0.0000000000000000e+00 5.0000000000000000e+01 0.0000000000000000e+00
0.0000000000000000e+00 5.0000000000000000e+01 0.0000000000000000e+00
ITEM: ATOMS id type x y z c_1[1] c_1[2] c_1[3] c_1[4] c_1[5] c_1[6] c_1[7] c_1[22]
1 2 0.433275 0.321535 0 -8.10449e+08 -8.0359e+08 -0 -5.14869e+08 -0 -0 -5.03294e+95 -4.86162e+96
2 2 0 0 0 -1.13571e+09 -4.43503e+08 -0 -5.93195e+08 -0 -0 3.82903e+99 -1.569e+95
3 2 0.5 0 0 -3.59335e+08 -3.60087e+08 -0 7.83263e+07 -0 -0 3.82909e+99 -4.70472e+96
ITEM: TIMESTEP
18
ITEM: NUMBER OF ATOMS
3
ITEM: BOX BOUNDS xy xz yz pp pp pp
0.0000000000000000e+00 5.9000000000000000e+01 9.0000000000000000e+00
0.0000000000000000e+00 5.0000000000000000e+01 0.0000000000000000e+00
0.0000000000000000e+00 5.0000000000000000e+01 0.0000000000000000e+00
ITEM: ATOMS id type x y z c_1[1] c_1[2] c_1[3] c_1[4] c_1[5] c_1[6] c_1[7] c_1[22]
1 2 0.43649 0.321535 0 -8.37851e+08 -8.14385e+08 -0 -5.35191e+08 -0 -0 1.12327e+101 1.596e+102
2 2 0 0 0 -1.16458e+09 -4.52845e+08 -0 -6.10218e+08 -0 -0 -6.02218e+104 2.45919e+100
3 2 0.5 0 0 -3.57867e+08 -3.61541e+08 -0 7.50272e+07 -0 -0 -6.02195e+104 1.57141e+102
ITEM: TIMESTEP
19
ITEM: NUMBER OF ATOMS
3
ITEM: BOX BOUNDS xy xz yz pp pp pp
0.0000000000000000e+00 5.9500000000000000e+01 9.5000000000000000e+00
0.0000000000000000e+00 5.0000000000000000e+01 0.0000000000000000e+00
0.0000000000000000e+00 5.0000000000000000e+01 0.0000000000000000e+00
ITEM: ATOMS id type x y z c_1[1] c_1[2] c_1[3] c_1[4] c_1[5] c_1[6] c_1[7] c_1[22]
1 2 0.439706 0.321535 0 -8.62121e+08 -8.23068e+08 -0 -5.52952e+08 -0 -0 -2.38133e+106 -2.32862e+107
2 2 0 0 0 -1.19026e+09 -4.60132e+08 -0 -6.2464e+08 -0 -0 2.00591e+110 -8.16492e+105
3 2 0.5 0 0 -3.56457e+08 -3.62936e+08 -0 7.16873e+07 -0 -0 2.00598e+110 -2.24697e+107
ITEM: TIMESTEP
20
ITEM: NUMBER OF ATOMS
3
ITEM: BOX BOUNDS xy xz yz pp pp pp
0.0000000000000000e+00 6.0000000000000000e+01 1.0000000000000000e+01
0.0000000000000000e+00 5.0000000000000000e+01 0.0000000000000000e+00
0.0000000000000000e+00 5.0000000000000000e+01 0.0000000000000000e+00
ITEM: ATOMS id type x y z c_1[1] c_1[2] c_1[3] c_1[4] c_1[5] c_1[6] c_1[7] c_1[22]
1 2 0.442921 0.321535 0 -8.82968e+08 -8.29568e+08 -0 -5.67995e+08 -0 -0 4.54573e+111 6.8775e+112
2 2 0 0 0 -1.21246e+09 -4.65297e+08 -0 -6.36303e+08 -0 -0 -2.85675e+115 1.15934e+111
3 2 0.5 0 0 -3.55107e+08 -3.64271e+08 -0 6.83083e+07 -0 -0 -2.85673e+115 6.76157e+112
ITEM: TIMESTEP
21
ITEM: NUMBER OF ATOMS
3
ITEM: BOX BOUNDS xy xz yz pp pp pp
0.0000000000000000e+00 6.0500000000000000e+01 1.0500000000000000e+01
0.0000000000000000e+00 5.0000000000000000e+01 0.0000000000000000e+00
0.0000000000000000e+00 5.0000000000000000e+01 0.0000000000000000e+00
ITEM: ATOMS id type x y z c_1[1] c_1[2] c_1[3] c_1[4] c_1[5] c_1[6] c_1[7] c_1[22]
1 2 0.446136 0.321535 0 -9.00143e+08 -8.33841e+08 -0 -5.80197e+08 -0 -0 -9.29025e+116 -8.98679e+117
2 2 0 0 0 -1.23092e+09 -4.68297e+08 -0 -6.45089e+08 -0 -0 8.55171e+120 -3.46088e+116
3 2 0.5 0 0 -3.53817e+08 -3.65544e+08 -0 6.48917e+07 -0 -0 8.55209e+120 -8.6407e+117
ITEM: TIMESTEP
22
ITEM: NUMBER OF ATOMS
3
ITEM: BOX BOUNDS xy xz yz pp pp pp
0.0000000000000000e+00 6.1000000000000000e+01 1.1000000000000000e+01
0.0000000000000000e+00 5.0000000000000000e+01 0.0000000000000000e+00
0.0000000000000000e+00 5.0000000000000000e+01 0.0000000000000000e+00
ITEM: ATOMS id type x y z c_1[1] c_1[2] c_1[3] c_1[4] c_1[5] c_1[6] c_1[7] c_1[22]
1 2 0.449352 0.321535 0 -9.13445e+08 -8.35873e+08 -0 -5.89472e+08 -0 -0 1.49055e+122 2.34792e+123
2 2 0 0 0 -1.24545e+09 -4.69118e+08 -0 -6.50911e+08 -0 -0 -1.08595e+126 4.38369e+121
3 2 0.5 0 0 -3.5259e+08 -3.66755e+08 -0 6.14391e+07 -0 -0 -1.08597e+126 2.30409e+123
ITEM: TIMESTEP
23
ITEM: NUMBER OF ATOMS
3
ITEM: BOX BOUNDS xy xz yz pp pp pp
0.0000000000000000e+00 6.1500000000000000e+01 1.1500000000000000e+01
0.0000000000000000e+00 5.0000000000000000e+01 0.0000000000000000e+00
0.0000000000000000e+00 5.0000000000000000e+01 0.0000000000000000e+00
ITEM: ATOMS id type x y z c_1[1] c_1[2] c_1[3] c_1[4] c_1[5] c_1[6] c_1[7] c_1[22]
1 2 0.452567 0.321535 0 -9.22715e+08 -8.35673e+08 -0 -5.95767e+08 -0 -0 -2.90281e+127 -2.70157e+128
2 2 0 0 0 -1.25588e+09 -4.6777e+08 -0 -6.53719e+08 -0 -0 2.87471e+131 -1.15777e+127
3 2 0.5 0 0 -3.51426e+08 -3.67903e+08 -0 5.79523e+07 -0 -0 2.87487e+131 -2.5858e+128
ITEM: TIMESTEP
24
ITEM: NUMBER OF ATOMS
3
ITEM: BOX BOUNDS xy xz yz pp pp pp
0.0000000000000000e+00 6.2000000000000000e+01 1.2000000000000000e+01
0.0000000000000000e+00 5.0000000000000000e+01 0.0000000000000000e+00
0.0000000000000000e+00 5.0000000000000000e+01 0.0000000000000000e+00
ITEM: ATOMS id type x y z c_1[1] c_1[2] c_1[3] c_1[4] c_1[5] c_1[6] c_1[7] c_1[22]
1 2 0.455782 0.321535 0 -9.2784e+08 -8.33274e+08 -0 -5.99064e+08 -0 -0 3.85339e+132 6.1264e+133
2 2 0 0 0 -1.26211e+09 -4.64289e+08 -0 -6.53497e+08 -0 -0 -3.20023e+136 1.28621e+132
3 2 0.5 0 0 -3.50328e+08 -3.68985e+08 -0 5.4433e+07 -0 -0 -3.20035e+136 5.99778e+133
ITEM: TIMESTEP
25
ITEM: NUMBER OF ATOMS
3
ITEM: BOX BOUNDS xy xz yz pp pp pp
0.0000000000000000e+00 6.2500000000000000e+01 1.2500000000000000e+01
0.0000000000000000e+00 5.0000000000000000e+01 0.0000000000000000e+00
0.0000000000000000e+00 5.0000000000000000e+01 0.0000000000000000e+00
ITEM: ATOMS id type x y z c_1[1] c_1[2] c_1[3] c_1[4] c_1[5] c_1[6] c_1[7] c_1[22]
1 2 0.458998 0.321535 0 -9.28748e+08 -8.28729e+08 -0 -5.99372e+08 -0 -0 -7.02834e+137 -6.09096e+138
2 2 0 0 0 -1.26405e+09 -4.58727e+08 -0 -6.50255e+08 -0 -0 7.35905e+141 -2.9523e+137
3 2 0.5 0 0 -3.49295e+08 -3.70002e+08 -0 5.08829e+07 -0 -0 7.35953e+141 -5.79573e+138
ITEM: TIMESTEP
26
ITEM: NUMBER OF ATOMS
3
ITEM: BOX BOUNDS xy xz yz pp pp pp
0.0000000000000000e+00 6.3000000000000000e+01 1.3000000000000000e+01
0.0000000000000000e+00 5.0000000000000000e+01 0.0000000000000000e+00
0.0000000000000000e+00 5.0000000000000000e+01 0.0000000000000000e+00
ITEM: ATOMS id type x y z c_1[1] c_1[2] c_1[3] c_1[4] c_1[5] c_1[6] c_1[7] c_1[22]
1 2 0.462213 0.321535 0 -9.25408e+08 -8.22108e+08 -0 -5.96732e+08 -0 -0 7.61465e+142 1.17315e+144
2 2 0 0 0 -1.26167e+09 -4.51157e+08 -0 -6.44036e+08 -0 -0 -7.04798e+146 2.82304e+142
3 2 0.5 0 0 -3.4833e+08 -3.70951e+08 -0 4.7304e+07 -0 -0 -7.04837e+146 1.14492e+144
ITEM: TIMESTEP
27
ITEM: NUMBER OF ATOMS
3
ITEM: BOX BOUNDS xy xz yz pp pp pp
0.0000000000000000e+00 6.3500000000000000e+01 1.3500000000000000e+01
0.0000000000000000e+00 5.0000000000000000e+01 0.0000000000000000e+00
0.0000000000000000e+00 5.0000000000000000e+01 0.0000000000000000e+00
ITEM: ATOMS id type x y z c_1[1] c_1[2] c_1[3] c_1[4] c_1[5] c_1[6] c_1[7] c_1[22]
1 2 0.465428 0.321535 0 -9.17825e+08 -8.135e+08 -0 -5.91207e+08 -0 -0 -1.2694e+148 -9.86373e+148
2 2 0 0 0 -1.25499e+09 -4.41666e+08 -0 -6.34905e+08 -0 -0 1.38008e+152 -5.52049e+147
3 2 0.5 0 0 -3.47433e+08 -3.71833e+08 -0 4.36981e+07 -0 -0 1.38018e+152 -9.31168e+148
ITEM: TIMESTEP
28
ITEM: NUMBER OF ATOMS
3
ITEM: BOX BOUNDS xy xz yz pp pp pp
0.0000000000000000e+00 6.4000000000000000e+01 1.4000000000000000e+01
0.0000000000000000e+00 5.0000000000000000e+01 0.0000000000000000e+00
0.0000000000000000e+00 5.0000000000000000e+01 0.0000000000000000e+00
ITEM: ATOMS id type x y z c_1[1] c_1[2] c_1[3] c_1[4] c_1[5] c_1[6] c_1[7] c_1[22]
1 2 0.468644 0.321535 0 -9.06041e+08 -8.03002e+08 -0 -5.82883e+08 -0 -0 1.10877e+153 1.57286e+154
2 2 0 0 0 -1.24403e+09 -4.30356e+08 -0 -6.2295e+08 -0 -0 -1.11327e+157 4.44839e+152
3 2 0.5 0 0 -3.46606e+08 -3.72646e+08 -0 4.00672e+07 -0 -0 -1.11334e+157 1.52837e+154
ITEM: TIMESTEP
29
ITEM: NUMBER OF ATOMS
3
ITEM: BOX BOUNDS xy xz yz pp pp pp
0.0000000000000000e+00 6.4500000000000000e+01 1.4500000000000000e+01
0.0000000000000000e+00 5.0000000000000000e+01 0.0000000000000000e+00
0.0000000000000000e+00 5.0000000000000000e+01 0.0000000000000000e+00
ITEM: ATOMS id type x y z c_1[1] c_1[2] c_1[3] c_1[4] c_1[5] c_1[6] c_1[7] c_1[22]
1 2 0.471859 0.321535 0 -8.9013e+08 -7.90727e+08 -0 -5.71866e+08 -0 -0 -1.63599e+158 -1.09067e+159
2 2 0 0 0 -1.22888e+09 -4.17338e+08 -0 -6.08279e+08 -0 -0 1.81472e+162 -7.24524e+157
3 2 0.5 0 0 -3.45849e+08 -3.7339e+08 -0 3.64132e+07 -0 -0 1.81486e+162 -1.01822e+159
ITEM: TIMESTEP
30
ITEM: NUMBER OF ATOMS
3
ITEM: BOX BOUNDS xy xz yz pp pp pp
0.0000000000000000e+00 6.5000000000000000e+01 1.5000000000000000e+01
0.0000000000000000e+00 5.0000000000000000e+01 0.0000000000000000e+00
0.0000000000000000e+00 5.0000000000000000e+01 0.0000000000000000e+00
ITEM: ATOMS id type x y z c_1[1] c_1[2] c_1[3] c_1[4] c_1[5] c_1[6] c_1[7] c_1[22]
1 2 0.475074 0.321535 0 -8.70194e+08 -7.76794e+08 -0 -5.58278e+08 -0 -0 1.13732e+163 1.39541e+164
2 2 0 0 0 -1.20963e+09 -4.02731e+08 -0 -5.91016e+08 -0 -0 -1.20339e+167 4.80176e+162
3 2 0.5 0 0 -3.45163e+08 -3.74063e+08 -0 3.27383e+07 -0 -0 -1.20348e+167 1.34739e+164
ITEM: TIMESTEP
31
ITEM: NUMBER OF ATOMS
3
ITEM: BOX BOUNDS xy xz yz pp pp pp
0.0000000000000000e+00 6.5500000000000000e+01 1.5500000000000000e+01
0.0000000000000000e+00 5.0000000000000000e+01 0.0000000000000000e+00
0.0000000000000000e+00 5.0000000000000000e+01 0.0000000000000000e+00
ITEM: ATOMS id type x y z c_1[1] c_1[2] c_1[3] c_1[4] c_1[5] c_1[6] c_1[7] c_1[22]
1 2 0.47829 0.321535 0 -8.46362e+08 -7.61327e+08 -0 -5.42257e+08 -0 -0 -1.42794e+168 -7.74181e+168
2 2 0 0 0 -1.18641e+09 -3.86662e+08 -0 -5.71301e+08 -0 -0 1.59073e+172 -6.34535e+167
3 2 0.5 0 0 -3.44549e+08 -3.74665e+08 -0 2.90443e+07 -0 -0 1.59087e+172 -7.10728e+168
ITEM: TIMESTEP
32
ITEM: NUMBER OF ATOMS
3
ITEM: BOX BOUNDS xy xz yz pp pp pp
0.0000000000000000e+00 6.6000000000000000e+01 1.6000000000000000e+01
0.0000000000000000e+00 5.0000000000000000e+01 0.0000000000000000e+00
0.0000000000000000e+00 5.0000000000000000e+01 0.0000000000000000e+00
ITEM: ATOMS id type x y z c_1[1] c_1[2] c_1[3] c_1[4] c_1[5] c_1[6] c_1[7] c_1[22]
1 2 0.481505 0.321535 0 -8.18783e+08 -7.44457e+08 -0 -5.23951e+08 -0 -0 7.77089e+172 7.62751e+173
2 2 0 0 0 -1.15937e+09 -3.69261e+08 -0 -5.49284e+08 -0 -0 -8.42796e+176 3.36169e+172
3 2 0.5 0 0 -3.44008e+08 -3.75196e+08 -0 2.53335e+07 -0 -0 -8.42868e+176 7.29135e+173
ITEM: TIMESTEP
33
ITEM: NUMBER OF ATOMS
3
ITEM: BOX BOUNDS xy xz yz pp pp pp
0.0000000000000000e+00 6.6500000000000000e+01 1.6500000000000000e+01
0.0000000000000000e+00 5.0000000000000000e+01 0.0000000000000000e+00
0.0000000000000000e+00 5.0000000000000000e+01 0.0000000000000000e+00
ITEM: ATOMS id type x y z c_1[1] c_1[2] c_1[3] c_1[4] c_1[5] c_1[6] c_1[7] c_1[22]
1 2 0.48472 0.321535 0 -7.87628e+08 -7.26317e+08 -0 -5.03516e+08 -0 -0 -7.93107e+177 -3.25646e+178
2 2 0 0 0 -1.12868e+09 -3.50662e+08 -0 -5.25124e+08 -0 -0 8.75711e+181 -3.49371e+177
3 2 0.5 0 0 -3.43541e+08 -3.75655e+08 -0 2.16079e+07 -0 -0 8.75788e+181 -2.90709e+178
ITEM: TIMESTEP
34
ITEM: NUMBER OF ATOMS
3
ITEM: BOX BOUNDS xy xz yz pp pp pp
0.0000000000000000e+00 6.7000000000000000e+01 1.7000000000000000e+01
0.0000000000000000e+00 5.0000000000000000e+01 0.0000000000000000e+00
0.0000000000000000e+00 5.0000000000000000e+01 0.0000000000000000e+00
ITEM: ATOMS id type x y z c_1[1] c_1[2] c_1[3] c_1[4] c_1[5] c_1[6] c_1[7] c_1[22]
1 2 0.487936 0.321535 0 -7.53083e+08 -7.07039e+08 -0 -4.81118e+08 -0 -0 3.29831e+182 2.32631e+183
2 2 0 0 0 -1.09453e+09 -3.30998e+08 -0 -4.98987e+08 -0 -0 -3.58173e+186 1.42963e+182
3 2 0.5 0 0 -3.43147e+08 -3.76041e+08 -0 1.78697e+07 -0 -0 -3.58205e+186 2.18335e+183
ITEM: TIMESTEP
35
ITEM: NUMBER OF ATOMS
3
ITEM: BOX BOUNDS xy xz yz pp pp pp
0.0000000000000000e+00 6.7500000000000000e+01 1.7500000000000000e+01
0.0000000000000000e+00 5.0000000000000000e+01 0.0000000000000000e+00
0.0000000000000000e+00 5.0000000000000000e+01 0.0000000000000000e+00
ITEM: ATOMS id type x y z c_1[1] c_1[2] c_1[3] c_1[4] c_1[5] c_1[6] c_1[7] c_1[22]
1 2 0.491151 0.321535 0 -7.15349e+08 -6.86757e+08 -0 -4.56923e+08 -0 -0 -2.59859e+187 -7.22757e+187
2 2 0 0 0 -1.05712e+09 -3.10403e+08 -0 -4.71044e+08 -0 -0 2.81565e+191 -1.12468e+187
3 2 0.5 0 0 -3.42827e+08 -3.76354e+08 -0 1.41211e+07 -0 -0 2.81591e+191 -6.10289e+187
ITEM: TIMESTEP
36
ITEM: NUMBER OF ATOMS
3
ITEM: BOX BOUNDS xy xz yz pp pp pp
0.0000000000000000e+00 6.8000000000000000e+01 1.8000000000000000e+01
0.0000000000000000e+00 5.0000000000000000e+01 0.0000000000000000e+00
0.0000000000000000e+00 5.0000000000000000e+01 0.0000000000000000e+00
ITEM: ATOMS id type x y z c_1[1] c_1[2] c_1[3] c_1[4] c_1[5] c_1[6] c_1[7] c_1[22]
1 2 0.494366 0.321535 0 -6.74634e+08 -6.65601e+08 -0 -4.31102e+08 -0 -0 7.96854e+191 3.34941e+192
2 2 0 0 0 -1.01665e+09 -2.89008e+08 -0 -4.41466e+08 -0 -0 -8.5167e+195 3.40534e+191
3 2 0.5 0 0 -3.42583e+08 -3.76593e+08 -0 1.03641e+07 -0 -0 -8.51749e+195 3.00888e+192
ITEM: TIMESTEP
37
ITEM: NUMBER OF ATOMS
3
ITEM: BOX BOUNDS xy xz yz pp pp pp
0.0000000000000000e+00 6.8500000000000000e+01 1.8500000000000000e+01
0.0000000000000000e+00 5.0000000000000000e+01 0.0000000000000000e+00
0.0000000000000000e+00 5.0000000000000000e+01 0.0000000000000000e+00
ITEM: ATOMS id type x y z c_1[1] c_1[2] c_1[3] c_1[4] c_1[5] c_1[6] c_1[7] c_1[22]
1 2 0.497582 0.321535 0 -6.31157e+08 -6.43701e+08 -0 -4.03827e+08 -0 -0 -4.56725e+196 -6.81684e+196
2 2 0 0 0 -9.73339e+08 -2.66941e+08 -0 -4.10428e+08 -0 -0 4.82422e+200 -1.93139e+196
3 2 0.5 0 0 -3.42413e+08 -3.7676e+08 -0 6.6011e+06 -0 -0 4.82468e+200 -4.88545e+196
ITEM: TIMESTEP
38
ITEM: NUMBER OF ATOMS
3
ITEM: BOX BOUNDS xy xz yz pp pp pp
0.0000000000000000e+00 6.9000000000000000e+01 1.9000000000000000e+01
0.0000000000000000e+00 5.0000000000000000e+01 0.0000000000000000e+00
0.0000000000000000e+00 5.0000000000000000e+01 0.0000000000000000e+00
ITEM: ATOMS id type x y z c_1[1] c_1[2] c_1[3] c_1[4] c_1[5] c_1[6] c_1[7] c_1[22]
1 2 0.500797 0.321535 0 -5.85142e+08 -6.21179e+08 -0 -3.75267e+08 -0 -0 9.79783e+200 1.39448e+201
2 2 0 0 0 -9.27418e+08 -2.44327e+08 -0 -3.78102e+08 -0 -0 -1.02028e+205 4.09102e+200
3 2 0.5 0 0 -3.42319e+08 -3.76852e+08 -0 2.8342e+06 -0 -0 -1.02038e+205 9.85382e+200
ITEM: TIMESTEP
39
ITEM: NUMBER OF ATOMS
3
ITEM: BOX BOUNDS xy xz yz pp pp pp
0.0000000000000000e+00 6.9500000000000000e+01 1.9500000000000000e+01
0.0000000000000000e+00 5.0000000000000000e+01 0.0000000000000000e+00
0.0000000000000000e+00 5.0000000000000000e+01 0.0000000000000000e+00
ITEM: ATOMS id type x y z c_1[1] c_1[2] c_1[3] c_1[4] c_1[5] c_1[6] c_1[7] c_1[22]
1 2 0.504013 0.321535 0 -5.36813e+08 -5.98156e+08 -0 -3.45591e+08 -0 -0 -3.80077e+205 -1.00775e+205
2 2 0 0 0 -8.79109e+08 -2.21286e+08 -0 -3.44657e+08 -0 -0 3.90034e+209 -1.56676e+205
3 2 0.5 0 0 -3.423e+08 -3.76871e+08 -0 -934368 -0 -0 3.90072e+209 5.59011e+204
ITEM: TIMESTEP
40
ITEM: NUMBER OF ATOMS
3
ITEM: BOX BOUNDS xy xz yz pp pp pp
0.0000000000000000e+00 7.0000000000000000e+01 2.0000000000000000e+01
0.0000000000000000e+00 5.0000000000000000e+01 0.0000000000000000e+00
0.0000000000000000e+00 5.0000000000000000e+01 0.0000000000000000e+00
ITEM: ATOMS id type x y z c_1[1] c_1[2] c_1[3] c_1[4] c_1[5] c_1[6] c_1[7] c_1[22]
1 2 0.507228 0.321535 0 -4.86399e+08 -5.74746e+08 -0 -3.14963e+08 -0 -0 5.2764e+209 -6.40292e+209
2 2 0 0 0 -8.28638e+08 -1.97931e+08 -0 -3.10261e+08 -0 -0 -5.33597e+213 2.14793e+209
3 2 0.5 0 0 -3.42356e+08 -3.76815e+08 -0 -4.70238e+06 -0 -0 -5.33649e+213 -8.55085e+209
ITEM: TIMESTEP
41
ITEM: NUMBER OF ATOMS
3
ITEM: BOX BOUNDS xy xz yz pp pp pp
0.0000000000000000e+00 7.0500000000000000e+01 2.0500000000000000e+01
0.0000000000000000e+00 5.0000000000000000e+01 0.0000000000000000e+00
0.0000000000000000e+00 5.0000000000000000e+01 0.0000000000000000e+00
ITEM: ATOMS id type x y z c_1[1] c_1[2] c_1[3] c_1[4] c_1[5] c_1[6] c_1[7] c_1[22]
1 2 0.510443 0.321535 0 -4.34125e+08 -5.51057e+08 -0 -2.83541e+08 -0 -0 -1.2571e+214 1.12209e+214
2 2 0 0 0 -7.76233e+08 -1.74371e+08 -0 -2.75074e+08 -0 -0 1.25278e+218 -5.0548e+213
3 2 0.5 0 0 -3.42488e+08 -3.76686e+08 -0 -8.46764e+06 -0 -0 1.2529e+218 1.62757e+214
ITEM: TIMESTEP
42
ITEM: NUMBER OF ATOMS
3
ITEM: BOX BOUNDS xy xz yz pp pp pp
0.0000000000000000e+00 7.1000000000000000e+01 2.1000000000000000e+01
0.0000000000000000e+00 5.0000000000000000e+01 0.0000000000000000e+00
0.0000000000000000e+00 5.0000000000000000e+01 0.0000000000000000e+00
ITEM: ATOMS id type x y z c_1[1] c_1[2] c_1[3] c_1[4] c_1[5] c_1[6] c_1[7] c_1[22]
1 2 0.513659 0.321535 0 -3.80216e+08 -5.27192e+08 -0 -2.51481e+08 -0 -0 1.00098e+218 -3.71177e+218
2 2 0 0 0 -7.22116e+08 -1.50708e+08 -0 -2.39253e+08 -0 -0 -9.86038e+221 3.98901e+217
3 2 0.5 0 0 -3.42695e+08 -3.76484e+08 -0 -1.22279e+07 -0 -0 -9.86139e+221 -4.11067e+218
ITEM: TIMESTEP
43
ITEM: NUMBER OF ATOMS
3
ITEM: BOX BOUNDS xy xz yz pp pp pp
0.0000000000000000e+00 7.1500000000000000e+01 2.1500000000000000e+01
0.0000000000000000e+00 5.0000000000000000e+01 0.0000000000000000e+00
0.0000000000000000e+00 5.0000000000000000e+01 0.0000000000000000e+00
ITEM: ATOMS id type x y z c_1[1] c_1[2] c_1[3] c_1[4] c_1[5] c_1[6] c_1[7] c_1[22]
1 2 0.516874 0.321535 0 -3.2489e+08 -5.03246e+08 -0 -2.18928e+08 -0 -0 -1.26119e+222 2.50491e+222
2 2 0 0 0 -6.66509e+08 -1.27038e+08 -0 -2.02947e+08 -0 -0 1.22325e+226 -4.96303e+221
3 2 0.5 0 0 -3.42976e+08 -3.76208e+08 -0 -1.5981e+07 -0 -0 1.22338e+226 3.00121e+222
ITEM: TIMESTEP
44
ITEM: NUMBER OF ATOMS
3
ITEM: BOX BOUNDS xy xz yz pp pp pp
0.0000000000000000e+00 7.2000000000000000e+01 2.2000000000000000e+01
0.0000000000000000e+00 5.0000000000000000e+01 0.0000000000000000e+00
0.0000000000000000e+00 5.0000000000000000e+01 0.0000000000000000e+00
ITEM: ATOMS id type x y z c_1[1] c_1[2] c_1[3] c_1[4] c_1[5] c_1[6] c_1[7] c_1[22]
1 2 0.520089 0.321535 0 -2.68363e+08 -4.79308e+08 -0 -1.86023e+08 -0 -0 4.68088e+225 -2.86463e+226
2 2 0 0 0 -6.09626e+08 -1.0345e+08 -0 -1.66298e+08 -0 -0 -4.5303e+229 1.84389e+225
3 2 0.5 0 0 -3.43333e+08 -3.75858e+08 -0 -1.97248e+07 -0 -0 -4.53078e+229 -3.04902e+226
ITEM: TIMESTEP
45
ITEM: NUMBER OF ATOMS
3
ITEM: BOX BOUNDS xy xz yz pp pp pp
0.0000000000000000e+00 7.2500000000000000e+01 2.2500000000000000e+01
0.0000000000000000e+00 5.0000000000000000e+01 0.0000000000000000e+00
0.0000000000000000e+00 5.0000000000000000e+01 0.0000000000000000e+00
ITEM: ATOMS id type x y z c_1[1] c_1[2] c_1[3] c_1[4] c_1[5] c_1[6] c_1[7] c_1[22]
1 2 0.523305 0.321535 0 -2.10843e+08 -4.55462e+08 -0 -1.529e+08 -0 -0 -2.35621e+229 7.14222e+229
2 2 0 0 0 -5.51675e+08 -8.00257e+07 -0 -1.29443e+08 -0 -0 2.23443e+233 -9.12581e+228
3 2 0.5 0 0 -3.43763e+08 -3.75436e+08 -0 -2.3457e+07 -0 -0 2.23467e+233 8.05481e+229
ITEM: TIMESTEP
46
ITEM: NUMBER OF ATOMS
3
ITEM: BOX BOUNDS xy xz yz pp pp pp
0.0000000000000000e+00 7.3000000000000000e+01 2.3000000000000000e+01
0.0000000000000000e+00 5.0000000000000000e+01 0.0000000000000000e+00
0.0000000000000000e+00 5.0000000000000000e+01 0.0000000000000000e+00
ITEM: ATOMS id type x y z c_1[1] c_1[2] c_1[3] c_1[4] c_1[5] c_1[6] c_1[7] c_1[22]
1 2 0.52652 0.321535 0 -1.5253e+08 -4.31782e+08 -0 -1.19684e+08 -0 -0 2.60598e+232 -2.2298e+233
2 2 0 0 0 -4.92858e+08 -5.68404e+07 -0 -9.25089e+07 -0 -0 -2.5128e+236 1.03009e+232
3 2 0.5 0 0 -3.44267e+08 -3.74942e+08 -0 -2.71755e+07 -0 -0 -2.51308e+236 -2.3328e+233
ITEM: TIMESTEP
47
ITEM: NUMBER OF ATOMS
3
ITEM: BOX BOUNDS xy xz yz pp pp pp
0.0000000000000000e+00 7.3500000000000000e+01 2.3500000000000000e+01
0.0000000000000000e+00 5.0000000000000000e+01 0.0000000000000000e+00