ITEM: TIMESTEP
0
ITEM: NUMBER OF ATOMS
665
ITEM: BOX BOUNDS xy xz yz pp pp pp
-1.0000000000000000e+01 1.0000000000000000e+01 0.0000000000000000e+00
-1.0000000000000000e+01 1.0000000000000000e+01 0.0000000000000000e+00
-1.0000000000000000e+01 1.0000000000000000e+01 0.0000000000000000e+00
ITEM: ATOMS id type x y z c_1[1] c_1[2] c_1[3] c_1[4] c_1[5] c_1[6] c_1[7] c_1[8] c_1[13] c_1[15] c_1[22]
1 2 -7.4 -9.25 -9.25 3.41753e+06 -3.33742e+07 -3.34498e+07 215187 -169597 1.2448e+06 -5.27873e+06 -4.41559e+06 1.95604e+08 -595251 -4.11944e+07
2 2 -3.7 -9.25 -9.25 3.64159e+06 -3.31619e+07 -3.33147e+07 807.44 807.44 1.07537e+06 -7.26868e+06 -4.78704e+06 1.95062e+08 504.92 -4.13484e+07
3 2 0 -9.25 -9.25 3.6435e+06 -3.31619e+07 -3.33147e+07 828.836 828.836 1.07537e+06 -7.3391e+06 -4.75799e+06 1.95062e+08 3.579e-08 -4.13496e+07
4 2 3.7 -9.25 -9.25 3.6434e+06 -3.31619e+07 -3.33147e+07 850.284 850.284 1.07537e+06 -7.33486e+06 -4.75955e+06 1.95062e+08 -504.92 -4.13484e+07
5 2 7.4 -9.25 -9.25 3.41934e+06 -3.33742e+07 -3.34498e+07 -214358 170426 1.2448e+06 -5.45138e+06 -4.3881e+06 1.95604e+08 595251 -4.11944e+07
6 2 -9.25 -7.4 -9.25 -3.35274e+07 3.57071e+06 -3.34498e+07 215208 1.09548e+06 -20267.9 1.88544e+08 -4.85943e+06 -1.30077e+06 269811 -4.72927e+06
7 2 -5.55 -7.4 -9.25 3.61666e+06 3.92366e+06 -3.18725e+07 -4148.21 -788.703 637363 -1.90336e+06 -7.96644e+06 -690442 9255.53 -3.73779e+06
8 2 -7.4 -5.55 -9.25 3.96637e+06 3.80992e+06 -3.18725e+07 -122133 -678955 1.31553e+06 -5.2086e+06 -8.0623e+06 2.43742e+06 391491 -4.69954e+06
9 2 -1.85 -7.4 -9.25 3.63e+06 3.93003e+06 -3.18717e+07 0.253677 502.295 638219 -2.49442e+06 -7.6261e+06 -698722 -1.06753e-09 -3.73489e+06
10 2 -3.7 -5.55 -9.25 4.44098e+06 4.43096e+06 -3.16003e+07 1.81418e-10 502.258 1.65561e+06 -3.95339e+06 -9.5126e+06 1.16685e+06 -1.6009e-09 -5.20466e+06
11 2 1.85 -7.4 -9.25 3.63e+06 3.93003e+06 -3.18717e+07 0.253677 502.295 638219 -2.49442e+06 -7.6261e+06 -698722 -2.24128e-08 -3.73489e+06
12 2 0 -5.55 -9.25 4.44101e+06 4.43096e+06 -3.16003e+07 -9.8953e-11 502.295 1.65561e+06 -3.95504e+06 -9.51163e+06 1.16685e+06 -3.65768e-08 -5.20466e+06
13 2 5.55 -7.4 -9.25 3.62747e+06 3.92366e+06 -3.18725e+07 4149.78 1587.45 637363 -2.49161e+06 -7.62238e+06 -690442 -9255.53 -3.73779e+06
14 2 3.7 -5.55 -9.25 4.44101e+06 4.43096e+06 -3.16003e+07 -6.36443e-10 502.332 1.65561e+06 -3.95503e+06 -9.51164e+06 1.16685e+06 1.19339e-09 -5.20466e+06
15 2 9.25 -7.4 -9.25 -3.35166e+07 3.57071e+06 -3.34498e+07 -204370 -681490 -20267.9 1.86983e+08 -4.51537e+06 -1.30077e+06 -269811 -4.72927e+06
16 2 7.4 -5.55 -9.25 3.9664e+06 3.80992e+06 -3.18725e+07 122133 679458 1.31553e+06 -5.21116e+06 -8.06134e+06 2.43742e+06 -391491 -4.69954e+06
17 2 -9.25 -3.7 -9.25 -3.31188e+07 3.83443e+06 -3.33147e+07 -117177 586826 489357 1.87811e+08 -5.80094e+06 -2.1523e+06 385314 -5.4491e+06
18 2 -5.55 -3.7 -9.25 4.43108e+06 4.44152e+06 -3.16003e+07 -329.447 55.4729 1.65606e+06 -3.36385e+06 -9.86206e+06 576255 1067.33 -5.1964e+06
19 2 -7.4 -1.85 -9.25 3.97327e+06 3.82338e+06 -3.18717e+07 -118314 -678100 1.31682e+06 -5.21741e+06 -8.07244e+06 1.84582e+06 383310 -4.69736e+06
20 2 -1.85 -3.7 -9.25 4.44235e+06 4.44231e+06 -3.16001e+07 -3.55838e-10 502.295 1.65606e+06 -3.95674e+06 -9.51358e+06 575079 3.03012e-09 -5.19541e+06
21 2 -3.7 -1.85 -9.25 4.44231e+06 4.44235e+06 -3.16001e+07 -2.66816e-10 502.258 1.65606e+06 -3.95509e+06 -9.51455e+06 573427 -1.6009e-09 -5.19538e+06
22 2 1.85 -3.7 -9.25 4.44235e+06 4.44231e+06 -3.16001e+07 -8.87744e-11 502.295 1.65606e+06 -3.95674e+06 -9.51358e+06 575079 -1.41651e-09 -5.19541e+06
23 2 0 -1.85 -9.25 4.44235e+06 4.44235e+06 -3.16001e+07 3.97958e-10 502.295 1.65606e+06 -3.95674e+06 -9.51358e+06 573427 3.13662e-08 -5.19538e+06
24 2 5.55 -3.7 -9.25 4.44188e+06 4.44152e+06 -3.16003e+07 329.447 743.267 1.65606e+06 -3.95203e+06 -9.51805e+06 576255 -1067.33 -5.1964e+06
25 2 3.7 -1.85 -9.25 4.44235e+06 4.44235e+06 -3.16001e+07 -1.20067e-09 502.332 1.65606e+06 -3.95674e+06 -9.51359e+06 573427 1.10284e-08 -5.19538e+06
26 2 9.25 -3.7 -9.25 -3.3108e+07 3.83443e+06 -3.33147e+07 117177 -172887 489357 1.86253e+08 -5.45692e+06 -2.1523e+06 -385314 -5.4491e+06
27 2 7.4 -1.85 -9.25 3.9733e+06 3.82338e+06 -3.18717e+07 118314 678602 1.31682e+06 -5.21997e+06 -8.07148e+06 1.84582e+06 -383310 -4.69736e+06
28 2 -9.25 0 -9.25 -3.31188e+07 3.83635e+06 -3.33147e+07 -117156 586827 489379 1.87811e+08 -5.80131e+06 -2.22272e+06 382243 -5.44841e+06
29 2 -5.55 0 -9.25 4.43108e+06 4.44155e+06 -3.16003e+07 -329.447 55.4729 1.65606e+06 -3.36385e+06 -9.86206e+06 574603 1067.33 -5.19637e+06
30 2 -7.4 1.85 -9.25 3.97327e+06 3.82338e+06 -3.18717e+07 -118314 -678100 1.31682e+06 -5.21741e+06 -8.07244e+06 1.84582e+06 383310 -4.69736e+06
31 2 -1.85 0 -9.25 4.44235e+06 4.44235e+06 -3.16001e+07 5.4728e-11 502.295 1.65606e+06 -3.95674e+06 -9.51358e+06 573427 3.98414e-08 -5.19538e+06
32 2 -3.7 1.85 -9.25 4.44231e+06 4.44235e+06 -3.16001e+07 2.22347e-10 502.258 1.65606e+06 -3.95509e+06 -9.51455e+06 573427 -3.55754e-10 -5.19538e+06
33 2 1.85 0 -9.25 4.44235e+06 4.44235e+06 -3.16001e+07 -3.03027e-09 502.295 1.65606e+06 -3.95674e+06 -9.51358e+06 573427 7.93297e-08 -5.19538e+06
34 2 0 1.85 -9.25 4.44235e+06 4.44235e+06 -3.16001e+07 -1.84364e-09 502.295 1.65606e+06 -3.95674e+06 -9.51358e+06 573427 7.14079e-08 -5.19538e+06
35 2 5.55 0 -9.25 4.44188e+06 4.44155e+06 -3.16003e+07 329.447 743.267 1.65606e+06 -3.95203e+06 -9.51805e+06 574603 -1067.33 -5.19637e+06
36 2 3.7 1.85 -9.25 4.44235e+06 4.44235e+06 -3.16001e+07 -8.00448e-10 502.332 1.65606e+06 -3.95674e+06 -9.51359e+06 573427 2.49028e-09 -5.19538e+06
37 2 9.25 0 -9.25 -3.3108e+07 3.83635e+06 -3.33147e+07 117156 -172887 489379 1.86253e+08 -5.45729e+06 -2.22272e+06 -382243 -5.44841e+06
38 2 7.4 1.85 -9.25 3.9733e+06 3.82338e+06 -3.18717e+07 118314 678602 1.31682e+06 -5.21997e+06 -8.07148e+06 1.84582e+06 -383310 -4.69736e+06
39 2 -9.25 3.7 -9.25 -3.31188e+07 3.83629e+06 -3.33147e+07 -117156 586826 489400 1.87811e+08 -5.8013e+06 -2.22067e+06 382218 -5.44845e+06
40 2 -5.55 3.7 -9.25 4.43108e+06 4.44155e+06 -3.16003e+07 -329.447 55.4729 1.65606e+06 -3.36385e+06 -9.86206e+06 574608 1067.33 -5.19637e+06
41 2 -7.4 5.55 -9.25 3.97195e+06 3.822e+06 -3.18725e+07 -117261 -678965 1.31792e+06 -5.2141e+06 -8.0734e+06 1.84366e+06 384095 -4.69414e+06
42 2 -1.85 3.7 -9.25 4.44235e+06 4.44235e+06 -3.16001e+07 1.12608e-10 502.295 1.65606e+06 -3.95674e+06 -9.51358e+06 573432 5.1559e-09 -5.19538e+06
43 2 -3.7 5.55 -9.25 4.44206e+06 4.442e+06 -3.16003e+07 2.66816e-10 502.258 1.6563e+06 -3.95445e+06 -9.51473e+06 577611 2.13453e-09 -5.19482e+06
44 2 1.85 3.7 -9.25 4.44235e+06 4.44235e+06 -3.16001e+07 -1.97262e-10 502.295 1.65606e+06 -3.95674e+06 -9.51358e+06 573432 7.82447e-09 -5.19538e+06
45 2 0 5.55 -9.25 4.44209e+06 4.442e+06 -3.16003e+07 2.47024e-12 502.295 1.6563e+06 -3.9561e+06 -9.51377e+06 577611 -2.56859e-08 -5.19482e+06
46 2 5.55 3.7 -9.25 4.44188e+06 4.44155e+06 -3.16003e+07 329.447 743.267 1.65606e+06 -3.95203e+06 -9.51805e+06 574608 -1067.33 -5.19637e+06
47 2 3.7 5.55 -9.25 4.44209e+06 4.442e+06 -3.16003e+07 -4.44693e-10 502.332 1.6563e+06 -3.95609e+06 -9.51377e+06 577611 -1.06698e-09 -5.19482e+06
48 2 9.25 3.7 -9.25 -3.3108e+07 3.83629e+06 -3.33147e+07 117156 -172887 489400 1.86253e+08 -5.45729e+06 -2.22067e+06 -382218 -5.44845e+06
49 2 7.4 5.55 -9.25 3.97198e+06 3.822e+06 -3.18725e+07 117261 679467 1.31792e+06 -5.21667e+06 -8.07244e+06 1.84366e+06 -384095 -4.69414e+06
50 2 -9.25 7.4 -9.25 -3.3326e+07 3.61333e+06 -3.34498e+07 -335440 756255 658975 1.88347e+08 -5.25208e+06 -1.56351e+06 119418 -4.92299e+06
51 2 -5.55 7.4 -9.25 4.00445e+06 4.01469e+06 -3.18725e+07 721.607 -797.931 1.99579e+06 -2.28766e+06 -8.74202e+06 -1.07639e+06 1845.88 -4.12206e+06
52 2 -7.4 9.25 -9.25 3.7647e+06 -3.34684e+07 -3.34498e+07 -325452 -508817 -192940 -5.52402e+06 -4.80791e+06 1.94821e+08 988028 -4.13767e+07
53 2 -1.85 7.4 -9.25 4.01676e+06 4.01655e+06 -3.18717e+07 -0.253677 502.295 1.99492e+06 -2.87427e+06 -8.39272e+06 -1.08022e+06 2.34798e-08 -4.11472e+06
54 2 -3.7 9.25 -9.25 4.02733e+06 -3.30648e+07 -3.33147e+07 -828.765 807.44 315657 -7.64966e+06 -5.55147e+06 1.94095e+08 -4.02929 -4.17175e+07
55 2 1.85 7.4 -9.25 4.01676e+06 4.01655e+06 -3.18717e+07 -0.253677 502.295 1.99492e+06 -2.87427e+06 -8.39272e+06 -1.08022e+06 2.13453e-08 -4.11472e+06
56 2 0 9.25 -9.25 4.02919e+06 -3.30648e+07 -3.33147e+07 -828.836 828.836 315657 -7.7179e+06 -5.52248e+06 1.94095e+08 4.00506e-08 -4.17175e+07
57 2 5.55 7.4 -9.25 4.01526e+06 4.01469e+06 -3.18725e+07 -723.174 1596.68 1.99579e+06 -2.87591e+06 -8.39796e+06 -1.07639e+06 -1845.88 -4.12206e+06
58 2 3.7 9.25 -9.25 4.02914e+06 -3.30648e+07 -3.33147e+07 -828.959 850.285 315657 -7.71585e+06 -5.52399e+06 1.94095e+08 4.02929 -4.17175e+07
59 2 9.25 7.4 -9.25 -3.33152e+07 3.61333e+06 -3.34498e+07 324601 -342264 658975 1.86791e+08 -4.90802e+06 -1.56351e+06 -119418 -4.92299e+06
60 2 7.4 9.25 -9.25 3.76651e+06 -3.34684e+07 -3.34498e+07 324623 509646 -192940 -5.59045e+06 -4.78043e+06 1.94821e+08 -988028 -4.13767e+07
61 2 -9.25 -9.25 -7.4 -3.37408e+07 -3.37409e+07 3.51052e+06 1.11745e+06 151018 151018 1.86993e+08 -2.70294e+06 1.96156e+08 -1.32664e+06 -5.23335e+07
62 2 -5.55 -9.25 -7.4 3.61653e+06 -3.27008e+07 4.75174e+06 -686.741 -4273.97 637464 -1.90303e+06 -2.61985e+06 1.98861e+08 18848.9 -4.68468e+07
63 2 -7.4 -9.25 -5.55 4.17848e+06 -3.17368e+07 4.02325e+06 -509039 -335106 1.14532e+06 -5.75036e+06 -4.03731e+06 1.98675e+08 4.23138e+06 -5.27447e+07
64 2 -1.85 -9.25 -7.4 3.62974e+06 -3.27e+07 4.75797e+06 502.295 0.253677 638423 -2.49377e+06 -2.44527e+06 1.9886e+08 8.04545e-10 -4.68703e+07
65 2 -3.7 -9.25 -5.55 4.44098e+06 -3.16003e+07 4.43096e+06 502.258 1.34515e-13 1.65561e+06 -3.95339e+06 -3.42908e+06 1.98499e+08 1.06133 -5.43888e+07
66 2 1.85 -9.25 -7.4 3.62974e+06 -3.27e+07 4.75797e+06 502.295 0.253677 638423 -2.49377e+06 -2.44527e+06 1.9886e+08 -1.79499e-08 -4.68703e+07
67 2 0 -9.25 -5.55 4.44101e+06 -3.16003e+07 4.43096e+06 502.295 -9.48104e-10 1.65561e+06 -3.95504e+06 -3.42859e+06 1.98499e+08 2.95675e-08 -5.43888e+07
68 2 5.55 -9.25 -7.4 3.62734e+06 -3.27008e+07 4.75174e+06 1485.49 4275.53 637464 -2.49129e+06 -2.44275e+06 1.98861e+08 -18848.9 -4.68468e+07
69 2 3.7 -9.25 -5.55 4.44101e+06 -3.16003e+07 4.43096e+06 502.332 -1.14698e-09 1.65561e+06 -3.95503e+06 -3.42859e+06 1.98499e+08 -1.06133 -5.43888e+07
70 2 9.25 -9.25 -7.4 -3.373e+07 -3.37409e+07 3.51052e+06 -703455 -140180 151018 1.89624e+08 -2.52584e+06 1.96156e+08 1.32664e+06 -5.23335e+07
71 2 7.4 -9.25 -5.55 4.17851e+06 -3.17368e+07 4.02325e+06 509541 335106 1.14532e+06 -5.75293e+06 -4.03682e+06 1.98675e+08 -4.23138e+06 -5.27447e+07
72 2 -9.25 -5.55 -7.4 -3.27008e+07 3.61653e+06 4.75174e+06 -686.741 637464 -4273.96 1.90785e+08 -2.87544e+06 2.62714e+06 34844.1 -1.45473e+07
73 2 -9.25 -7.4 -5.55 -3.2565e+07 5.00668e+06 4.02325e+06 -509039 1.14532e+06 -335106 1.90599e+08 -4.44011e+06 -1.4216e+06 7.63295e+06 -1.80336e+07
74 2 -7.4 -7.4 -7.4 3.95236e+06 3.95236e+06 3.95236e+06 1.07318e+06 1.07318e+06 1.07318e+06 -2.10309e+06 -1.99898e+06 3.44355e+06 -1.72112e+06 -11933.5
75 2 -5.55 -5.55 -7.4 4.88735e+06 4.88735e+06 6.07766e+06 -113.952 -257.303 -257.303 844899 -4.84412e+06 6.43407e+06 369.177 404330
76 2 -5.55 -7.4 -5.55 4.88735e+06 6.31605e+06 5.95372e+06 -257.303 -113.952 -652637 844899 -2.74898e+06 -1.85375e+06 622.275 3.57706e+06
77 2 -7.4 -5.55 -5.55 6.55443e+06 5.95372e+06 5.95372e+06 -652637 -652637 -113.952 -8.44765e+06 -4.48989e+06 5.38682e+06 2.11418e+06 -679583
78 2 -3.7 -7.4 -7.4 2.76787e+06 5.0156e+06 5.0156e+06 15.3324 15.3324 1.07006e+06 2.09439e+06 -2.36594e+06 1.31791e+06 184.588 2.12732e+06
79 2 -1.85 -5.55 -7.4 4.90021e+06 4.88744e+06 6.0782e+06 -56.9758 72.3082 -257.303 82.7259 -4.46042e+06 6.43398e+06 184.588 404611
80 2 -1.85 -7.4 -5.55 4.90021e+06 6.31658e+06 5.95382e+06 72.3082 -56.9758 -652637 82.7259 -2.36572e+06 -1.85428e+06 -4.80269e-09 3.57779e+06
81 2 -3.7 -5.55 -5.55 7.03254e+06 7.02004e+06 7.02004e+06 -3.99828e-12 3.71993e-14 -113.952 -2.09408e+06 -4.46027e+06 4.34011e+06 -7.11471e-10 2.53767e+06
82 2 0 -7.4 -7.4 2.76787e+06 5.0156e+06 5.0156e+06 15.3324 15.3324 1.07006e+06 2.09432e+06 -2.36591e+06 1.31791e+06 184.588 2.12732e+06
83 2 1.85 -5.55 -7.4 4.90021e+06 4.88744e+06 6.0782e+06 -56.9758 72.3082 -257.303 82.7259 -4.46042e+06 6.43398e+06 184.588 404611
84 2 1.85 -7.4 -5.55 4.90021e+06 6.31658e+06 5.95382e+06 72.3082 -56.9758 -652637 82.7259 -2.36572e+06 -1.85428e+06 5.33632e-10 3.57779e+06
85 2 0 -5.55 -5.55 7.03254e+06 7.02004e+06 7.02004e+06 5.465e-10 5.41405e-10 -113.952 -2.09415e+06 -4.46024e+06 4.34011e+06 -5.28535e-09 2.53767e+06
86 2 3.7 -7.4 -7.4 2.76787e+06 5.0156e+06 5.0156e+06 15.3324 15.3324 1.07006e+06 2.09432e+06 -2.36591e+06 1.31791e+06 184.588 2.12732e+06
87 2 5.55 -5.55 -7.4 4.90008e+06 4.88744e+06 6.07766e+06 -56.9758 401.938 -257.303 -1585.59 -4.46061e+06 6.43398e+06 184.588 404239
88 2 5.55 -7.4 -5.55 4.90008e+06 6.31605e+06 5.95382e+06 401.938 -56.9758 -652637 -1585.59 -2.36529e+06 -1.85375e+06 -622.275 3.57706e+06
89 2 3.7 -5.55 -5.55 7.03254e+06 7.02004e+06 7.02004e+06 -8.80795e-10 -1.24108e-09 -113.952 -2.09415e+06 -4.46024e+06 4.34011e+06 4.08071e-09 2.53767e+06
90 2 7.4 -7.4 -7.4 4.42931e+06 5.01876e+06 5.01876e+06 -420650 -420650 1.07352e+06 -4.19786e+06 -4.11269e+06 2.3962e+06 -391891 -1.05928e+06
91 2 9.25 -5.55 -7.4 -3.24497e+07 4.68281e+06 4.75174e+06 653010 -636060 -4028.79 1.88891e+08 -4.60512e+06 1.57997e+06 -2.14822e+06 -1.55945e+07
92 2 9.25 -7.4 -5.55 -3.23139e+07 5.00668e+06 5.08954e+06 510442 -493000 -334861 1.88705e+08 -4.05641e+06 -1.4216e+06 -7.63295e+06 -1.80336e+07
93 2 7.4 -5.55 -5.55 6.55443e+06 5.95372e+06 5.95372e+06 652637 652637 -113.952 -8.44772e+06 -4.48986e+06 5.38682e+06 -2.11418e+06 -679583
94 2 -9.25 -1.85 -7.4 -3.27e+07 3.62974e+06 4.75797e+06 502.295 638423 0.254025 1.90784e+08 -2.87918e+06 2.0364e+06 -1.48833e-09 -1.45545e+07
95 2 -9.25 -3.7 -5.55 -3.13618e+07 5.50729e+06 4.43096e+06 -651878 1.65561e+06 -3.11116e-10 1.89376e+08 -5.97634e+06 -470471 2.11357e+06 -2.25705e+07
96 2 -7.4 -3.7 -7.4 5.0156e+06 2.76787e+06 5.0156e+06 15.3324 1.07006e+06 15.3324 -4.22873e+06 -2.37695e+06 7.68357e+06 184.588 -1.75248e+06
97 2 -5.55 -1.85 -7.4 4.88744e+06 4.90021e+06 6.0782e+06 -56.9758 -257.303 72.3082 844808 -4.84411e+06 5.58926e+06 184.588 417583
98 2 -5.55 -3.7 -5.55 7.02006e+06 7.03263e+06 7.02004e+06 -56.9758 -113.952 1.0673e-09 -1.24916e+06 -4.84411e+06 3.495e+06 184.588 2.55001e+06
99 2 -7.4 -1.85 -5.55 6.55506e+06 5.9666e+06 5.95382e+06 -652365 -652637 -56.9758 -8.44827e+06 -4.49051e+06 4.54191e+06 2.11375e+06 -667305
100 2 -3.7 -3.7 -7.4 4.90039e+06 4.90039e+06 6.07878e+06 -3.55749e-10 15.3324 15.3324 -26.3213 -4.46045e+06 5.58915e+06 2.31237e-09 417956
101 2 -1.85 -1.85 -7.4 4.9003e+06 4.9003e+06 6.07874e+06 -1.24514e-09 72.3082 72.3082 -8.73639 -4.46042e+06 5.58916e+06 4.67544e-09 417864
102 2 -1.85 -3.7 -5.55 7.03282e+06 7.03272e+06 7.02013e+06 3.5573e-10 -56.9758 1.00499e-09 -2.09443e+06 -4.46042e+06 3.49491e+06 -1.42258e-09 2.55029e+06
103 2 -3.7 -1.85 -5.55 7.03272e+06 7.03282e+06 7.02013e+06 -0 -1.19558e-10 -56.9758 -2.09426e+06 -4.46045e+06 3.49475e+06 1.42302e-09 2.55038e+06
104 2 0 -3.7 -7.4 4.90039e+06 4.90039e+06 6.07878e+06 -1.65618e-09 15.3324 15.3324 -100.199 -4.46042e+06 5.58915e+06 3.52977e-09 417956
105 2 1.85 -1.85 -7.4 4.9003e+06 4.9003e+06 6.07874e+06 -7.11509e-10 72.3082 72.3082 -8.73639 -4.46042e+06 5.58916e+06 5.33632e-10 417864
106 2 1.85 -3.7 -5.55 7.03282e+06 7.03272e+06 7.02013e+06 -1.77834e-10 -56.9758 -7.06163e-10 -2.09443e+06 -4.46042e+06 3.49491e+06 1.957e-09 2.55029e+06
107 2 0 -1.85 -5.55 7.03272e+06 7.03282e+06 7.02013e+06 -6.47195e-10 4.20033e-10 -56.9758 -2.09434e+06 -4.46042e+06 3.49475e+06 2.42359e-09 2.55038e+06
108 2 3.7 -3.7 -7.4 4.90039e+06 4.90039e+06 6.07878e+06 -1.42604e-09 15.3324 15.3324 -100.248 -4.46042e+06 5.58915e+06 4.62477e-09 417956
109 2 5.55 -1.85 -7.4 4.90018e+06 4.9003e+06 6.0782e+06 -1.77877e-09 401.938 72.3082 -1677.05 -4.46061e+06 5.58916e+06 3.05165e-09 417491
110 2 5.55 -3.7 -5.55 7.0328e+06 7.03263e+06 7.02013e+06 56.9758 -56.9758 2.37331e-10 -2.09564e+06 -4.46042e+06 3.495e+06 -184.588 2.55001e+06
111 2 3.7 -1.85 -5.55 7.03272e+06 7.03282e+06 7.02013e+06 -1.18685e-09 -1.00899e-09 -56.9758 -2.09434e+06 -4.46042e+06 3.49475e+06 2.90147e-09 2.55038e+06
112 2 7.4 -3.7 -7.4 5.49255e+06 3.83427e+06 6.082e+06 652308 -417532 188.211 -6.3235e+06 -4.49066e+06 6.63622e+06 -2.11356e+06 -2.79982e+06
113 2 9.25 -1.85 -7.4 -3.24488e+07 4.69605e+06 4.75797e+06 651878 -637019 245.433 1.8889e+08 -4.60904e+06 989144 -2.11356e+06 -1.56018e+07
114 2 9.25 -3.7 -5.55 -3.11108e+07 5.50729e+06 5.49724e+06 651878 -1.00329e+06 3.11266e-10 1.87483e+08 -5.59265e+06 -470471 -2.11357e+06 -2.25705e+07
115 2 7.4 -1.85 -5.55 6.55506e+06 5.9666e+06 5.95382e+06 652365 652637 -56.9758 -8.44834e+06 -4.49048e+06 4.54191e+06 -2.11375e+06 -667305
116 2 -9.25 1.85 -7.4 -3.27e+07 3.62974e+06 4.75797e+06 502.295 638423 0.254025 1.90784e+08 -2.87918e+06 2.0364e+06 -4.55171e-08 -1.45545e+07
117 2 -9.25 0 -5.55 -3.13618e+07 5.50732e+06 4.43096e+06 -651878 1.65561e+06 -2.61032e-09 1.89376e+08 -5.97634e+06 -472123 2.11356e+06 -2.25705e+07
118 2 -7.4 0 -7.4 5.0156e+06 2.76787e+06 5.0156e+06 15.3324 1.07006e+06 15.3324 -4.22873e+06 -2.37695e+06 7.68349e+06 184.588 -1.75248e+06
119 2 -5.55 1.85 -7.4 4.88744e+06 4.90021e+06 6.0782e+06 -56.9758 -257.303 72.3082 844808 -4.84411e+06 5.58926e+06 184.588 417583
120 2 -5.55 0 -5.55 7.02006e+06 7.03263e+06 7.02004e+06 -56.9758 -113.952 -1.70105e-10 -1.24916e+06 -4.84411e+06 3.49493e+06 184.588 2.55001e+06
121 2 -7.4 1.85 -5.55 6.55506e+06 5.9666e+06 5.95382e+06 -652365 -652637 -56.9758 -8.44827e+06 -4.49051e+06 4.54191e+06 2.11375e+06 -667305
122 2 -3.7 0 -7.4 4.90039e+06 4.90039e+06 6.07878e+06 -1.83405e-09 15.3324 15.3324 -26.3213 -4.46045e+06 5.58907e+06 3.55755e-09 417957
123 2 -1.85 1.85 -7.4 4.9003e+06 4.9003e+06 6.07874e+06 -1.06726e-09 72.3082 72.3082 -8.73639 -4.46042e+06 5.58916e+06 -1.01179e-09 417864
124 2 -1.85 0 -5.55 7.03282e+06 7.03272e+06 7.02013e+06 -1.12071e-09 -56.9758 -6.40354e-10 -2.09443e+06 -4.46042e+06 3.49484e+06 6.75891e-09 2.55029e+06
125 2 -3.7 1.85 -5.55 7.03272e+06 7.03282e+06 7.02013e+06 3.55755e-10 1.77859e-10 -56.9758 -2.09426e+06 -4.46045e+06 3.49475e+06 -3.55755e-10 2.55038e+06
126 2 0 0 -7.4 4.90039e+06 4.90039e+06 6.07878e+06 1.8993e-10 15.3324 15.3324 -100.199 -4.46042e+06 5.58907e+06 -8.6153e-10 417957
127 2 1.85 1.85 -7.4 4.9003e+06 4.9003e+06 6.07874e+06 1.57987e-25 72.3082 72.3082 -8.73639 -4.46042e+06 5.58916e+06 2.19e-09 417864
128 2 1.85 0 -5.55 7.03282e+06 7.03272e+06 7.02013e+06 -1.94848e-09 -56.9758 -2.70697e-09 -2.09443e+06 -4.46042e+06 3.49484e+06 1.42294e-09 2.55029e+06
129 2 0 1.85 -5.55 7.03272e+06 7.03282e+06 7.02013e+06 -1.17781e-09 -6.44243e-10 -56.9758 -2.09434e+06 -4.46042e+06 3.49475e+06 -2.5446e-09 2.55038e+06
130 2 3.7 0 -7.4 4.90039e+06 4.90039e+06 6.07878e+06 -1.30042e-09 15.3324 15.3324 -100.248 -4.46042e+06 5.58907e+06 2.31241e-09 417957
131 2 5.55 1.85 -7.4 4.90018e+06 4.9003e+06 6.0782e+06 -5.33632e-10 401.938 72.3082 -1677.05 -4.46061e+06 5.58916e+06 4.11231e-10 417491
132 2 5.55 0 -5.55 7.0328e+06 7.03263e+06 7.02013e+06 56.9758 -56.9758 -1.35074e-09 -2.09564e+06 -4.46042e+06 3.49493e+06 -184.588 2.55001e+06
133 2 3.7 1.85 -5.55 7.03272e+06 7.03282e+06 7.02013e+06 -8.89387e-10 -1.42306e-09 -56.9758 -2.09434e+06 -4.46042e+06 3.49475e+06 3.70769e-09 2.55038e+06
134 2 7.4 0 -7.4 5.49255e+06 3.83427e+06 6.082e+06 652308 -417532 188.211 -6.3235e+06 -4.49066e+06 6.63615e+06 -2.11356e+06 -2.79982e+06
135 2 9.25 1.85 -7.4 -3.24488e+07 4.69605e+06 4.75797e+06 651878 -637019 245.433 1.8889e+08 -4.60904e+06 989144 -2.11356e+06 -1.56018e+07
136 2 9.25 0 -5.55 -3.11108e+07 5.50732e+06 5.49724e+06 651878 -1.00329e+06 -2.00178e-09 1.87483e+08 -5.59265e+06 -472123 -2.11356e+06 -2.25705e+07
137 2 7.4 1.85 -5.55 6.55506e+06 5.9666e+06 5.95382e+06 652365 652637 -56.9758 -8.44834e+06 -4.49048e+06 4.54191e+06 -2.11375e+06 -667305
138 2 -9.25 5.55 -7.4 -3.27008e+07 3.62743e+06 4.75174e+06 1448.32 637464 4275.53 1.90785e+08 -2.87652e+06 2.0324e+06 -28287.1 -1.4539e+07
139 2 -9.25 3.7 -5.55 -3.13618e+07 5.50732e+06 4.43096e+06 -651878 1.65561e+06 -2.09768e-09 1.89376e+08 -5.97634e+06 -472124 2.11356e+06 -2.25705e+07
140 2 -7.4 3.7 -7.4 5.0156e+06 2.76787e+06 5.0156e+06 15.3324 1.07006e+06 15.3324 -4.22873e+06 -2.37695e+06 7.68349e+06 184.588 -1.75248e+06
141 2 -5.55 5.55 -7.4 4.88744e+06 4.90008e+06 6.07766e+06 -56.9758 -257.303 401.938 844808 -4.8443e+06 5.58759e+06 184.588 417044
142 2 -5.55 3.7 -5.55 7.02006e+06 7.03263e+06 7.02004e+06 -56.9758 -113.952 -2.48622e-09 -1.24916e+06 -4.84411e+06 3.49493e+06 184.588 2.55001e+06
143 2 -7.4 5.55 -5.55 6.55506e+06 5.9666e+06 5.95382e+06 -652365 -652637 -56.9758 -8.44827e+06 -4.49114e+06 4.53971e+06 2.11419e+06 -667305
144 2 -3.7 3.7 -7.4 4.90039e+06 4.90039e+06 6.07878e+06 -8.31099e-10 15.3324 15.3324 -26.3213 -4.46045e+06 5.58907e+06 3.73542e-09 417957
145 2 -1.85 5.55 -7.4 4.9003e+06 4.90018e+06 6.0782e+06 -1.06726e-09 72.3082 401.938 -8.73639 -4.46061e+06 5.5875e+06 2.66816e-09 417325
146 2 -1.85 3.7 -5.55 7.03282e+06 7.03272e+06 7.02013e+06 2.40274e-10 -56.9758 -1.18127e-09 -2.09443e+06 -4.46042e+06 3.49484e+06 -1.95735e-09 2.55029e+06
147 2 -3.7 5.55 -5.55 7.03272e+06 7.03282e+06 7.02013e+06 -0 1.77884e-10 -56.9758 -2.09426e+06 -4.46064e+06 3.49344e+06 -0 2.55038e+06
148 2 0 3.7 -7.4 4.90039e+06 4.90039e+06 6.07878e+06 -1.83405e-09 15.3324 15.3324 -100.199 -4.46042e+06 5.58907e+06 2.87227e-09 417957
149 2 1.85 5.55 -7.4 4.9003e+06 4.90018e+06 6.0782e+06 -7.11509e-10 72.3082 401.938 -8.73639 -4.46061e+06 5.5875e+06 6.56033e-10 417325
150 2 1.85 3.7 -5.55 7.03282e+06 7.03272e+06 7.02013e+06 -2.93074e-10 -56.9758 -2.77556e-09 -2.09443e+06 -4.46042e+06 3.49484e+06 4.2652e-13 2.55029e+06
151 2 0 5.55 -5.55 7.03272e+06 7.03282e+06 7.02013e+06 -1.13563e-10 2.42155e-10 -56.9758 -2.09434e+06 -4.46061e+06 3.49344e+06 -6.00986e-10 2.55038e+06
152 2 3.7 3.7 -7.4 4.90039e+06 4.90039e+06 6.07878e+06 -1.00596e-09 15.3324 15.3324 -100.248 -4.46042e+06 5.58907e+06 3.20179e-09 417957
153 2 5.55 5.55 -7.4 4.90018e+06 4.90018e+06 6.07766e+06 1.77877e-10 401.938 401.938 -1677.05 -4.46079e+06 5.5875e+06 2.43481e-09 416952
154 2 5.55 3.7 -5.55 7.0328e+06 7.03263e+06 7.02013e+06 56.9758 -56.9758 -2.12462e-09 -2.09564e+06 -4.46042e+06 3.49493e+06 -184.588 2.55001e+06
155 2 3.7 5.55 -5.55 7.03272e+06 7.03282e+06 7.02013e+06 -8.89387e-10 -3.55791e-10 -56.9758 -2.09434e+06 -4.46061e+06 3.49344e+06 3.58525e-09 2.55038e+06
156 2 7.4 3.7 -7.4 5.49255e+06 3.83427e+06 6.082e+06 652308 -417532 188.211 -6.3235e+06 -4.49066e+06 6.63615e+06 -2.11356e+06 -2.79982e+06
157 2 9.25 5.55 -7.4 -3.24496e+07 4.69374e+06 4.75174e+06 650932 -636060 4520.71 1.88891e+08 -4.60638e+06 985148 -2.08527e+06 -1.55862e+07
158 2 9.25 3.7 -5.55 -3.11108e+07 5.50732e+06 5.49724e+06 651878 -1.00329e+06 -2.04592e-09 1.87483e+08 -5.59265e+06 -472124 -2.11356e+06 -2.25705e+07
159 2 7.4 5.55 -5.55 6.55506e+06 5.9666e+06 5.95382e+06 652365 652637 -56.9758 -8.44834e+06 -4.49111e+06 4.53971e+06 -2.11419e+06 -667305
160 2 -9.25 9.25 -7.4 -3.37409e+07 -3.373e+07 3.51052e+06 -703455 150955 -140117 1.90222e+08 -2.70416e+06 1.95561e+08 1.32116e+06 -5.23226e+07
161 2 -9.25 7.4 -5.55 -3.14978e+07 5.24494e+06 4.02325e+06 -143169 1.14532e+06 335106 1.89551e+08 -6.55474e+06 -2.47104e+06 -5.51832e+06 -1.90814e+07
162 2 -7.4 7.4 -7.4 5.01876e+06 4.42931e+06 5.01876e+06 -420650 1.07352e+06 -420650 -3.15044e+06 -4.11272e+06 1.34878e+06 -391891 7119.97
163 2 -5.55 9.25 -7.4 4.68291e+06 -3.24497e+07 4.75174e+06 652973 -4028.79 -636060 -2.95668e+06 -4.73308e+06 1.96967e+08 -2.13115e+06 -4.78838e+07
164 2 -5.55 7.4 -5.55 7.02024e+06 6.79344e+06 5.95372e+06 -129.302 -113.952 652637 -1.25023e+06 -6.97735e+06 -3.94896e+06 630.237 1.48193e+06
165 2 -7.4 9.25 -5.55 6.0731e+06 -3.20749e+07 5.08954e+06 -142268 -334861 -493000 -6.79906e+06 -6.15194e+06 1.95733e+08 -2.11675e+06 -5.27135e+07
166 2 -3.7 7.4 -7.4 3.83427e+06 5.49255e+06 6.082e+06 652308 188.211 -417532 1.04705e+06 -4.47969e+06 -776860 -2.11356e+06 2.14637e+06
167 2 -1.85 9.25 -7.4 4.69605e+06 -3.24488e+07 4.75797e+06 651878 245.433 -637019 -3.54103e+06 -4.55883e+06 1.96966e+08 -2.11356e+06 -4.79047e+07
168 2 -1.85 7.4 -5.55 7.033e+06 6.79354e+06 5.95382e+06 -72.3082 -56.9758 652637 -2.09461e+06 -6.59321e+06 -3.94905e+06 5.33632e-09 1.4831e+06
169 2 -3.7 9.25 -5.55 6.57359e+06 -3.08723e+07 5.49724e+06 -502.295 5.33599e-10 -1.00329e+06 -6.0479e+06 -7.6562e+06 1.94511e+08 6.76829e-05 -5.54043e+07
170 2 0 7.4 -7.4 3.83427e+06 5.49255e+06 6.082e+06 652308 188.211 -417532 1.04697e+06 -4.47965e+06 -776860 -2.11356e+06 2.14637e+06
171 2 1.85 9.25 -7.4 4.69605e+06 -3.24488e+07 4.75797e+06 651878 245.433 -637019 -3.54103e+06 -4.55883e+06 1.96966e+08 -2.11356e+06 -4.79047e+07
172 2 1.85 7.4 -5.55 7.033e+06 6.79354e+06 5.95382e+06 -72.3082 -56.9758 652637 -2.09461e+06 -6.59321e+06 -3.94905e+06 7.11509e-10 1.4831e+06
173 2 0 9.25 -5.55 6.57362e+06 -3.08723e+07 5.49724e+06 -502.295 -2.67068e-10 -1.00329e+06 -6.04955e+06 -7.65571e+06 1.94511e+08 -3.13797e-08 -5.54043e+07
174 2 3.7 7.4 -7.4 3.83427e+06 5.49255e+06 6.082e+06 652308 188.211 -417532 1.04697e+06 -4.47965e+06 -776860 -2.11356e+06 2.14637e+06
175 2 5.55 9.25 -7.4 4.69374e+06 -3.24496e+07 4.75174e+06 650932 4520.71 -636060 -3.54502e+06 -4.55617e+06 1.96967e+08 -2.09579e+06 -4.78839e+07
176 2 5.55 7.4 -5.55 7.03298e+06 6.79344e+06 5.95382e+06 -15.3324 -56.9758 652637 -2.09672e+06 -6.59366e+06 -3.94896e+06 -630.237 1.48193e+06
177 2 3.7 9.25 -5.55 6.57362e+06 -3.08723e+07 5.49724e+06 -502.295 -9.78354e-10 -1.00329e+06 -6.04955e+06 -7.65571e+06 1.94511e+08 -6.76915e-05 -5.54043e+07
178 2 7.4 7.4 -7.4 4.4264e+06 4.4264e+06 6.08516e+06 1.30811e+06 -419076 -419076 -3.52866e+06 -2.76213e+06 2.01798e+06 -2.4843e+06 676314
179 2 9.25 9.25 -7.4 -3.34947e+07 -3.34946e+07 3.51052e+06 524918 -138125 -138125 1.86031e+08 -3.28988e+06 1.95183e+08 -2.08397e+06 -5.27005e+07
180 2 9.25 7.4 -5.55 -3.12467e+07 5.24494e+06 5.08954e+06 141765 -493000 334861 1.87657e+08 -6.17104e+06 -2.47104e+06 5.51832e+06 -1.90814e+07
181 2 7.4 9.25 -5.55 6.07313e+06 -3.20749e+07 5.08954e+06 141765 334861 -493000 -6.79979e+06 -6.15144e+06 1.95733e+08 2.11675e+06 -5.27135e+07
182 2 -9.25 -9.25 -3.7 -3.31952e+07 -3.31952e+07 4.02728e+06 98282.7 328835 328835 1.86071e+08 -3.68625e+06 1.95235e+08 7.51417e+06 -5.95806e+07
183 2 -5.55 -9.25 -3.7 4.4312e+06 -3.13618e+07 5.50795e+06 157.435 -455.198 1.00358e+06 -3.36417e+06 -3.6062e+06 1.97452e+08 3055.63 -5.33223e+07
184 2 -7.4 -9.25 -1.85 4.18538e+06 -3.17359e+07 4.03671e+06 -508183 -331287 1.14661e+06 -5.75917e+06 -4.04039e+06 1.98673e+08 4.21557e+06 -5.2768e+07
185 2 -1.85 -9.25 -3.7 4.44235e+06 -3.13617e+07 5.50862e+06 502.295 -2.66893e-10 1.00368e+06 -3.95674e+06 -3.42918e+06 1.97452e+08 1.68775e-08 -5.33269e+07
186 2 -3.7 -9.25 -1.85 4.44231e+06 -3.16001e+07 4.44235e+06 502.258 -4.63698e-16 1.65606e+06 -3.95509e+06 -3.42968e+06 1.98499e+08 1.06133 -5.43933e+07
187 2 1.85 -9.25 -3.7 4.44235e+06 -3.13617e+07 5.50862e+06 502.295 1.33571e-10 1.00368e+06 -3.95674e+06 -3.42918e+06 1.97452e+08 -1.64614e-08 -5.33269e+07
188 2 0 -9.25 -1.85 4.44235e+06 -3.16001e+07 4.44235e+06 502.295 1.03414e-09 1.65606e+06 -3.95674e+06 -3.42918e+06 1.98499e+08 2.22463e-08 -5.43933e+07
189 2 5.55 -9.25 -3.7 4.44201e+06 -3.13618e+07 5.50795e+06 641.306 455.198 1.00358e+06 -3.95235e+06 -3.42913e+06 1.97452e+08 -3055.63 -5.33223e+07
190 2 3.7 -9.25 -1.85 4.44235e+06 -3.16001e+07 4.44235e+06 502.332 -2.00115e-09 1.65606e+06 -3.95674e+06 -3.42918e+06 1.98499e+08 -1.06133 -5.43933e+07
191 2 9.25 -9.25 -3.7 -3.31843e+07 -3.31952e+07 4.02728e+06 315657 -328835 328835 1.88705e+08 -3.50918e+06 1.95235e+08 -7.51417e+06 -5.95806e+07
192 2 7.4 -9.25 -1.85 4.18541e+06 -3.17359e+07 4.03671e+06 508685 331287 1.14661e+06 -5.76174e+06 -4.03989e+06 1.98673e+08 -4.21557e+06 -5.2768e+07
193 2 -9.25 -5.55 -3.7 -3.13618e+07 4.4312e+06 5.50795e+06 157.435 1.00358e+06 -455.198 1.89376e+08 -3.86122e+06 1.166e+06 10844.4 -2.15333e+07
194 2 -9.25 -7.4 -1.85 -3.25641e+07 5.01358e+06 4.03671e+06 -508183 1.14661e+06 -331287 1.90598e+08 -4.4423e+06 -1.43041e+06 7.60892e+06 -1.80509e+07
195 2 -7.4 -7.4 -3.7 5.0156e+06 5.0156e+06 2.76787e+06 1.07006e+06 15.3324 15.3324 -4.22873e+06 -1.99903e+06 1.31791e+06 -1.71711e+06 372820
196 2 -5.55 -5.55 -3.7 7.02006e+06 7.02006e+06 7.03272e+06 -113.952 -56.9758 -56.9758 -1.24916e+06 -4.84412e+06 4.34001e+06 369.177 2.53739e+06
197 2 -5.55 -7.4 -1.85 4.88744e+06 6.31668e+06 5.9666e+06 -257.303 -56.9758 -652365 844808 -2.74898e+06 -1.85437e+06 622.275 3.57769e+06
198 2 -7.4 -5.55 -1.85 6.55506e+06 5.95382e+06 5.9666e+06 -652637 -652365 -56.9758 -8.44827e+06 -4.48989e+06 5.38673e+06 2.11418e+06 -679490
199 2 -3.7 -7.4 -3.7 4.90039e+06 6.07878e+06 4.90039e+06 15.3324 -6.53221e-10 15.3324 -26.3213 -2.36594e+06 -807737 184.588 2.51203e+06
200 2 -1.85 -5.55 -3.7 7.03282e+06 7.02015e+06 7.03282e+06 -56.9758 -2.44985e-14 -56.9758 -2.09443e+06 -4.46042e+06 4.33992e+06 184.588 2.53767e+06
201 2 -1.85 -7.4 -1.85 4.9003e+06 6.31722e+06 5.9667e+06 72.3082 -1.54565e-09 -652365 -8.73639 -2.36572e+06 -1.8549e+06 -4.14824e-09 3.57842e+06
202 2 -3.7 -5.55 -1.85 7.03272e+06 7.02013e+06 7.03282e+06 -1.77847e-10 -3.55755e-10 -56.9758 -2.09426e+06 -4.46027e+06 4.34001e+06 8.61609e-10 2.53776e+06
203 2 0 -7.4 -3.7 4.90039e+06 6.07878e+06 4.90039e+06 15.3324 -1.41699e-09 15.3324 -100.199 -2.36591e+06 -807737 184.588 2.51203e+06
204 2 1.85 -5.55 -3.7 7.03282e+06 7.02015e+06 7.03282e+06 -56.9758 1.42306e-09 -56.9758 -2.09443e+06 -4.46042e+06 4.33992e+06 184.588 2.53767e+06
205 2 1.85 -7.4 -1.85 4.9003e+06 6.31722e+06 5.9667e+06 72.3082 6.47164e-10 -652365 -8.73639 -2.36572e+06 -1.8549e+06 -7.39253e-11 3.57842e+06
206 2 0 -5.55 -1.85 7.03272e+06 7.02013e+06 7.03282e+06 1.7781e-10 -6.47195e-10 -56.9758 -2.09434e+06 -4.46024e+06 4.34001e+06 -4.21362e-09 2.53776e+06