ITEM: TIMESTEP
0
ITEM: NUMBER OF ATOMS
3
ITEM: BOX BOUNDS xy xz yz pp pp pp
0.0000000000000000e+00 5.0000000000000000e+01 0.0000000000000000e+00
0.0000000000000000e+00 5.0000000000000000e+01 0.0000000000000000e+00
0.0000000000000000e+00 5.0000000000000000e+01 0.0000000000000000e+00
ITEM: ATOMS id type x y z c_1[1] c_1[2] c_1[3] c_1[4] c_1[5] c_1[6] c_1[7] c_1[8] c_1[13] c_1[15] c_1[22]
1 2 0.378614 0.321535 0 -3.06506e+08 -5.22851e+08 -0 -9.25981e+07 -0 -0 1.73598e+09 -9.37977e+08 -6.66528e+08 -1.35613e+09 -1.77111e+09
2 2 0 0 0 -7.95099e+08 -1.86481e+08 -0 -2.19585e+08 -0 -0 -7.07234e+08 3.45209e+09 -9.24e+08 -1.13195e+09 -1.51937e+09
3 2 0.5 0 0 -5.84473e+08 -3.3637e+08 -0 1.26987e+08 -0 -0 -2.51497e+09 4.55934e+09 2.57472e+08 -2.24188e+08 -2.51735e+08
ITEM: TIMESTEP
1
ITEM: NUMBER OF ATOMS
3
ITEM: BOX BOUNDS xy xz yz pp pp pp
0.0000000000000000e+00 5.0000000000000000e+01 0.0000000000000000e+00
0.0000000000000000e+00 5.0000000000000000e+01 0.0000000000000000e+00
0.0000000000000000e+00 5.0000000000000000e+01 0.0000000000000000e+00
ITEM: ATOMS id type x y z c_1[1] c_1[2] c_1[3] c_1[4] c_1[5] c_1[6] c_1[7] c_1[8] c_1[13] c_1[15] c_1[22]
1 2 0.378614 0.321535 0 -3.131e+08 -5.288e+08 -0 -9.95683e+07 -0 -0 1.84954e+09 -9.91871e+08 -7.08327e+08 -1.43887e+09 -1.87698e+09
2 2 0 0 0 -7.87327e+08 -1.91733e+08 -0 -2.2577e+08 -0 -0 -5.11633e+08 3.22195e+09 -9.67235e+08 -1.21573e+09 -1.62346e+09
3 2 0.499 0 0 -5.6873e+08 -3.37067e+08 -0 1.26202e+08 -0 -0 -2.43225e+09 4.38091e+09 2.58908e+08 -2.2314e+08 -2.53522e+08
ITEM: TIMESTEP
2
ITEM: NUMBER OF ATOMS
3
ITEM: BOX BOUNDS xy xz yz pp pp pp
0.0000000000000000e+00 5.0000000000000000e+01 0.0000000000000000e+00
0.0000000000000000e+00 5.0000000000000000e+01 0.0000000000000000e+00
0.0000000000000000e+00 5.0000000000000000e+01 0.0000000000000000e+00
ITEM: ATOMS id type x y z c_1[1] c_1[2] c_1[3] c_1[4] c_1[5] c_1[6] c_1[7] c_1[8] c_1[13] c_1[15] c_1[22]
1 2 0.378614 0.321535 0 -3.20128e+08 -5.35058e+08 -0 -1.06911e+08 -0 -0 1.95979e+09 -1.04277e+09 -7.48481e+08 -1.51819e+09 -1.9788e+09
2 2 0 0 0 -7.80417e+08 -1.97297e+08 -0 -2.32321e+08 -0 -0 -3.2236e+08 2.97791e+09 -1.00882e+09 -1.29611e+09 -1.7235e+09
3 2 0.498 0 0 -5.53419e+08 -3.37761e+08 -0 1.25411e+08 -0 -0 -2.35255e+09 4.1856e+09 2.6034e+08 -2.22075e+08 -2.55304e+08
ITEM: TIMESTEP
3
ITEM: NUMBER OF ATOMS
3
ITEM: BOX BOUNDS xy xz yz pp pp pp
0.0000000000000000e+00 5.0000000000000000e+01 0.0000000000000000e+00
0.0000000000000000e+00 5.0000000000000000e+01 0.0000000000000000e+00
0.0000000000000000e+00 5.0000000000000000e+01 0.0000000000000000e+00
ITEM: ATOMS id type x y z c_1[1] c_1[2] c_1[3] c_1[4] c_1[5] c_1[6] c_1[7] c_1[8] c_1[13] c_1[15] c_1[22]
1 2 0.378614 0.321535 0 -3.27575e+08 -5.41611e+08 -0 -1.14612e+08 -0 -0 2.06724e+09 -1.08821e+09 -7.84907e+08 -1.59454e+09 -2.07762e+09
2 2 0 0 0 -7.74395e+08 -2.0316e+08 -0 -2.39226e+08 -0 -0 -1.26366e+08 2.73249e+09 -1.04668e+09 -1.37354e+09 -1.82054e+09
3 2 0.497 0 0 -5.38583e+08 -3.38451e+08 -0 1.24614e+08 -0 -0 -2.2633e+09 3.98344e+09 2.6177e+08 -2.20995e+08 -2.57082e+08
ITEM: TIMESTEP
4
ITEM: NUMBER OF ATOMS
3
ITEM: BOX BOUNDS xy xz yz pp pp pp
0.0000000000000000e+00 5.0000000000000000e+01 0.0000000000000000e+00
0.0000000000000000e+00 5.0000000000000000e+01 0.0000000000000000e+00
0.0000000000000000e+00 5.0000000000000000e+01 0.0000000000000000e+00
ITEM: ATOMS id type x y z c_1[1] c_1[2] c_1[3] c_1[4] c_1[5] c_1[6] c_1[7] c_1[8] c_1[13] c_1[15] c_1[22]
1 2 0.378614 0.321535 0 -3.35424e+08 -5.48449e+08 -0 -1.22657e+08 -0 -0 2.17161e+09 -1.12812e+09 -8.17626e+08 -1.66768e+09 -2.17296e+09
2 2 0 0 0 -7.69289e+08 -2.09312e+08 -0 -2.46469e+08 -0 -0 7.60484e+07 2.4862e+09 -1.08082e+09 -1.44778e+09 -1.91411e+09
3 2 0.496 0 0 -5.24268e+08 -3.39137e+08 -0 1.23812e+08 -0 -0 -2.16457e+09 3.77488e+09 2.63195e+08 -2.199e+08 -2.58856e+08
ITEM: TIMESTEP
5
ITEM: NUMBER OF ATOMS
3
ITEM: BOX BOUNDS xy xz yz pp pp pp
0.0000000000000000e+00 5.0000000000000000e+01 0.0000000000000000e+00
0.0000000000000000e+00 5.0000000000000000e+01 0.0000000000000000e+00
0.0000000000000000e+00 5.0000000000000000e+01 0.0000000000000000e+00
ITEM: ATOMS id type x y z c_1[1] c_1[2] c_1[3] c_1[4] c_1[5] c_1[6] c_1[7] c_1[8] c_1[13] c_1[15] c_1[22]
1 2 0.378614 0.321535 0 -3.43657e+08 -5.55558e+08 -0 -1.31032e+08 -0 -0 2.2727e+09 -1.16244e+09 -8.46601e+08 -1.73744e+09 -2.2646e+09
2 2 0 0 0 -7.65124e+08 -2.15738e+08 -0 -2.54036e+08 -0 -0 2.84555e+08 2.23957e+09 -1.11122e+09 -1.51865e+09 -2.00398e+09
3 2 0.495 0 0 -5.10515e+08 -3.3982e+08 -0 1.23005e+08 -0 -0 -2.05644e+09 3.5604e+09 2.64617e+08 -2.18788e+08 -2.60625e+08
ITEM: TIMESTEP
6
ITEM: NUMBER OF ATOMS
3
ITEM: BOX BOUNDS xy xz yz pp pp pp
0.0000000000000000e+00 5.0000000000000000e+01 0.0000000000000000e+00
0.0000000000000000e+00 5.0000000000000000e+01 0.0000000000000000e+00
0.0000000000000000e+00 5.0000000000000000e+01 0.0000000000000000e+00
ITEM: ATOMS id type x y z c_1[1] c_1[2] c_1[3] c_1[4] c_1[5] c_1[6] c_1[7] c_1[8] c_1[13] c_1[15] c_1[22]
1 2 0.378614 0.321535 0 -3.52256e+08 -5.62925e+08 -0 -1.3972e+08 -0 -0 2.37032e+09 -1.19118e+09 -8.71818e+08 -1.80364e+09 -2.35234e+09
2 2 0 0 0 -7.61925e+08 -2.22426e+08 -0 -2.61911e+08 -0 -0 4.98799e+08 1.9932e+09 -1.13785e+09 -1.58598e+09 -2.08995e+09
3 2 0.494 0 0 -4.97369e+08 -3.40499e+08 -0 1.22191e+08 -0 -0 -1.93911e+09 3.3406e+09 2.66035e+08 -2.17661e+08 -2.62389e+08
ITEM: TIMESTEP
7
ITEM: NUMBER OF ATOMS
3
ITEM: BOX BOUNDS xy xz yz pp pp pp
0.0000000000000000e+00 5.0000000000000000e+01 0.0000000000000000e+00
0.0000000000000000e+00 5.0000000000000000e+01 0.0000000000000000e+00
0.0000000000000000e+00 5.0000000000000000e+01 0.0000000000000000e+00
ITEM: ATOMS id type x y z c_1[1] c_1[2] c_1[3] c_1[4] c_1[5] c_1[6] c_1[7] c_1[8] c_1[13] c_1[15] c_1[22]
1 2 0.378614 0.321535 0 -3.61201e+08 -5.70536e+08 -0 -1.48706e+08 -0 -0 2.46432e+09 -1.21438e+09 -8.93282e+08 -1.86617e+09 -2.43601e+09
2 2 0 0 0 -7.59716e+08 -2.29362e+08 -0 -2.70078e+08 -0 -0 7.18324e+08 1.74774e+09 -1.16074e+09 -1.64965e+09 -2.17186e+09
3 2 0.493 0 0 -4.84871e+08 -3.41174e+08 -0 1.21373e+08 -0 -0 -1.81286e+09 3.11617e+09 2.67453e+08 -2.16519e+08 -2.64147e+08
ITEM: TIMESTEP
8
ITEM: NUMBER OF ATOMS
3
ITEM: BOX BOUNDS xy xz yz pp pp pp
0.0000000000000000e+00 5.0000000000000000e+01 0.0000000000000000e+00
0.0000000000000000e+00 5.0000000000000000e+01 0.0000000000000000e+00
0.0000000000000000e+00 5.0000000000000000e+01 0.0000000000000000e+00
ITEM: ATOMS id type x y z c_1[1] c_1[2] c_1[3] c_1[4] c_1[5] c_1[6] c_1[7] c_1[8] c_1[13] c_1[15] c_1[22]
1 2 0.378614 0.321535 0 -3.70474e+08 -5.78376e+08 -0 -1.57972e+08 -0 -0 2.55456e+09 -1.23208e+09 -9.11027e+08 -1.92491e+09 -2.51546e+09
2 2 0 0 0 -7.58516e+08 -2.36531e+08 -0 -2.7852e+08 -0 -0 9.42613e+08 1.50391e+09 -1.17989e+09 -1.70955e+09 -2.24956e+09
3 2 0.492 0 0 -4.73063e+08 -3.41846e+08 -0 1.20548e+08 -0 -0 -1.67808e+09 2.88789e+09 2.68867e+08 -2.15362e+08 -2.659e+08
ITEM: TIMESTEP
9
ITEM: NUMBER OF ATOMS
3
ITEM: BOX BOUNDS xy xz yz pp pp pp
0.0000000000000000e+00 5.0000000000000000e+01 0.0000000000000000e+00
0.0000000000000000e+00 5.0000000000000000e+01 0.0000000000000000e+00
0.0000000000000000e+00 5.0000000000000000e+01 0.0000000000000000e+00
ITEM: ATOMS id type x y z c_1[1] c_1[2] c_1[3] c_1[4] c_1[5] c_1[6] c_1[7] c_1[8] c_1[13] c_1[15] c_1[22]
1 2 0.378614 0.321535 0 -3.80053e+08 -5.86432e+08 -0 -1.67501e+08 -0 -0 2.64096e+09 -1.24438e+09 -9.251e+08 -1.97977e+09 -2.59058e+09
2 2 0 0 0 -7.58345e+08 -2.43919e+08 -0 -2.8722e+08 -0 -0 1.17105e+09 1.26255e+09 -1.19538e+09 -1.76559e+09 -2.32293e+09
3 2 0.491 0 0 -4.61983e+08 -3.42513e+08 -0 1.19719e+08 -0 -0 -1.53531e+09 2.65667e+09 2.70277e+08 -2.14189e+08 -2.67648e+08
ITEM: TIMESTEP
10
ITEM: NUMBER OF ATOMS
3
ITEM: BOX BOUNDS xy xz yz pp pp pp
0.0000000000000000e+00 5.0000000000000000e+01 0.0000000000000000e+00
0.0000000000000000e+00 5.0000000000000000e+01 0.0000000000000000e+00
0.0000000000000000e+00 5.0000000000000000e+01 0.0000000000000000e+00
ITEM: ATOMS id type x y z c_1[1] c_1[2] c_1[3] c_1[4] c_1[5] c_1[6] c_1[7] c_1[8] c_1[13] c_1[15] c_1[22]
1 2 0.378614 0.321535 0 -3.89918e+08 -5.94689e+08 -0 -1.77277e+08 -0 -0 2.72344e+09 -1.25139e+09 -9.35561e+08 -2.0307e+09 -2.66128e+09
2 2 0 0 0 -7.59219e+08 -2.51511e+08 -0 -2.9616e+08 -0 -0 1.4029e+09 1.0246e+09 -1.20724e+09 -1.8177e+09 -2.39189e+09
3 2 0.49 0 0 -4.51668e+08 -3.43177e+08 -0 1.18883e+08 -0 -0 -1.38519e+09 2.42357e+09 2.71682e+08 -2.13e+08 -2.6939e+08
ITEM: TIMESTEP
11
ITEM: NUMBER OF ATOMS
3
ITEM: BOX BOUNDS xy xz yz pp pp pp
0.0000000000000000e+00 5.0000000000000000e+01 0.0000000000000000e+00
0.0000000000000000e+00 5.0000000000000000e+01 0.0000000000000000e+00
0.0000000000000000e+00 5.0000000000000000e+01 0.0000000000000000e+00
ITEM: ATOMS id type x y z c_1[1] c_1[2] c_1[3] c_1[4] c_1[5] c_1[6] c_1[7] c_1[8] c_1[13] c_1[15] c_1[22]
1 2 0.378614 0.321535 0 -4.0005e+08 -6.03131e+08 -0 -1.87281e+08 -0 -0 2.80193e+09 -1.25322e+09 -9.42485e+08 -2.07764e+09 -2.72749e+09
2 2 0 0 0 -7.61149e+08 -2.59293e+08 -0 -3.05323e+08 -0 -0 1.6373e+09 7.91133e+08 -1.21557e+09 -1.86584e+09 -2.45637e+09
3 2 0.489 0 0 -4.42149e+08 -3.43837e+08 -0 1.18043e+08 -0 -0 -1.22854e+09 2.18977e+09 2.73083e+08 -2.11795e+08 -2.71126e+08
ITEM: TIMESTEP
12
ITEM: NUMBER OF ATOMS
3
ITEM: BOX BOUNDS xy xz yz pp pp pp
0.0000000000000000e+00 5.0000000000000000e+01 0.0000000000000000e+00
0.0000000000000000e+00 5.0000000000000000e+01 0.0000000000000000e+00
0.0000000000000000e+00 5.0000000000000000e+01 0.0000000000000000e+00
ITEM: ATOMS id type x y z c_1[1] c_1[2] c_1[3] c_1[4] c_1[5] c_1[6] c_1[7] c_1[8] c_1[13] c_1[15] c_1[22]
1 2 0.378614 0.321535 0 -4.10428e+08 -6.11743e+08 -0 -1.97496e+08 -0 -0 2.87642e+09 -1.25001e+09 -9.45957e+08 -2.12055e+09 -2.78915e+09
2 2 0 0 0 -7.64144e+08 -2.6725e+08 -0 -3.14693e+08 -0 -0 1.87317e+09 5.63374e+08 -1.22044e+09 -1.90998e+09 -2.51629e+09
3 2 0.488 0 0 -4.33457e+08 -3.44493e+08 -0 1.17197e+08 -0 -0 -1.06641e+09 1.95666e+09 2.74479e+08 -2.10574e+08 -2.72856e+08
ITEM: TIMESTEP
13
ITEM: NUMBER OF ATOMS
3
ITEM: BOX BOUNDS xy xz yz pp pp pp
0.0000000000000000e+00 5.0000000000000000e+01 0.0000000000000000e+00
0.0000000000000000e+00 5.0000000000000000e+01 0.0000000000000000e+00
0.0000000000000000e+00 5.0000000000000000e+01 0.0000000000000000e+00
ITEM: ATOMS id type x y z c_1[1] c_1[2] c_1[3] c_1[4] c_1[5] c_1[6] c_1[7] c_1[8] c_1[13] c_1[15] c_1[22]
1 2 0.378614 0.321535 0 -4.2103e+08 -6.20512e+08 -0 -2.07905e+08 -0 -0 2.94687e+09 -1.24192e+09 -9.46074e+08 -2.15943e+09 -2.84622e+09
2 2 0 0 0 -7.68205e+08 -2.75366e+08 -0 -3.2425e+08 -0 -0 2.10922e+09 3.42731e+08 -1.22194e+09 -1.95009e+09 -2.57164e+09
3 2 0.487 0 0 -4.25612e+08 -3.45146e+08 -0 1.16345e+08 -0 -0 -9.00049e+08 1.72578e+09 2.7587e+08 -2.09338e+08 -2.7458e+08
ITEM: TIMESTEP
14
ITEM: NUMBER OF ATOMS
3
ITEM: BOX BOUNDS xy xz yz pp pp pp
0.0000000000000000e+00 5.0000000000000000e+01 0.0000000000000000e+00
0.0000000000000000e+00 5.0000000000000000e+01 0.0000000000000000e+00
0.0000000000000000e+00 5.0000000000000000e+01 0.0000000000000000e+00
ITEM: ATOMS id type x y z c_1[1] c_1[2] c_1[3] c_1[4] c_1[5] c_1[6] c_1[7] c_1[8] c_1[13] c_1[15] c_1[22]
1 2 0.378614 0.321535 0 -4.31837e+08 -6.29421e+08 -0 -2.1849e+08 -0 -0 3.0133e+09 -1.2291e+09 -9.42936e+08 -2.19425e+09 -2.89868e+09
2 2 0 0 0 -7.73328e+08 -2.83628e+08 -0 -3.33978e+08 -0 -0 2.34396e+09 1.30812e+08 -1.22019e+09 -1.98617e+09 -2.62238e+09
3 2 0.486 0 0 -4.18633e+08 -3.45794e+08 -0 1.15488e+08 -0 -0 -7.30974e+08 1.49891e+09 2.77256e+08 -2.08086e+08 -2.76297e+08
ITEM: TIMESTEP
15
ITEM: NUMBER OF ATOMS
3
ITEM: BOX BOUNDS xy xz yz pp pp pp
0.0000000000000000e+00 5.0000000000000000e+01 0.0000000000000000e+00
0.0000000000000000e+00 5.0000000000000000e+01 0.0000000000000000e+00
0.0000000000000000e+00 5.0000000000000000e+01 0.0000000000000000e+00
ITEM: ATOMS id type x y z c_1[1] c_1[2] c_1[3] c_1[4] c_1[5] c_1[6] c_1[7] c_1[8] c_1[13] c_1[15] c_1[22]
1 2 0.378614 0.321535 0 -4.42828e+08 -6.38457e+08 -0 -2.29234e+08 -0 -0 3.0757e+09 -1.21174e+09 -9.36656e+08 -2.22504e+09 -2.94652e+09
2 2 0 0 0 -7.79501e+08 -2.92019e+08 -0 -3.43859e+08 -0 -0 2.57558e+09 -7.05462e+07 -1.21529e+09 -2.01822e+09 -2.66852e+09
3 2 0.485 0 0 -4.12525e+08 -3.46438e+08 -0 1.14626e+08 -0 -0 -5.60998e+08 1.27805e+09 2.78636e+08 -2.06818e+08 -2.78008e+08
ITEM: TIMESTEP
16
ITEM: NUMBER OF ATOMS
3
ITEM: BOX BOUNDS xy xz yz pp pp pp
0.0000000000000000e+00 5.0000000000000000e+01 0.0000000000000000e+00
0.0000000000000000e+00 5.0000000000000000e+01 0.0000000000000000e+00
0.0000000000000000e+00 5.0000000000000000e+01 0.0000000000000000e+00
ITEM: ATOMS id type x y z c_1[1] c_1[2] c_1[3] c_1[4] c_1[5] c_1[6] c_1[7] c_1[8] c_1[13] c_1[15] c_1[22]
1 2 0.378614 0.321535 0 -4.53982e+08 -6.47604e+08 -0 -2.40119e+08 -0 -0 3.13412e+09 -1.19001e+09 -9.27347e+08 -2.25179e+09 -2.98975e+09
2 2 0 0 0 -7.86701e+08 -3.00527e+08 -0 -3.53876e+08 -0 -0 2.80194e+09 -2.5924e+08 -1.20736e+09 -2.04626e+09 -2.71004e+09
3 2 0.484 0 0 -4.07289e+08 -3.47077e+08 -0 1.13758e+08 -0 -0 -3.92275e+08 1.0655e+09 2.80011e+08 -2.05534e+08 -2.79712e+08
ITEM: TIMESTEP
17
ITEM: NUMBER OF ATOMS
3
ITEM: BOX BOUNDS xy xz yz pp pp pp
0.0000000000000000e+00 5.0000000000000000e+01 0.0000000000000000e+00
0.0000000000000000e+00 5.0000000000000000e+01 0.0000000000000000e+00
0.0000000000000000e+00 5.0000000000000000e+01 0.0000000000000000e+00
ITEM: ATOMS id type x y z c_1[1] c_1[2] c_1[3] c_1[4] c_1[5] c_1[6] c_1[7] c_1[8] c_1[13] c_1[15] c_1[22]
1 2 0.378614 0.321535 0 -4.65281e+08 -6.56848e+08 -0 -2.51128e+08 -0 -0 3.18858e+09 -1.16409e+09 -9.15129e+08 -2.27455e+09 -3.02839e+09
2 2 0 0 0 -7.94895e+08 -3.09135e+08 -0 -3.64013e+08 -0 -0 3.0205e+09 -4.32868e+08 -1.19651e+09 -2.07032e+09 -2.74698e+09
3 2 0.483 0 0 -4.0291e+08 -3.47713e+08 -0 1.12885e+08 -0 -0 -2.27393e+08 8.63834e+08 2.81381e+08 -2.04235e+08 -2.81408e+08
ITEM: TIMESTEP
18
ITEM: NUMBER OF ATOMS
3
ITEM: BOX BOUNDS xy xz yz pp pp pp
0.0000000000000000e+00 5.0000000000000000e+01 0.0000000000000000e+00
0.0000000000000000e+00 5.0000000000000000e+01 0.0000000000000000e+00
0.0000000000000000e+00 5.0000000000000000e+01 0.0000000000000000e+00
ITEM: ATOMS id type x y z c_1[1] c_1[2] c_1[3] c_1[4] c_1[5] c_1[6] c_1[7] c_1[8] c_1[13] c_1[15] c_1[22]
1 2 0.378614 0.321535 0 -4.76703e+08 -6.66174e+08 -0 -2.62245e+08 -0 -0 3.23913e+09 -1.13418e+09 -9.00127e+08 -2.29335e+09 -3.06245e+09
2 2 0 0 0 -8.04035e+08 -3.1783e+08 -0 -3.74251e+08 -0 -0 3.22827e+09 -5.88688e+08 -1.18287e+09 -2.09043e+09 -2.77935e+09
3 2 0.482 0 0 -3.99361e+08 -3.48344e+08 -0 1.12006e+08 -0 -0 -6.93924e+07 6.75989e+08 2.82745e+08 -2.0292e+08 -2.83098e+08
ITEM: TIMESTEP
19
ITEM: NUMBER OF ATOMS
3
ITEM: BOX BOUNDS xy xz yz pp pp pp
0.0000000000000000e+00 5.0000000000000000e+01 0.0000000000000000e+00
0.0000000000000000e+00 5.0000000000000000e+01 0.0000000000000000e+00
0.0000000000000000e+00 5.0000000000000000e+01 0.0000000000000000e+00
ITEM: ATOMS id type x y z c_1[1] c_1[2] c_1[3] c_1[4] c_1[5] c_1[6] c_1[7] c_1[8] c_1[13] c_1[15] c_1[22]
1 2 0.378614 0.321535 0 -4.8823e+08 -6.75569e+08 -0 -2.73453e+08 -0 -0 3.28582e+09 -1.10048e+09 -8.82465e+08 -2.30822e+09 -3.09197e+09
2 2 0 0 0 -8.14058e+08 -3.26597e+08 -0 -3.84575e+08 -0 -0 3.42172e+09 -7.23574e+08 -1.16657e+09 -2.10663e+09 -2.80719e+09
3 2 0.481 0 0 -3.96597e+08 -3.48972e+08 -0 1.11123e+08 -0 -0 7.81491e+07 5.05286e+08 2.84103e+08 -2.01589e+08 -2.8478e+08
ITEM: TIMESTEP
20
ITEM: NUMBER OF ATOMS
3
ITEM: BOX BOUNDS xy xz yz pp pp pp
0.0000000000000000e+00 5.0000000000000000e+01 0.0000000000000000e+00
0.0000000000000000e+00 5.0000000000000000e+01 0.0000000000000000e+00
0.0000000000000000e+00 5.0000000000000000e+01 0.0000000000000000e+00
ITEM: ATOMS id type x y z c_1[1] c_1[2] c_1[3] c_1[4] c_1[5] c_1[6] c_1[7] c_1[8] c_1[13] c_1[15] c_1[22]
1 2 0.378614 0.321535 0 -4.99843e+08 -6.85018e+08 -0 -2.84735e+08 -0 -0 3.32872e+09 -1.06317e+09 -8.62273e+08 -2.31921e+09 -3.11701e+09
2 2 0 0 0 -8.24881e+08 -3.35424e+08 -0 -3.94969e+08 -0 -0 3.59672e+09 -8.33959e+08 -1.14773e+09 -2.11897e+09 -2.83055e+09
3 2 0.48 0 0 -3.94556e+08 -3.49594e+08 -0 1.10234e+08 -0 -0 2.11032e+08 3.55488e+08 2.85455e+08 -2.00243e+08 -2.86454e+08
ITEM: TIMESTEP
21
ITEM: NUMBER OF ATOMS
3
ITEM: BOX BOUNDS xy xz yz pp pp pp
0.0000000000000000e+00 5.0000000000000000e+01 0.0000000000000000e+00
0.0000000000000000e+00 5.0000000000000000e+01 0.0000000000000000e+00
0.0000000000000000e+00 5.0000000000000000e+01 0.0000000000000000e+00
ITEM: ATOMS id type x y z c_1[1] c_1[2] c_1[3] c_1[4] c_1[5] c_1[6] c_1[7] c_1[8] c_1[13] c_1[15] c_1[22]
1 2 0.378614 0.321535 0 -5.11522e+08 -6.94508e+08 -0 -2.96076e+08 -0 -0 3.36791e+09 -1.02245e+09 -8.39679e+08 -2.32639e+09 -3.1376e+09
2 2 0 0 0 -8.36398e+08 -3.44295e+08 -0 -4.05415e+08 -0 -0 3.74842e+09 -9.15783e+08 -1.12648e+09 -2.12751e+09 -2.84948e+09
3 2 0.479 0 0 -3.93149e+08 -3.50213e+08 -0 1.0934e+08 -0 -0 3.24348e+08 2.30854e+08 2.86801e+08 -1.98881e+08 -2.8812e+08
ITEM: TIMESTEP
22
ITEM: NUMBER OF ATOMS
3
ITEM: BOX BOUNDS xy xz yz pp pp pp
0.0000000000000000e+00 5.0000000000000000e+01 0.0000000000000000e+00
0.0000000000000000e+00 5.0000000000000000e+01 0.0000000000000000e+00
0.0000000000000000e+00 5.0000000000000000e+01 0.0000000000000000e+00
ITEM: ATOMS id type x y z c_1[1] c_1[2] c_1[3] c_1[4] c_1[5] c_1[6] c_1[7] c_1[8] c_1[13] c_1[15] c_1[22]
1 2 0.378614 0.321535 0 -5.2325e+08 -7.04026e+08 -0 -3.07459e+08 -0 -0 3.40345e+09 -9.7853e+08 -8.14813e+08 -2.32981e+09 -3.15382e+09
2 2 0 0 0 -8.48476e+08 -3.53199e+08 -0 -4.159e+08 -0 -0 3.87115e+09 -9.64422e+08 -1.10295e+09 -2.13231e+09 -2.86404e+09
3 2 0.478 0 0 -3.92264e+08 -3.50827e+08 -0 1.0844e+08 -0 -0 4.12324e+08 1.36205e+08 2.88141e+08 -1.97504e+08 -2.89779e+08
ITEM: TIMESTEP
23
ITEM: NUMBER OF ATOMS
3
ITEM: BOX BOUNDS xy xz yz pp pp pp
0.0000000000000000e+00 5.0000000000000000e+01 0.0000000000000000e+00
0.0000000000000000e+00 5.0000000000000000e+01 0.0000000000000000e+00
0.0000000000000000e+00 5.0000000000000000e+01 0.0000000000000000e+00
ITEM: ATOMS id type x y z c_1[1] c_1[2] c_1[3] c_1[4] c_1[5] c_1[6] c_1[7] c_1[8] c_1[13] c_1[15] c_1[22]
1 2 0.378614 0.321535 0 -5.35007e+08 -7.13559e+08 -0 -3.18871e+08 -0 -0 3.43543e+09 -9.316e+08 -7.87802e+08 -2.32954e+09 -3.16571e+09
2 2 0 0 0 -8.60951e+08 -3.62122e+08 -0 -4.26406e+08 -0 -0 3.95825e+09 -9.74617e+08 -1.07728e+09 -2.13343e+09 -2.87428e+09
3 2 0.477 0 0 -3.91753e+08 -3.51437e+08 -0 1.07536e+08 -0 -0 4.68246e+08 7.6999e+07 2.89478e+08 -1.96113e+08 -2.91428e+08
ITEM: TIMESTEP
24
ITEM: NUMBER OF ATOMS
3
ITEM: BOX BOUNDS xy xz yz pp pp pp
0.0000000000000000e+00 5.0000000000000000e+01 0.0000000000000000e+00
0.0000000000000000e+00 5.0000000000000000e+01 0.0000000000000000e+00
0.0000000000000000e+00 5.0000000000000000e+01 0.0000000000000000e+00
ITEM: ATOMS id type x y z c_1[1] c_1[2] c_1[3] c_1[4] c_1[5] c_1[6] c_1[7] c_1[8] c_1[13] c_1[15] c_1[22]
1 2 0.378614 0.321535 0 -5.46778e+08 -7.23093e+08 -0 -3.30294e+08 -0 -0 3.46394e+09 -8.81858e+08 -7.5878e+08 -2.32566e+09 -3.17336e+09
2 2 0 0 0 -8.73623e+08 -3.71051e+08 -0 -4.3692e+08 -0 -0 4.00244e+09 -9.4083e+08 -1.04959e+09 -2.13095e+09 -2.88029e+09
3 2 0.476 0 0 -3.91435e+08 -3.52042e+08 -0 1.06626e+08 -0 -0 4.84736e+08 5.89721e+07 2.90808e+08 -1.94705e+08 -2.9307e+08
ITEM: TIMESTEP
25
ITEM: NUMBER OF ATOMS
3
ITEM: BOX BOUNDS xy xz yz pp pp pp
0.0000000000000000e+00 5.0000000000000000e+01 0.0000000000000000e+00
0.0000000000000000e+00 5.0000000000000000e+01 0.0000000000000000e+00
0.0000000000000000e+00 5.0000000000000000e+01 0.0000000000000000e+00
ITEM: ATOMS id type x y z c_1[1] c_1[2] c_1[3] c_1[4] c_1[5] c_1[6] c_1[7] c_1[8] c_1[13] c_1[15] c_1[22]
1 2 0.378614 0.321535 0 -5.58544e+08 -7.32616e+08 -0 -3.41716e+08 -0 -0 3.48906e+09 -8.29499e+08 -7.27874e+08 -2.31822e+09 -3.17684e+09
2 2 0 0 0 -8.8631e+08 -3.79974e+08 -0 -4.47427e+08 -0 -0 4.02649e+09 -8.87439e+08 -1.02e+09 -2.12494e+09 -2.88214e+09
3 2 0.475 0 0 -3.91144e+08 -3.52642e+08 -0 1.05711e+08 -0 -0 4.84467e+08 5.79401e+07 2.92131e+08 -1.93283e+08 -2.94702e+08
ITEM: TIMESTEP
26
ITEM: NUMBER OF ATOMS
3
ITEM: BOX BOUNDS xy xz yz pp pp pp
0.0000000000000000e+00 5.0000000000000000e+01 0.0000000000000000e+00
0.0000000000000000e+00 5.0000000000000000e+01 0.0000000000000000e+00
0.0000000000000000e+00 5.0000000000000000e+01 0.0000000000000000e+00
ITEM: ATOMS id type x y z c_1[1] c_1[2] c_1[3] c_1[4] c_1[5] c_1[6] c_1[7] c_1[8] c_1[13] c_1[15] c_1[22]
1 2 0.378614 0.321535 0 -5.70289e+08 -7.42117e+08 -0 -3.53121e+08 -0 -0 3.5109e+09 -7.74718e+08 -6.95213e+08 -2.30732e+09 -3.17622e+09
2 2 0 0 0 -8.9897e+08 -3.88878e+08 -0 -4.57913e+08 -0 -0 4.04726e+09 -8.3163e+08 -9.88659e+08 -2.11548e+09 -2.8799e+09
3 2 0.474 0 0 -3.90855e+08 -3.53238e+08 -0 1.04791e+08 -0 -0 4.84207e+08 5.69123e+07 2.93447e+08 -1.91845e+08 -2.96326e+08
ITEM: TIMESTEP
27
ITEM: NUMBER OF ATOMS
3
ITEM: BOX BOUNDS xy xz yz pp pp pp
0.0000000000000000e+00 5.0000000000000000e+01 0.0000000000000000e+00
0.0000000000000000e+00 5.0000000000000000e+01 0.0000000000000000e+00
0.0000000000000000e+00 5.0000000000000000e+01 0.0000000000000000e+00
ITEM: ATOMS id type x y z c_1[1] c_1[2] c_1[3] c_1[4] c_1[5] c_1[6] c_1[7] c_1[8] c_1[13] c_1[15] c_1[22]
1 2 0.378614 0.321535 0 -5.81997e+08 -7.51583e+08 -0 -3.64497e+08 -0 -0 3.52954e+09 -7.17704e+08 -6.60922e+08 -2.29303e+09 -3.1716e+09
2 2 0 0 0 -9.11587e+08 -3.97753e+08 -0 -4.68363e+08 -0 -0 4.06483e+09 -7.73593e+08 -9.55677e+08 -2.10264e+09 -2.87366e+09
3 2 0.473 0 0 -3.90569e+08 -3.5383e+08 -0 1.03866e+08 -0 -0 4.8394e+08 5.5889e+07 2.94755e+08 -1.90391e+08 -2.97941e+08
ITEM: TIMESTEP
28
ITEM: NUMBER OF ATOMS
3
ITEM: BOX BOUNDS xy xz yz pp pp pp
0.0000000000000000e+00 5.0000000000000000e+01 0.0000000000000000e+00
0.0000000000000000e+00 5.0000000000000000e+01 0.0000000000000000e+00
0.0000000000000000e+00 5.0000000000000000e+01 0.0000000000000000e+00
ITEM: ATOMS id type x y z c_1[1] c_1[2] c_1[3] c_1[4] c_1[5] c_1[6] c_1[7] c_1[8] c_1[13] c_1[15] c_1[22]
1 2 0.378614 0.321535 0 -5.93652e+08 -7.61003e+08 -0 -3.75828e+08 -0 -0 3.54509e+09 -6.58646e+08 -6.25125e+08 -2.27544e+09 -3.16305e+09
2 2 0 0 0 -9.24145e+08 -4.06586e+08 -0 -4.78764e+08 -0 -0 4.07929e+09 -7.13516e+08 -9.21182e+08 -2.08652e+09 -2.86351e+09
3 2 0.472 0 0 -3.90286e+08 -3.54416e+08 -0 1.02936e+08 -0 -0 4.83666e+08 5.48703e+07 2.96057e+08 -1.88922e+08 -2.99546e+08
ITEM: TIMESTEP
29
ITEM: NUMBER OF ATOMS
3
ITEM: BOX BOUNDS xy xz yz pp pp pp
0.0000000000000000e+00 5.0000000000000000e+01 0.0000000000000000e+00
0.0000000000000000e+00 5.0000000000000000e+01 0.0000000000000000e+00
0.0000000000000000e+00 5.0000000000000000e+01 0.0000000000000000e+00
ITEM: ATOMS id type x y z c_1[1] c_1[2] c_1[3] c_1[4] c_1[5] c_1[6] c_1[7] c_1[8] c_1[13] c_1[15] c_1[22]
1 2 0.378614 0.321535 0 -6.05239e+08 -7.70366e+08 -0 -3.87103e+08 -0 -0 3.55764e+09 -5.97727e+08 -5.87946e+08 -2.25463e+09 -3.15067e+09
2 2 0 0 0 -9.36629e+08 -4.15368e+08 -0 -4.89104e+08 -0 -0 4.09075e+09 -6.51583e+08 -8.85296e+08 -2.06719e+09 -2.84953e+09
3 2 0.471 0 0 -3.90006e+08 -3.54998e+08 -0 1.02001e+08 -0 -0 4.83385e+08 5.38563e+07 2.9735e+08 -1.87438e+08 -3.01142e+08
ITEM: TIMESTEP
30
ITEM: NUMBER OF ATOMS
3
ITEM: BOX BOUNDS xy xz yz pp pp pp
0.0000000000000000e+00 5.0000000000000000e+01 0.0000000000000000e+00
0.0000000000000000e+00 5.0000000000000000e+01 0.0000000000000000e+00
0.0000000000000000e+00 5.0000000000000000e+01 0.0000000000000000e+00
ITEM: ATOMS id type x y z c_1[1] c_1[2] c_1[3] c_1[4] c_1[5] c_1[6] c_1[7] c_1[8] c_1[13] c_1[15] c_1[22]
1 2 0.378614 0.321535 0 -6.16742e+08 -7.79661e+08 -0 -3.98309e+08 -0 -0 3.56731e+09 -5.35127e+08 -5.49503e+08 -2.23069e+09 -3.13455e+09
2 2 0 0 0 -9.49024e+08 -4.24086e+08 -0 -4.9937e+08 -0 -0 4.09932e+09 -5.87974e+08 -8.48139e+08 -2.04475e+09 -2.83182e+09
3 2 0.47 0 0 -3.89728e+08 -3.55575e+08 -0 1.01061e+08 -0 -0 4.83102e+08 5.28472e+07 2.98636e+08 -1.85939e+08 -3.02728e+08
ITEM: TIMESTEP
31
ITEM: NUMBER OF ATOMS
3
ITEM: BOX BOUNDS xy xz yz pp pp pp
0.0000000000000000e+00 5.0000000000000000e+01 0.0000000000000000e+00
0.0000000000000000e+00 5.0000000000000000e+01 0.0000000000000000e+00
0.0000000000000000e+00 5.0000000000000000e+01 0.0000000000000000e+00
ITEM: ATOMS id type x y z c_1[1] c_1[2] c_1[3] c_1[4] c_1[5] c_1[6] c_1[7] c_1[8] c_1[13] c_1[15] c_1[22]
1 2 0.378614 0.321535 0 -6.28149e+08 -7.88878e+08 -0 -4.09434e+08 -0 -0 3.57419e+09 -4.71024e+08 -5.09914e+08 -2.20371e+09 -3.11479e+09
2 2 0 0 0 -9.61315e+08 -4.32731e+08 -0 -5.0955e+08 -0 -0 4.10511e+09 -5.22867e+08 -8.09828e+08 -2.01928e+09 -2.81048e+09
3 2 0.469 0 0 -3.89453e+08 -3.56147e+08 -0 1.00116e+08 -0 -0 4.82826e+08 5.18432e+07 2.99915e+08 -1.84424e+08 -3.04304e+08
ITEM: TIMESTEP
32
ITEM: NUMBER OF ATOMS
3
ITEM: BOX BOUNDS xy xz yz pp pp pp
0.0000000000000000e+00 5.0000000000000000e+01 0.0000000000000000e+00
0.0000000000000000e+00 5.0000000000000000e+01 0.0000000000000000e+00
0.0000000000000000e+00 5.0000000000000000e+01 0.0000000000000000e+00
ITEM: ATOMS id type x y z c_1[1] c_1[2] c_1[3] c_1[4] c_1[5] c_1[6] c_1[7] c_1[8] c_1[13] c_1[15] c_1[22]
1 2 0.378614 0.321535 0 -6.39445e+08 -7.98007e+08 -0 -4.20465e+08 -0 -0 3.57838e+09 -4.05589e+08 -4.69292e+08 -2.17378e+09 -3.09147e+09
2 2 0 0 0 -9.7349e+08 -4.41292e+08 -0 -5.19631e+08 -0 -0 4.1082e+09 -4.56434e+08 -7.70477e+08 -1.99088e+09 -2.7856e+09
3 2 0.468 0 0 -3.89181e+08 -3.56715e+08 -0 9.9166e+07 -0 -0 4.82543e+08 5.08444e+07 3.01185e+08 -1.82895e+08 -3.0587e+08
ITEM: TIMESTEP
33
ITEM: NUMBER OF ATOMS
3
ITEM: BOX BOUNDS xy xz yz pp pp pp
0.0000000000000000e+00 5.0000000000000000e+01 0.0000000000000000e+00
0.0000000000000000e+00 5.0000000000000000e+01 0.0000000000000000e+00
0.0000000000000000e+00 5.0000000000000000e+01 0.0000000000000000e+00
ITEM: ATOMS id type x y z c_1[1] c_1[2] c_1[3] c_1[4] c_1[5] c_1[6] c_1[7] c_1[8] c_1[13] c_1[15] c_1[22]
1 2 0.378614 0.321535 0 -6.50616e+08 -8.07038e+08 -0 -4.31392e+08 -0 -0 3.58e+09 -3.38991e+08 -4.27751e+08 -2.14098e+09 -3.0647e+09
2 2 0 0 0 -9.85534e+08 -4.49761e+08 -0 -5.29603e+08 -0 -0 4.10871e+09 -3.88842e+08 -7.30198e+08 -1.95963e+09 -2.75727e+09
3 2 0.467 0 0 -3.88912e+08 -3.57277e+08 -0 9.82112e+07 -0 -0 4.82253e+08 4.9851e+07 3.02447e+08 -1.8135e+08 -3.07426e+08
ITEM: TIMESTEP
34
ITEM: NUMBER OF ATOMS
3
ITEM: BOX BOUNDS xy xz yz pp pp pp
0.0000000000000000e+00 5.0000000000000000e+01 0.0000000000000000e+00
0.0000000000000000e+00 5.0000000000000000e+01 0.0000000000000000e+00
0.0000000000000000e+00 5.0000000000000000e+01 0.0000000000000000e+00
ITEM: ATOMS id type x y z c_1[1] c_1[2] c_1[3] c_1[4] c_1[5] c_1[6] c_1[7] c_1[8] c_1[13] c_1[15] c_1[22]
1 2 0.378614 0.321535 0 -6.6165e+08 -8.15962e+08 -0 -4.42203e+08 -0 -0 3.57913e+09 -2.71392e+08 -3.85399e+08 -2.10543e+09 -3.03458e+09
2 2 0 0 0 -9.97434e+08 -4.58127e+08 -0 -5.39455e+08 -0 -0 4.10673e+09 -3.20255e+08 -6.89099e+08 -1.92564e+09 -2.7256e+09
3 2 0.466 0 0 -3.88646e+08 -3.57835e+08 -0 9.72515e+07 -0 -0 4.81954e+08 4.88631e+07 3.037e+08 -1.79791e+08 -3.08972e+08
ITEM: TIMESTEP
35
ITEM: NUMBER OF ATOMS
3
ITEM: BOX BOUNDS xy xz yz pp pp pp
0.0000000000000000e+00 5.0000000000000000e+01 0.0000000000000000e+00
0.0000000000000000e+00 5.0000000000000000e+01 0.0000000000000000e+00
0.0000000000000000e+00 5.0000000000000000e+01 0.0000000000000000e+00
ITEM: ATOMS id type x y z c_1[1] c_1[2] c_1[3] c_1[4] c_1[5] c_1[6] c_1[7] c_1[8] c_1[13] c_1[15] c_1[22]
1 2 0.378614 0.321535 0 -6.72535e+08 -8.2477e+08 -0 -4.52889e+08 -0 -0 3.5759e+09 -2.02951e+08 -3.4234e+08 -2.06719e+09 -3.0012e+09
2 2 0 0 0 -1.00918e+09 -4.66383e+08 -0 -5.49176e+08 -0 -0 4.10238e+09 -2.50832e+08 -6.47285e+08 -1.88898e+09 -2.69069e+09
3 2 0.465 0 0 -3.88382e+08 -3.58387e+08 -0 9.6287e+07 -0 -0 4.81655e+08 4.78809e+07 3.04945e+08 -1.78216e+08 -3.10506e+08
ITEM: TIMESTEP
36
ITEM: NUMBER OF ATOMS
3
ITEM: BOX BOUNDS xy xz yz pp pp pp
0.0000000000000000e+00 5.0000000000000000e+01 0.0000000000000000e+00
0.0000000000000000e+00 5.0000000000000000e+01 0.0000000000000000e+00
0.0000000000000000e+00 5.0000000000000000e+01 0.0000000000000000e+00
ITEM: ATOMS id type x y z c_1[1] c_1[2] c_1[3] c_1[4] c_1[5] c_1[6] c_1[7] c_1[8] c_1[13] c_1[15] c_1[22]
1 2 0.378614 0.321535 0 -6.83259e+08 -8.33453e+08 -0 -4.63438e+08 -0 -0 3.57039e+09 -1.33821e+08 -2.98678e+08 -2.02637e+09 -2.96467e+09
2 2 0 0 0 -1.02076e+09 -4.74519e+08 -0 -5.58756e+08 -0 -0 4.09576e+09 -1.80725e+08 -6.0486e+08 -1.84975e+09 -2.65264e+09
3 2 0.464 0 0 -3.88122e+08 -3.58934e+08 -0 9.53178e+07 -0 -0 4.81361e+08 4.69046e+07 3.06182e+08 -1.76627e+08 -3.1203e+08
ITEM: TIMESTEP
37
ITEM: NUMBER OF ATOMS
3
ITEM: BOX BOUNDS xy xz yz pp pp pp
0.0000000000000000e+00 5.0000000000000000e+01 0.0000000000000000e+00
0.0000000000000000e+00 5.0000000000000000e+01 0.0000000000000000e+00
0.0000000000000000e+00 5.0000000000000000e+01 0.0000000000000000e+00
ITEM: ATOMS id type x y z c_1[1] c_1[2] c_1[3] c_1[4] c_1[5] c_1[6] c_1[7] c_1[8] c_1[13] c_1[15] c_1[22]
1 2 0.378614 0.321535 0 -6.93811e+08 -8.42003e+08 -0 -4.73842e+08 -0 -0 3.56271e+09 -6.41506e+07 -2.54512e+08 -1.98307e+09 -2.92508e+09
2 2 0 0 0 -1.03216e+09 -4.82527e+08 -0 -5.68185e+08 -0 -0 4.08696e+09 -1.10085e+08 -5.61921e+08 -1.80805e+09 -2.61154e+09
3 2 0.463 0 0 -3.87865e+08 -3.59477e+08 -0 9.43438e+07 -0 -0 4.81059e+08 4.59342e+07 3.07409e+08 -1.75023e+08 -3.13542e+08
ITEM: TIMESTEP
38
ITEM: NUMBER OF ATOMS
3
ITEM: BOX BOUNDS xy xz yz pp pp pp
0.0000000000000000e+00 5.0000000000000000e+01 0.0000000000000000e+00
0.0000000000000000e+00 5.0000000000000000e+01 0.0000000000000000e+00
0.0000000000000000e+00 5.0000000000000000e+01 0.0000000000000000e+00
ITEM: ATOMS id type x y z c_1[1] c_1[2] c_1[3] c_1[4] c_1[5] c_1[6] c_1[7] c_1[8] c_1[13] c_1[15] c_1[22]
1 2 0.378614 0.321535 0 -7.04179e+08 -8.50413e+08 -0 -4.8409e+08 -0 -0 3.55296e+09 5.91635e+06 -2.09938e+08 -1.93737e+09 -2.88255e+09
2 2 0 0 0 -1.04336e+09 -4.90399e+08 -0 -5.77455e+08 -0 -0 4.07609e+09 -3.90537e+07 -5.18565e+08 -1.76396e+09 -2.5675e+09
3 2 0.462 0 0 -3.87611e+08 -3.60014e+08 -0 9.3365e+07 -0 -0 4.80748e+08 4.49701e+07 3.08627e+08 -1.73404e+08 -3.15044e+08
ITEM: TIMESTEP
39
ITEM: NUMBER OF ATOMS
3