ITEM: TIMESTEP
0
ITEM: NUMBER OF ATOMS
3
ITEM: BOX BOUNDS xy xz yz pp pp pp
0.0000000000000000e+00 5.0000000000000000e+01 0.0000000000000000e+00
0.0000000000000000e+00 5.0000000000000000e+01 0.0000000000000000e+00
0.0000000000000000e+00 5.0000000000000000e+01 0.0000000000000000e+00
ITEM: ATOMS id type x y z c_1[1] c_1[2] c_1[3] c_1[4] c_1[5] c_1[6] c_1[7] c_1[22]
1 2 0.378614 0.321535 0 -2.96132e+08 -5.10216e+08 -0 -8.74153e+07 -0 -0 1.2529e+09 -1.67225e+09
2 2 0 0 0 -7.62936e+08 -1.8008e+08 -0 -2.11259e+08 -0 -0 -1.60263e+09 -1.42564e+09
3 2 0.5 0 0 -5.60611e+08 -3.30136e+08 -0 1.25029e+08 -0 -0 -2.92583e+09 -2.46605e+08
ITEM: TIMESTEP
1
ITEM: NUMBER OF ATOMS
3
ITEM: BOX BOUNDS xy xz yz pp pp pp
0.0000000000000000e+00 5.0005000000000003e+01 5.0000000000025580e-03
0.0000000000000000e+00 5.0000000000000000e+01 0.0000000000000000e+00
0.0000000000000000e+00 5.0000000000000000e+01 0.0000000000000000e+00
ITEM: ATOMS id type x y z c_1[1] c_1[2] c_1[3] c_1[4] c_1[5] c_1[6] c_1[7] c_1[22]
1 2 0.378646 0.321535 0 -2.96132e+08 -5.10216e+08 -0 -8.74153e+07 -0 -0 1.2529e+09 -1.67242e+09
2 2 0 0 0 -7.62936e+08 -1.8008e+08 -0 -2.11259e+08 -0 -0 -1.60263e+09 -1.42582e+09
3 2 0.5 0 0 -5.60611e+08 -3.30136e+08 -0 1.25029e+08 -0 -0 -2.92583e+09 -2.46605e+08
ITEM: TIMESTEP
2
ITEM: NUMBER OF ATOMS
3
ITEM: BOX BOUNDS xy xz yz pp pp pp
0.0000000000000000e+00 5.0009999999999998e+01 9.9999999999980105e-03
0.0000000000000000e+00 5.0000000000000000e+01 0.0000000000000000e+00
0.0000000000000000e+00 5.0000000000000000e+01 0.0000000000000000e+00
ITEM: ATOMS id type x y z c_1[1] c_1[2] c_1[3] c_1[4] c_1[5] c_1[6] c_1[7] c_1[22]
1 2 0.378678 0.321535 0 -2.96299e+08 -5.10343e+08 -0 -8.75822e+07 -0 -0 1.25483e+09 -1.67506e+09
2 2 0 0 0 -7.62818e+08 -1.80186e+08 -0 -2.11401e+08 -0 -0 -1.59851e+09 -1.4284e+09
3 2 0.5 0 0 -5.60282e+08 -3.30158e+08 -0 1.25005e+08 -0 -0 -2.92361e+09 -2.4666e+08
ITEM: TIMESTEP
3
ITEM: NUMBER OF ATOMS
3
ITEM: BOX BOUNDS xy xz yz pp pp pp
0.0000000000000000e+00 5.0015000000000001e+01 1.5000000000000568e-02
0.0000000000000000e+00 5.0000000000000000e+01 0.0000000000000000e+00
0.0000000000000000e+00 5.0000000000000000e+01 0.0000000000000000e+00
ITEM: ATOMS id type x y z c_1[1] c_1[2] c_1[3] c_1[4] c_1[5] c_1[6] c_1[7] c_1[22]
1 2 0.37871 0.321535 0 -2.96466e+08 -5.10471e+08 -0 -8.77493e+07 -0 -0 1.25676e+09 -1.67786e+09
2 2 0 0 0 -7.62699e+08 -1.80291e+08 -0 -2.11544e+08 -0 -0 -1.59438e+09 -1.43115e+09
3 2 0.5 0 0 -5.59953e+08 -3.3018e+08 -0 1.2498e+08 -0 -0 -2.92139e+09 -2.46716e+08
ITEM: TIMESTEP
4
ITEM: NUMBER OF ATOMS
3
ITEM: BOX BOUNDS xy xz yz pp pp pp
0.0000000000000000e+00 5.0020000000000003e+01 2.0000000000003126e-02
0.0000000000000000e+00 5.0000000000000000e+01 0.0000000000000000e+00
0.0000000000000000e+00 5.0000000000000000e+01 0.0000000000000000e+00
ITEM: ATOMS id type x y z c_1[1] c_1[2] c_1[3] c_1[4] c_1[5] c_1[6] c_1[7] c_1[22]
1 2 0.378743 0.321535 0 -2.96634e+08 -5.10599e+08 -0 -8.79168e+07 -0 -0 1.25869e+09 -1.68067e+09
2 2 0 0 0 -7.62581e+08 -1.80397e+08 -0 -2.11687e+08 -0 -0 -1.59024e+09 -1.4339e+09
3 2 0.5 0 0 -5.59624e+08 -3.30202e+08 -0 1.24955e+08 -0 -0 -2.91916e+09 -2.46772e+08
ITEM: TIMESTEP
5
ITEM: NUMBER OF ATOMS
3
ITEM: BOX BOUNDS xy xz yz pp pp pp
0.0000000000000000e+00 5.0024999999999999e+01 2.4999999999998579e-02
0.0000000000000000e+00 5.0000000000000000e+01 0.0000000000000000e+00
0.0000000000000000e+00 5.0000000000000000e+01 0.0000000000000000e+00
ITEM: ATOMS id type x y z c_1[1] c_1[2] c_1[3] c_1[4] c_1[5] c_1[6] c_1[7] c_1[22]
1 2 0.378775 0.321535 0 -2.96802e+08 -5.10727e+08 -0 -8.80845e+07 -0 -0 1.26062e+09 -1.68348e+09
2 2 0 0 0 -7.62464e+08 -1.80503e+08 -0 -2.1183e+08 -0 -0 -1.58611e+09 -1.43665e+09
3 2 0.5 0 0 -5.59295e+08 -3.30224e+08 -0 1.24931e+08 -0 -0 -2.91694e+09 -2.46828e+08
ITEM: TIMESTEP
6
ITEM: NUMBER OF ATOMS
3
ITEM: BOX BOUNDS xy xz yz pp pp pp
0.0000000000000000e+00 5.0030000000000001e+01 3.0000000000001137e-02
0.0000000000000000e+00 5.0000000000000000e+01 0.0000000000000000e+00
0.0000000000000000e+00 5.0000000000000000e+01 0.0000000000000000e+00
ITEM: ATOMS id type x y z c_1[1] c_1[2] c_1[3] c_1[4] c_1[5] c_1[6] c_1[7] c_1[22]
1 2 0.378807 0.321535 0 -2.96971e+08 -5.10855e+08 -0 -8.82525e+07 -0 -0 1.26255e+09 -1.68628e+09
2 2 0 0 0 -7.62347e+08 -1.8061e+08 -0 -2.11973e+08 -0 -0 -1.58197e+09 -1.4394e+09
3 2 0.5 0 0 -5.58966e+08 -3.30246e+08 -0 1.24906e+08 -0 -0 -2.9147e+09 -2.46884e+08
ITEM: TIMESTEP
7
ITEM: NUMBER OF ATOMS
3
ITEM: BOX BOUNDS xy xz yz pp pp pp
0.0000000000000000e+00 5.0034999999999997e+01 3.4999999999996589e-02
0.0000000000000000e+00 5.0000000000000000e+01 0.0000000000000000e+00
0.0000000000000000e+00 5.0000000000000000e+01 0.0000000000000000e+00
ITEM: ATOMS id type x y z c_1[1] c_1[2] c_1[3] c_1[4] c_1[5] c_1[6] c_1[7] c_1[22]
1 2 0.378839 0.321535 0 -2.97139e+08 -5.10984e+08 -0 -8.84208e+07 -0 -0 1.26447e+09 -1.68909e+09
2 2 0 0 0 -7.6223e+08 -1.80716e+08 -0 -2.12117e+08 -0 -0 -1.57783e+09 -1.44215e+09
3 2 0.5 0 0 -5.58637e+08 -3.30268e+08 -0 1.24882e+08 -0 -0 -2.91246e+09 -2.4694e+08
ITEM: TIMESTEP
8
ITEM: NUMBER OF ATOMS
3
ITEM: BOX BOUNDS xy xz yz pp pp pp
0.0000000000000000e+00 5.0039999999999999e+01 3.9999999999999147e-02
0.0000000000000000e+00 5.0000000000000000e+01 0.0000000000000000e+00
0.0000000000000000e+00 5.0000000000000000e+01 0.0000000000000000e+00
ITEM: ATOMS id type x y z c_1[1] c_1[2] c_1[3] c_1[4] c_1[5] c_1[6] c_1[7] c_1[22]
1 2 0.378871 0.321535 0 -2.97309e+08 -5.11113e+08 -0 -8.85893e+07 -0 -0 1.26639e+09 -1.69189e+09
2 2 0 0 0 -7.62114e+08 -1.80823e+08 -0 -2.1226e+08 -0 -0 -1.57368e+09 -1.44489e+09
3 2 0.5 0 0 -5.58308e+08 -3.3029e+08 -0 1.24857e+08 -0 -0 -2.91022e+09 -2.46996e+08
ITEM: TIMESTEP
9
ITEM: NUMBER OF ATOMS
3
ITEM: BOX BOUNDS xy xz yz pp pp pp
0.0000000000000000e+00 5.0045000000000002e+01 4.5000000000001705e-02
0.0000000000000000e+00 5.0000000000000000e+01 0.0000000000000000e+00
0.0000000000000000e+00 5.0000000000000000e+01 0.0000000000000000e+00
ITEM: ATOMS id type x y z c_1[1] c_1[2] c_1[3] c_1[4] c_1[5] c_1[6] c_1[7] c_1[22]
1 2 0.378903 0.321535 0 -2.97478e+08 -5.11242e+08 -0 -8.87582e+07 -0 -0 1.26831e+09 -1.69469e+09
2 2 0 0 0 -7.61999e+08 -1.8093e+08 -0 -2.12405e+08 -0 -0 -1.56954e+09 -1.44764e+09
3 2 0.5 0 0 -5.5798e+08 -3.30312e+08 -0 1.24832e+08 -0 -0 -2.90797e+09 -2.47052e+08
ITEM: TIMESTEP
10
ITEM: NUMBER OF ATOMS
3
ITEM: BOX BOUNDS xy xz yz pp pp pp
0.0000000000000000e+00 5.0049999999999997e+01 4.9999999999997158e-02
0.0000000000000000e+00 5.0000000000000000e+01 0.0000000000000000e+00
0.0000000000000000e+00 5.0000000000000000e+01 0.0000000000000000e+00
ITEM: ATOMS id type x y z c_1[1] c_1[2] c_1[3] c_1[4] c_1[5] c_1[6] c_1[7] c_1[22]
1 2 0.378936 0.321535 0 -2.97648e+08 -5.11371e+08 -0 -8.89273e+07 -0 -0 1.27023e+09 -1.69749e+09
2 2 0 0 0 -7.61883e+08 -1.81037e+08 -0 -2.12549e+08 -0 -0 -1.56539e+09 -1.45039e+09
3 2 0.5 0 0 -5.57651e+08 -3.30334e+08 -0 1.24808e+08 -0 -0 -2.90571e+09 -2.47108e+08
ITEM: TIMESTEP
11
ITEM: NUMBER OF ATOMS
3
ITEM: BOX BOUNDS xy xz yz pp pp pp
0.0000000000000000e+00 5.0055000000000000e+01 5.4999999999999716e-02
0.0000000000000000e+00 5.0000000000000000e+01 0.0000000000000000e+00
0.0000000000000000e+00 5.0000000000000000e+01 0.0000000000000000e+00
ITEM: ATOMS id type x y z c_1[1] c_1[2] c_1[3] c_1[4] c_1[5] c_1[6] c_1[7] c_1[22]
1 2 0.378968 0.321535 0 -2.97818e+08 -5.115e+08 -0 -8.90967e+07 -0 -0 1.27214e+09 -1.70029e+09
2 2 0 0 0 -7.61768e+08 -1.81144e+08 -0 -2.12694e+08 -0 -0 -1.56123e+09 -1.45313e+09
3 2 0.5 0 0 -5.57323e+08 -3.30356e+08 -0 1.24783e+08 -0 -0 -2.90346e+09 -2.47163e+08
ITEM: TIMESTEP
12
ITEM: NUMBER OF ATOMS
3
ITEM: BOX BOUNDS xy xz yz pp pp pp
0.0000000000000000e+00 5.0060000000000002e+01 6.0000000000002274e-02
0.0000000000000000e+00 5.0000000000000000e+01 0.0000000000000000e+00
0.0000000000000000e+00 5.0000000000000000e+01 0.0000000000000000e+00
ITEM: ATOMS id type x y z c_1[1] c_1[2] c_1[3] c_1[4] c_1[5] c_1[6] c_1[7] c_1[22]
1 2 0.379 0.321535 0 -2.97989e+08 -5.1163e+08 -0 -8.92664e+07 -0 -0 1.27406e+09 -1.70309e+09
2 2 0 0 0 -7.61654e+08 -1.81252e+08 -0 -2.12839e+08 -0 -0 -1.55708e+09 -1.45587e+09
3 2 0.5 0 0 -5.56994e+08 -3.30378e+08 -0 1.24758e+08 -0 -0 -2.90119e+09 -2.47219e+08
ITEM: TIMESTEP
13
ITEM: NUMBER OF ATOMS
3
ITEM: BOX BOUNDS xy xz yz pp pp pp
0.0000000000000000e+00 5.0064999999999998e+01 6.4999999999997726e-02
0.0000000000000000e+00 5.0000000000000000e+01 0.0000000000000000e+00
0.0000000000000000e+00 5.0000000000000000e+01 0.0000000000000000e+00
ITEM: ATOMS id type x y z c_1[1] c_1[2] c_1[3] c_1[4] c_1[5] c_1[6] c_1[7] c_1[22]
1 2 0.379032 0.321535 0 -2.9816e+08 -5.1176e+08 -0 -8.94364e+07 -0 -0 1.27597e+09 -1.70589e+09
2 2 0 0 0 -7.6154e+08 -1.8136e+08 -0 -2.12984e+08 -0 -0 -1.55292e+09 -1.45862e+09
3 2 0.5 0 0 -5.56666e+08 -3.304e+08 -0 1.24734e+08 -0 -0 -2.89893e+09 -2.47275e+08
ITEM: TIMESTEP
14
ITEM: NUMBER OF ATOMS
3
ITEM: BOX BOUNDS xy xz yz pp pp pp
0.0000000000000000e+00 5.0070000000000000e+01 7.0000000000000284e-02
0.0000000000000000e+00 5.0000000000000000e+01 0.0000000000000000e+00
0.0000000000000000e+00 5.0000000000000000e+01 0.0000000000000000e+00
ITEM: ATOMS id type x y z c_1[1] c_1[2] c_1[3] c_1[4] c_1[5] c_1[6] c_1[7] c_1[22]
1 2 0.379064 0.321535 0 -2.98331e+08 -5.1189e+08 -0 -8.96066e+07 -0 -0 1.27788e+09 -1.70869e+09
2 2 0 0 0 -7.61426e+08 -1.81468e+08 -0 -2.13129e+08 -0 -0 -1.54876e+09 -1.46136e+09
3 2 0.5 0 0 -5.56338e+08 -3.30422e+08 -0 1.24709e+08 -0 -0 -2.89665e+09 -2.47331e+08
ITEM: TIMESTEP
15
ITEM: NUMBER OF ATOMS
3
ITEM: BOX BOUNDS xy xz yz pp pp pp
0.0000000000000000e+00 5.0075000000000003e+01 7.5000000000002842e-02
0.0000000000000000e+00 5.0000000000000000e+01 0.0000000000000000e+00
0.0000000000000000e+00 5.0000000000000000e+01 0.0000000000000000e+00
ITEM: ATOMS id type x y z c_1[1] c_1[2] c_1[3] c_1[4] c_1[5] c_1[6] c_1[7] c_1[22]
1 2 0.379096 0.321535 0 -2.98503e+08 -5.1202e+08 -0 -8.97771e+07 -0 -0 1.27979e+09 -1.71149e+09
2 2 0 0 0 -7.61313e+08 -1.81576e+08 -0 -2.13275e+08 -0 -0 -1.54459e+09 -1.4641e+09
3 2 0.5 0 0 -5.56009e+08 -3.30444e+08 -0 1.24684e+08 -0 -0 -2.89438e+09 -2.47387e+08
ITEM: TIMESTEP
16
ITEM: NUMBER OF ATOMS
3
ITEM: BOX BOUNDS xy xz yz pp pp pp
0.0000000000000000e+00 5.0079999999999998e+01 7.9999999999998295e-02
0.0000000000000000e+00 5.0000000000000000e+01 0.0000000000000000e+00
0.0000000000000000e+00 5.0000000000000000e+01 0.0000000000000000e+00
ITEM: ATOMS id type x y z c_1[1] c_1[2] c_1[3] c_1[4] c_1[5] c_1[6] c_1[7] c_1[22]
1 2 0.379128 0.321535 0 -2.98675e+08 -5.1215e+08 -0 -8.99479e+07 -0 -0 1.28169e+09 -1.71428e+09
2 2 0 0 0 -7.612e+08 -1.81684e+08 -0 -2.13421e+08 -0 -0 -1.54043e+09 -1.46684e+09
3 2 0.5 0 0 -5.55681e+08 -3.30466e+08 -0 1.2466e+08 -0 -0 -2.89209e+09 -2.47443e+08
ITEM: TIMESTEP
17
ITEM: NUMBER OF ATOMS
3
ITEM: BOX BOUNDS xy xz yz pp pp pp
0.0000000000000000e+00 5.0085000000000001e+01 8.5000000000000853e-02
0.0000000000000000e+00 5.0000000000000000e+01 0.0000000000000000e+00
0.0000000000000000e+00 5.0000000000000000e+01 0.0000000000000000e+00
ITEM: ATOMS id type x y z c_1[1] c_1[2] c_1[3] c_1[4] c_1[5] c_1[6] c_1[7] c_1[22]
1 2 0.379161 0.321535 0 -2.98848e+08 -5.12281e+08 -0 -9.0119e+07 -0 -0 1.2836e+09 -1.71708e+09
2 2 0 0 0 -7.61088e+08 -1.81793e+08 -0 -2.13568e+08 -0 -0 -1.53626e+09 -1.46958e+09
3 2 0.5 0 0 -5.55353e+08 -3.30488e+08 -0 1.24635e+08 -0 -0 -2.88981e+09 -2.47499e+08
ITEM: TIMESTEP
18
ITEM: NUMBER OF ATOMS
3
ITEM: BOX BOUNDS xy xz yz pp pp pp
0.0000000000000000e+00 5.0090000000000003e+01 9.0000000000003411e-02
0.0000000000000000e+00 5.0000000000000000e+01 0.0000000000000000e+00
0.0000000000000000e+00 5.0000000000000000e+01 0.0000000000000000e+00
ITEM: ATOMS id type x y z c_1[1] c_1[2] c_1[3] c_1[4] c_1[5] c_1[6] c_1[7] c_1[22]
1 2 0.379193 0.321535 0 -2.9902e+08 -5.12412e+08 -0 -9.02904e+07 -0 -0 1.2855e+09 -1.71987e+09
2 2 0 0 0 -7.60976e+08 -1.81902e+08 -0 -2.13714e+08 -0 -0 -1.53209e+09 -1.47231e+09
3 2 0.5 0 0 -5.55025e+08 -3.3051e+08 -0 1.2461e+08 -0 -0 -2.88751e+09 -2.47555e+08
ITEM: TIMESTEP
19
ITEM: NUMBER OF ATOMS
3
ITEM: BOX BOUNDS xy xz yz pp pp pp
0.0000000000000000e+00 5.0094999999999999e+01 9.4999999999998863e-02
0.0000000000000000e+00 5.0000000000000000e+01 0.0000000000000000e+00
0.0000000000000000e+00 5.0000000000000000e+01 0.0000000000000000e+00
ITEM: ATOMS id type x y z c_1[1] c_1[2] c_1[3] c_1[4] c_1[5] c_1[6] c_1[7] c_1[22]
1 2 0.379225 0.321535 0 -2.99193e+08 -5.12543e+08 -0 -9.0462e+07 -0 -0 1.2874e+09 -1.72266e+09
2 2 0 0 0 -7.60865e+08 -1.82011e+08 -0 -2.13861e+08 -0 -0 -1.52791e+09 -1.47505e+09
3 2 0.5 0 0 -5.54697e+08 -3.30532e+08 -0 1.24586e+08 -0 -0 -2.88522e+09 -2.4761e+08
ITEM: TIMESTEP
20
ITEM: NUMBER OF ATOMS
3
ITEM: BOX BOUNDS xy xz yz pp pp pp
0.0000000000000000e+00 5.0100000000000001e+01 1.0000000000000142e-01
0.0000000000000000e+00 5.0000000000000000e+01 0.0000000000000000e+00
0.0000000000000000e+00 5.0000000000000000e+01 0.0000000000000000e+00
ITEM: ATOMS id type x y z c_1[1] c_1[2] c_1[3] c_1[4] c_1[5] c_1[6] c_1[7] c_1[22]
1 2 0.379257 0.321535 0 -2.99367e+08 -5.12674e+08 -0 -9.06339e+07 -0 -0 1.28929e+09 -1.72545e+09
2 2 0 0 0 -7.60754e+08 -1.8212e+08 -0 -2.14008e+08 -0 -0 -1.52374e+09 -1.47779e+09
3 2 0.5 0 0 -5.5437e+08 -3.30554e+08 -0 1.24561e+08 -0 -0 -2.88292e+09 -2.47666e+08
