ITEM: TIMESTEP
0
ITEM: NUMBER OF ATOMS
3
ITEM: BOX BOUNDS xy xz yz pp pp pp
0.0000000000000000e+00 5.0000000000000000e+01 0.0000000000000000e+00
0.0000000000000000e+00 5.0000000000000000e+01 0.0000000000000000e+00
0.0000000000000000e+00 5.0000000000000000e+01 0.0000000000000000e+00
ITEM: ATOMS id type x y z c_1[1] c_1[2] c_1[3] c_1[4] c_1[22]
1 2 0.400088 0.44 0 -2.84076e+10 -3.06598e+10 -0 -8.30588e+09 1.06259e+11
2 2 0 0 0 -4.50237e+10 -1.34357e+10 -0 -1.26304e+10 1.01468e+11
3 2 0.5 0 0 -2.49509e+10 -1.7224e+10 -0 1.7939e+10 4.79079e+09
ITEM: TIMESTEP
1
ITEM: NUMBER OF ATOMS
3
ITEM: BOX BOUNDS xy xz yz pp pp pp
0.0000000000000000e+00 5.0000000000000000e+01 0.0000000000000000e+00
0.0000000000000000e+00 5.0000000000000000e+01 0.0000000000000000e+00
0.0000000000000000e+00 5.0000000000000000e+01 0.0000000000000000e+00
ITEM: ATOMS id type x y z c_1[1] c_1[2] c_1[3] c_1[4] c_1[22]
1 2 0.400088 0.44 0 -2.84076e+10 -3.06595e+10 -0 -8.30574e+09 1.06256e+11
2 2 0 0 0 -4.50237e+10 -1.34356e+10 -0 -1.26303e+10 1.01465e+11
3 2 0.500001 0 0 -2.49509e+10 -1.72239e+10 -0 1.79391e+10 4.79125e+09
ITEM: TIMESTEP
2
ITEM: NUMBER OF ATOMS
3
ITEM: BOX BOUNDS xy xz yz pp pp pp
0.0000000000000000e+00 5.0000000000000000e+01 0.0000000000000000e+00
0.0000000000000000e+00 5.0000000000000000e+01 0.0000000000000000e+00
0.0000000000000000e+00 5.0000000000000000e+01 0.0000000000000000e+00
ITEM: ATOMS id type x y z c_1[1] c_1[2] c_1[3] c_1[4] c_1[22]
1 2 0.400088 0.44 0 -2.84076e+10 -3.06593e+10 -0 -8.30561e+09 1.06254e+11
2 2 0 0 0 -4.50236e+10 -1.34355e+10 -0 -1.26302e+10 1.01463e+11
3 2 0.500002 0 0 -2.49509e+10 -1.72238e+10 -0 1.79392e+10 4.79171e+09
