ITEM: TIMESTEP
0
ITEM: NUMBER OF ATOMS
665
ITEM: BOX BOUNDS xy xz yz pp pp pp
-1.0000000000000000e+01 1.0000000000000000e+01 0.0000000000000000e+00
-1.0000000000000000e+01 1.0000000000000000e+01 0.0000000000000000e+00
-1.0000000000000000e+01 1.0000000000000000e+01 0.0000000000000000e+00
ITEM: ATOMS id type x y z c_1[1] c_1[2] c_1[3] c_1[4] c_1[5] c_1[6] c_1[7] c_1[8] c_1[13] c_1[15] c_1[22]
1 2 -7.4 -9.25 -9.25 -588080 402051 326424 214901 -169883 511313 1.23933e+07 4.30192e+06 3.24315e+07 6.51245e+06 1.29598e+07
2 2 -3.7 -9.25 -9.25 -375393 614442 461585 807.44 807.44 341880 1.17421e+07 3.49355e+06 3.18929e+07 7.34597e+06 1.23186e+07
3 2 0 -9.25 -9.25 -373479 614451 461594 828.836 828.836 341880 1.16744e+07 3.52259e+06 3.18929e+07 7.34547e+06 1.23173e+07
4 2 3.7 -9.25 -9.25 -373585 614442 461585 850.284 850.284 341880 1.16787e+07 3.52103e+06 3.18929e+07 7.34496e+06 1.23186e+07
5 2 7.4 -9.25 -9.25 -586271 402051 326424 -214073 170712 511313 1.233e+07 4.32941e+06 3.24315e+07 8.17849e+06 1.29598e+07
6 2 -9.25 -7.4 -9.25 248811 -434901 326424 214923 361989 -20553.4 3.30224e+07 3.99589e+06 1.19687e+07 1.7642e+06 7.03541e+06
7 2 -5.55 -7.4 -9.25 -2.13911e+06 -1.83037e+06 1.34996e+06 -4148.21 -788.703 637358 1.98841e+07 7.805e+06 1.90286e+07 4.13686e+06 1.05279e+07
8 2 -7.4 -5.55 -9.25 -1.78766e+06 -1.94584e+06 1.34996e+06 -122133 -678960 1.31553e+06 1.92172e+07 8.00414e+06 1.97175e+07 4.28312e+06 1.00337e+07
9 2 -1.85 -7.4 -9.25 -2.12577e+06 -1.824e+06 1.35085e+06 0.253677 502.295 638214 1.93089e+07 8.14468e+06 1.90203e+07 4.12826e+06 1.05295e+07
10 2 -3.7 -5.55 -9.25 -1.31478e+06 -1.32481e+06 1.6222e+06 1.82353e-10 502.258 1.65561e+06 1.78499e+07 6.2595e+06 1.84469e+07 4.12826e+06 9.05801e+06
11 2 1.85 -7.4 -9.25 -2.12577e+06 -1.824e+06 1.35085e+06 0.253677 502.295 638214 1.93089e+07 8.14468e+06 1.90203e+07 4.12826e+06 1.05295e+07
12 2 0 -5.55 -9.25 -1.31475e+06 -1.32481e+06 1.6222e+06 -1.59992e-10 502.295 1.65561e+06 1.78483e+07 6.26046e+06 1.84469e+07 4.12826e+06 9.05801e+06
13 2 5.55 -7.4 -9.25 -2.1283e+06 -1.83037e+06 1.34996e+06 4149.78 1587.45 637358 1.93127e+07 8.14906e+06 1.90286e+07 4.11967e+06 1.05279e+07
14 2 3.7 -5.55 -9.25 -1.31475e+06 -1.32481e+06 1.6222e+06 -5.90223e-10 502.332 1.65561e+06 1.78483e+07 6.26046e+06 1.84469e+07 4.12826e+06 9.05801e+06
15 2 9.25 -7.4 -9.25 259620 -434901 326424 -204084 52002 -20553.4 3.24509e+07 4.33995e+06 1.19687e+07 3.74032e+06 7.03541e+06
16 2 7.4 -5.55 -9.25 -1.78763e+06 -1.94584e+06 1.34996e+06 122133 679462 1.31553e+06 1.92156e+07 8.00511e+06 1.97175e+07 3.9734e+06 1.00337e+07
17 2 -9.25 -3.7 -9.25 657568 -182549 461585 -117177 -146664 489357 3.22824e+07 3.05017e+06 1.15673e+07 2.89423e+06 6.27732e+06
18 2 -5.55 -3.7 -9.25 -1.32469e+06 -1.31424e+06 1.6222e+06 -329.447 55.4729 1.65606e+06 1.84247e+07 5.91069e+06 1.78561e+07 4.12867e+06 9.06759e+06
19 2 -7.4 -1.85 -9.25 -1.78076e+06 -1.93239e+06 1.35085e+06 -118314 -678104 1.31682e+06 1.92084e+07 7.994e+06 1.91257e+07 4.27494e+06 1.00359e+07
20 2 -1.85 -3.7 -9.25 -1.31342e+06 -1.31345e+06 1.62239e+06 -3.5942e-10 502.295 1.65606e+06 1.78465e+07 6.25851e+06 1.78549e+07 4.12826e+06 9.06727e+06
21 2 -3.7 -1.85 -9.25 -1.31345e+06 -1.31342e+06 1.62239e+06 -4.03086e-10 502.258 1.65606e+06 1.78482e+07 6.25754e+06 1.78533e+07 4.12826e+06 9.0673e+06
22 2 1.85 -3.7 -9.25 -1.31342e+06 -1.31345e+06 1.62239e+06 -1.71213e-10 502.295 1.65606e+06 1.78465e+07 6.25851e+06 1.78549e+07 4.12826e+06 9.06727e+06
23 2 0 -1.85 -9.25 -1.31342e+06 -1.31342e+06 1.62239e+06 7.26864e-10 502.295 1.65606e+06 1.78465e+07 6.25851e+06 1.78533e+07 4.12826e+06 9.0673e+06
24 2 5.55 -3.7 -9.25 -1.31388e+06 -1.31424e+06 1.6222e+06 329.447 743.267 1.65606e+06 1.78533e+07 6.25471e+06 1.78561e+07 4.12786e+06 9.06759e+06
25 2 3.7 -1.85 -9.25 -1.31342e+06 -1.31342e+06 1.62239e+06 -1.05615e-09 502.332 1.65606e+06 1.78466e+07 6.25851e+06 1.78533e+07 4.12826e+06 9.0673e+06
26 2 9.25 -3.7 -9.25 668374 -182549 461585 117177 560603 489357 3.1711e+07 3.39419e+06 1.15673e+07 2.61032e+06 6.27732e+06
27 2 7.4 -1.85 -9.25 -1.78073e+06 -1.93239e+06 1.35085e+06 118314 678607 1.31682e+06 1.92068e+07 7.99496e+06 1.91257e+07 3.98158e+06 1.00359e+07
28 2 -9.25 0 -9.25 657576 -180636 461594 -117156 -146664 489379 3.22824e+07 3.04981e+06 1.14969e+07 2.89116e+06 6.27802e+06
29 2 -5.55 0 -9.25 -1.32469e+06 -1.31421e+06 1.6222e+06 -329.447 55.4729 1.65606e+06 1.84247e+07 5.91069e+06 1.78545e+07 4.12867e+06 9.06762e+06
30 2 -7.4 1.85 -9.25 -1.78076e+06 -1.93239e+06 1.35085e+06 -118314 -678104 1.31682e+06 1.92084e+07 7.994e+06 1.91257e+07 4.27494e+06 1.00359e+07
31 2 -1.85 0 -9.25 -1.31342e+06 -1.31342e+06 1.62239e+06 2.32517e-10 502.295 1.65606e+06 1.78465e+07 6.25851e+06 1.78533e+07 4.12826e+06 9.0673e+06
32 2 -3.7 1.85 -9.25 -1.31345e+06 -1.31342e+06 1.62239e+06 2.70151e-10 502.258 1.65606e+06 1.78482e+07 6.25754e+06 1.78533e+07 4.12826e+06 9.0673e+06
33 2 1.85 0 -9.25 -1.31342e+06 -1.31342e+06 1.62239e+06 -2.33586e-09 502.295 1.65606e+06 1.78465e+07 6.25851e+06 1.78533e+07 4.12826e+06 9.0673e+06
34 2 0 1.85 -9.25 -1.31342e+06 -1.31342e+06 1.62239e+06 -1.33059e-09 502.295 1.65606e+06 1.78465e+07 6.25851e+06 1.78533e+07 4.12826e+06 9.0673e+06
35 2 5.55 0 -9.25 -1.31388e+06 -1.31421e+06 1.6222e+06 329.447 743.267 1.65606e+06 1.78533e+07 6.25471e+06 1.78545e+07 4.12786e+06 9.06762e+06
36 2 3.7 1.85 -9.25 -1.31342e+06 -1.31342e+06 1.62239e+06 -8.4006e-10 502.332 1.65606e+06 1.78466e+07 6.25851e+06 1.78533e+07 4.12826e+06 9.0673e+06
37 2 9.25 0 -9.25 668383 -180636 461594 117156 560603 489379 3.1711e+07 3.39382e+06 1.14969e+07 2.61339e+06 6.27802e+06
38 2 7.4 1.85 -9.25 -1.78073e+06 -1.93239e+06 1.35085e+06 118314 678607 1.31682e+06 1.92068e+07 7.99496e+06 1.91257e+07 3.98158e+06 1.00359e+07
39 2 -9.25 3.7 -9.25 657576 -180688 461585 -117156 -146664 489400 3.22824e+07 3.04981e+06 1.14991e+07 2.89114e+06 6.27797e+06
40 2 -5.55 3.7 -9.25 -1.32469e+06 -1.31421e+06 1.6222e+06 -329.447 55.4729 1.65606e+06 1.84247e+07 5.91069e+06 1.78545e+07 4.12867e+06 9.06762e+06
41 2 -7.4 5.55 -9.25 -1.78208e+06 -1.93377e+06 1.34996e+06 -117261 -678969 1.31792e+06 1.92118e+07 7.99989e+06 1.91382e+07 4.27018e+06 1.00392e+07
42 2 -1.85 3.7 -9.25 -1.31342e+06 -1.31342e+06 1.62239e+06 -9.78954e-11 502.295 1.65606e+06 1.78465e+07 6.25851e+06 1.78533e+07 4.12826e+06 9.0673e+06
43 2 -3.7 5.55 -9.25 -1.31371e+06 -1.31376e+06 1.6222e+06 2.84771e-10 502.258 1.6563e+06 1.78488e+07 6.25868e+06 1.78611e+07 4.12826e+06 9.06785e+06
44 2 1.85 3.7 -9.25 -1.31342e+06 -1.31342e+06 1.62239e+06 -5.17049e-10 502.295 1.65606e+06 1.78465e+07 6.25851e+06 1.78533e+07 4.12826e+06 9.0673e+06
45 2 0 5.55 -9.25 -1.31368e+06 -1.31376e+06 1.6222e+06 -2.20178e-10 502.295 1.6563e+06 1.78472e+07 6.25965e+06 1.78611e+07 4.12826e+06 9.06785e+06
46 2 5.55 3.7 -9.25 -1.31388e+06 -1.31421e+06 1.6222e+06 329.447 743.267 1.65606e+06 1.78533e+07 6.25471e+06 1.78545e+07 4.12786e+06 9.06762e+06
47 2 3.7 5.55 -9.25 -1.31368e+06 -1.31376e+06 1.6222e+06 -4.82677e-10 502.332 1.6563e+06 1.78472e+07 6.25964e+06 1.78611e+07 4.12826e+06 9.06785e+06
48 2 9.25 3.7 -9.25 668383 -180688 461585 117156 560603 489400 3.1711e+07 3.39382e+06 1.14991e+07 2.61342e+06 6.27797e+06
49 2 7.4 5.55 -9.25 -1.78205e+06 -1.93377e+06 1.34996e+06 117261 679472 1.31792e+06 1.92102e+07 8.00086e+06 1.91382e+07 3.98634e+06 1.00392e+07
50 2 -9.25 7.4 -9.25 450220 -392277 326424 -335154 22763.7 659261 3.2817e+07 3.84541e+06 1.22015e+07 3.87999e+06 6.83068e+06
51 2 -5.55 7.4 -9.25 -1.75131e+06 -1.73934e+06 1.34996e+06 721.607 -797.931 1.99579e+06 1.95109e+07 7.50821e+06 1.95892e+07 4.12392e+06 1.01547e+07
52 2 -7.4 9.25 -9.25 -240907 307788 326424 -325166 -509103 540551 1.17304e+07 4.15176e+06 3.26047e+07 8.28992e+06 1.23069e+07
53 2 -1.85 7.4 -9.25 -1.739e+06 -1.73748e+06 1.35085e+06 -0.253677 502.295 1.99493e+06 1.8929e+07 7.85131e+06 1.95853e+07 4.12826e+06 1.01497e+07
54 2 -3.7 9.25 -9.25 10347 711508 461585 -828.765 807.44 1.04915e+06 1.13611e+07 3.20105e+06 3.18706e+07 7.34546e+06 1.19495e+07
55 2 1.85 7.4 -9.25 -1.739e+06 -1.73748e+06 1.35085e+06 -0.253677 502.295 1.99493e+06 1.8929e+07 7.85131e+06 1.95853e+07 4.12826e+06 1.01497e+07
56 2 0 9.25 -9.25 12208.4 711508 461594 -828.836 828.836 1.04915e+06 1.12956e+07 3.23004e+06 3.18706e+07 7.34547e+06 1.19494e+07
57 2 5.55 7.4 -9.25 -1.7405e+06 -1.73934e+06 1.34996e+06 -723.174 1596.68 1.99579e+06 1.89394e+07 7.85226e+06 1.95892e+07 4.13261e+06 1.01547e+07
58 2 3.7 9.25 -9.25 12155.6 711508 461585 -828.959 850.285 1.04915e+06 1.12978e+07 3.22853e+06 3.18706e+07 7.34547e+06 1.19495e+07
59 2 9.25 7.4 -9.25 461028 -392277 326424 324316 391228 659261 3.22456e+07 4.18947e+06 1.22015e+07 1.62452e+06 6.83068e+06
60 2 7.4 9.25 -9.25 -239098 307788 326424 324337 509931 540551 1.16671e+07 4.17925e+06 3.26047e+07 6.40102e+06 1.23069e+07
61 2 -9.25 -9.25 -7.4 35379.9 35302.5 -495094 383955 150733 150733 3.35198e+07 2.04532e+06 3.34628e+07 3.61287e+06 6.88964e+06
62 2 -5.55 -9.25 -7.4 -2.13924e+06 521684 -1.00229e+06 -686.741 -4273.97 637459 1.98846e+07 5.5922e+06 3.36635e+07 8.05201e+06 1.04739e+07
63 2 -7.4 -9.25 -5.55 -1.57555e+06 1.48573e+06 -1.73251e+06 -509043 -335106 1.14532e+06 1.8723e+07 5.5166e+06 3.08747e+07 1.09642e+07 7.18754e+06
64 2 -1.85 -9.25 -7.4 -2.12602e+06 522484 -996053 502.295 0.253677 638418 1.93095e+07 5.76666e+06 3.36625e+07 8.03327e+06 1.04503e+07
65 2 -3.7 -9.25 -5.55 -1.31478e+06 1.6222e+06 -1.32481e+06 502.258 8.82504e-11 1.65561e+06 1.78499e+07 4.78285e+06 3.06924e+07 8.03327e+06 2.93174e+06
66 2 1.85 -9.25 -7.4 -2.12602e+06 522484 -996053 502.295 0.253677 638418 1.93095e+07 5.76666e+06 3.36625e+07 8.03327e+06 1.04503e+07
67 2 0 -9.25 -5.55 -1.31475e+06 1.6222e+06 -1.32481e+06 502.295 -9.72795e-10 1.65561e+06 1.78483e+07 4.78335e+06 3.06924e+07 8.03327e+06 2.93174e+06
68 2 5.55 -9.25 -7.4 -2.12843e+06 521684 -1.00229e+06 1485.49 4275.53 637459 1.93132e+07 5.7693e+06 3.36635e+07 8.01453e+06 1.04739e+07
69 2 3.7 -9.25 -5.55 -1.31475e+06 1.6222e+06 -1.32481e+06 502.332 -1.13175e-09 1.65561e+06 1.78483e+07 4.78335e+06 3.06924e+07 8.03327e+06 2.93174e+06
70 2 9.25 -9.25 -7.4 46188.1 35302.5 -495094 30036.2 -139895 150733 3.29483e+07 2.22242e+06 3.34628e+07 1.10781e+07 6.88964e+06
71 2 7.4 -9.25 -5.55 -1.57552e+06 1.48573e+06 -1.73251e+06 509546 335106 1.14532e+06 1.87214e+07 5.5171e+06 3.08747e+07 5.10234e+06 7.18754e+06
72 2 -9.25 -5.55 -7.4 521684 -2.13924e+06 -1.00229e+06 -686.741 637459 -4273.96 3.39506e+07 5.38678e+06 1.99085e+07 4.15852e+06 -170328
73 2 -9.25 -7.4 -5.55 657531 -747350 -1.73251e+06 -509043 1.14532e+06 -335106 3.38796e+07 5.13353e+06 1.61634e+07 9.39517e+06 -1.03286e+06
74 2 -7.4 -7.4 -7.4 -3.0802e+06 -3.0802e+06 -3.0802e+06 1.07318e+06 1.07318e+06 1.07318e+06 2.36774e+07 1.16038e+07 2.36774e+07 3.78253e+06 1.20734e+07
75 2 -5.55 -5.55 -7.4 -2.14556e+06 -2.14556e+06 -954897 -113.952 -257.303 -257.303 2.66885e+07 8.74803e+06 2.67073e+07 5.50425e+06 1.24898e+07
76 2 -5.55 -7.4 -5.55 -2.14556e+06 -716515 -1.07919e+06 -257.303 -113.952 -652637 2.66885e+07 1.08428e+07 2.09894e+07 5.50462e+06 1.56628e+07
77 2 -7.4 -5.55 -5.55 -478132 -1.07919e+06 -1.07919e+06 -652637 -652637 -113.952 2.25519e+07 1.04177e+07 2.56598e+07 6.31319e+06 1.40149e+07
78 2 -3.7 -7.4 -7.4 -4.26504e+06 -2.01696e+06 -2.01696e+06 15.3324 15.3324 1.07006e+06 2.79563e+07 1.12259e+07 2.15518e+07 5.50418e+06 1.42129e+07
79 2 -1.85 -5.55 -7.4 -2.1327e+06 -2.14547e+06 -954359 -56.9758 72.3082 -257.303 2.5862e+07 9.13161e+06 2.67072e+07 5.50418e+06 1.24898e+07
80 2 -1.85 -7.4 -5.55 -2.1327e+06 -715976 -1.07909e+06 72.3082 -56.9758 -652637 2.5862e+07 1.1226e+07 2.09889e+07 5.50411e+06 1.56634e+07
81 2 -3.7 -5.55 -5.55 -373.615 -12873.8 -12873.8 8.69902e-11 2.5131e-11 -113.952 2.37679e+07 9.13165e+06 2.46131e+07 5.50411e+06 1.46229e+07
82 2 0 -7.4 -7.4 -4.26504e+06 -2.01696e+06 -2.01696e+06 15.3324 15.3324 1.07006e+06 2.79563e+07 1.12259e+07 2.15518e+07 5.50418e+06 1.42129e+07
83 2 1.85 -5.55 -7.4 -2.1327e+06 -2.14547e+06 -954359 -56.9758 72.3082 -257.303 2.5862e+07 9.13161e+06 2.67072e+07 5.50418e+06 1.24898e+07
84 2 1.85 -7.4 -5.55 -2.1327e+06 -715976 -1.07909e+06 72.3082 -56.9758 -652637 2.5862e+07 1.1226e+07 2.09889e+07 5.50411e+06 1.56634e+07
85 2 0 -5.55 -5.55 -372.504 -12873.8 -12873.8 -1.97445e-11 -7.83233e-11 -113.952 2.37678e+07 9.13169e+06 2.46131e+07 5.50411e+06 1.46229e+07
86 2 3.7 -7.4 -7.4 -4.26504e+06 -2.01696e+06 -2.01696e+06 15.3324 15.3324 1.07006e+06 2.79563e+07 1.12259e+07 2.15518e+07 5.50418e+06 1.42129e+07
87 2 5.55 -5.55 -7.4 -2.13283e+06 -2.14547e+06 -954897 -56.9758 401.938 -257.303 2.58618e+07 9.13166e+06 2.67072e+07 5.50418e+06 1.24899e+07
88 2 5.55 -7.4 -5.55 -2.13283e+06 -716515 -1.07909e+06 401.938 -56.9758 -652637 2.58618e+07 1.12265e+07 2.09894e+07 5.5036e+06 1.56628e+07
89 2 3.7 -5.55 -5.55 -372.504 -12873.8 -12873.8 -1.13579e-09 -1.38549e-09 -113.952 2.37678e+07 9.13169e+06 2.46131e+07 5.50411e+06 1.46229e+07
90 2 7.4 -7.4 -7.4 -2.60325e+06 -2.0138e+06 -2.0138e+06 -420650 -420650 1.07352e+06 2.68021e+07 1.07949e+07 2.26301e+07 6.41709e+06 1.36358e+07
91 2 9.25 -5.55 -7.4 772764 -1.07295e+06 -1.00229e+06 653010 -636056 -4028.79 3.46861e+07 4.96174e+06 1.88612e+07 3.28928e+06 1.39203e+06
92 2 9.25 -7.4 -5.55 908611 -747350 -666230 510447 -493000 -334861 3.46151e+07 5.51722e+06 1.61634e+07 -1.13864e+06 -1.03286e+06
93 2 7.4 -5.55 -5.55 -478131 -1.07919e+06 -1.07919e+06 652637 652637 -113.952 2.25518e+07 1.04178e+07 2.56598e+07 4.69503e+06 1.40149e+07
94 2 -9.25 -1.85 -7.4 522484 -2.12602e+06 -996053 502.295 638418 0.254025 3.39496e+07 5.38292e+06 1.93163e+07 4.12379e+06 -177565
95 2 -9.25 -3.7 -5.55 1.86066e+06 -248478 -1.32481e+06 -651878 1.65561e+06 -2.33039e-10 3.27561e+07 3.59062e+06 1.68094e+07 4.93259e+06 -5.58406e+06
96 2 -7.4 -3.7 -7.4 -2.01696e+06 -4.26504e+06 -2.01696e+06 15.3324 1.07006e+06 15.3324 2.15518e+07 1.12259e+07 2.79564e+07 5.50395e+06 1.03325e+07
97 2 -5.55 -1.85 -7.4 -2.14547e+06 -2.1327e+06 -954359 -56.9758 -257.303 72.3082 2.66884e+07 8.74792e+06 2.5862e+07 5.50418e+06 1.2503e+07
98 2 -5.55 -3.7 -5.55 -12853 -280.489 -12873.8 -56.9758 -113.952 1.26551e-09 2.45945e+07 8.74792e+06 2.37678e+07 5.50418e+06 1.46354e+07
99 2 -7.4 -1.85 -5.55 -477501 -1.06631e+06 -1.07909e+06 -652365 -652637 -56.9758 2.25513e+07 1.04171e+07 2.48147e+07 6.31275e+06 1.40272e+07
100 2 -3.7 -3.7 -7.4 -2.13252e+06 -2.13252e+06 -953778 -5.79853e-10 15.3324 15.3324 2.58619e+07 9.13147e+06 2.58619e+07 5.50411e+06 1.25032e+07
101 2 -1.85 -1.85 -7.4 -2.13261e+06 -2.13261e+06 -953820 -1.87048e-09 72.3082 72.3082 2.58619e+07 9.1315e+06 2.5862e+07 5.50411e+06 1.25031e+07
102 2 -1.85 -3.7 -5.55 -93.1261 -187.363 -12780.7 4.5526e-10 -56.9758 8.52773e-10 2.37675e+07 9.1315e+06 2.37677e+07 5.50411e+06 1.46355e+07
103 2 -3.7 -1.85 -5.55 -187.363 -93.1261 -12780.7 2.47315e-11 8.29929e-11 -56.9758 2.37677e+07 9.13147e+06 2.37675e+07 5.50411e+06 1.46356e+07
104 2 0 -3.7 -7.4 -2.13252e+06 -2.13252e+06 -953778 -1.40997e-09 15.3324 15.3324 2.58619e+07 9.1315e+06 2.58619e+07 5.50411e+06 1.25032e+07
105 2 1.85 -1.85 -7.4 -2.13261e+06 -2.13261e+06 -953820 -1.08176e-09 72.3082 72.3082 2.58619e+07 9.1315e+06 2.5862e+07 5.50411e+06 1.25031e+07
106 2 1.85 -3.7 -5.55 -93.1261 -187.363 -12780.7 -5.67313e-10 -56.9758 -6.14052e-10 2.37675e+07 9.1315e+06 2.37677e+07 5.50411e+06 1.46355e+07
107 2 0 -1.85 -5.55 -186.252 -93.1261 -12780.7 -4.05428e-10 -8.34223e-11 -56.9758 2.37676e+07 9.1315e+06 2.37675e+07 5.50411e+06 1.46356e+07
108 2 3.7 -3.7 -7.4 -2.13252e+06 -2.13252e+06 -953778 -1.213e-09 15.3324 15.3324 2.58619e+07 9.1315e+06 2.58619e+07 5.50411e+06 1.25032e+07
109 2 5.55 -1.85 -7.4 -2.13273e+06 -2.13261e+06 -954359 -1.35948e-09 401.938 72.3082 2.58617e+07 9.13154e+06 2.5862e+07 5.50411e+06 1.25032e+07
110 2 5.55 -3.7 -5.55 -113.952 -280.489 -12780.7 56.9758 -56.9758 3.11336e-10 2.37678e+07 9.13161e+06 2.37678e+07 5.50404e+06 1.46354e+07
111 2 3.7 -1.85 -5.55 -186.252 -93.1261 -12780.7 -1.18021e-09 -1.30955e-09 -56.9758 2.37676e+07 9.1315e+06 2.37675e+07 5.50411e+06 1.46356e+07
112 2 7.4 -3.7 -7.4 -1.54001e+06 -3.19864e+06 -950562 652308 -417532 188.211 2.46765e+07 1.04171e+07 2.6909e+07 4.69554e+06 1.18949e+07
113 2 9.25 -1.85 -7.4 773657 -1.05972e+06 -996053 651878 -637015 245.433 3.4685e+07 4.95782e+06 1.8269e+07 3.32394e+06 1.3847e+06
114 2 9.25 -3.7 -5.55 2.11174e+06 -248478 -258524 651878 -1.00329e+06 2.66797e-10 3.34916e+07 3.97432e+06 1.68094e+07 3.32394e+06 -5.58406e+06
115 2 7.4 -1.85 -5.55 -477499 -1.06631e+06 -1.07909e+06 652365 652637 -56.9758 2.25512e+07 1.04171e+07 2.48147e+07 4.69546e+06 1.40272e+07
116 2 -9.25 1.85 -7.4 522484 -2.12602e+06 -996053 502.295 638418 0.254025 3.39496e+07 5.38292e+06 1.93163e+07 4.12379e+06 -177565
117 2 -9.25 0 -5.55 1.86066e+06 -248447 -1.32481e+06 -651878 1.65561e+06 -2.24452e-09 3.27561e+07 3.59062e+06 1.68077e+07 4.93259e+06 -5.58403e+06
118 2 -7.4 0 -7.4 -2.01696e+06 -4.26504e+06 -2.01696e+06 15.3324 1.07006e+06 15.3324 2.15518e+07 1.12259e+07 2.79563e+07 5.50395e+06 1.03325e+07
119 2 -5.55 1.85 -7.4 -2.14547e+06 -2.1327e+06 -954359 -56.9758 -257.303 72.3082 2.66884e+07 8.74792e+06 2.5862e+07 5.50418e+06 1.2503e+07
120 2 -5.55 0 -5.55 -12853 -279.378 -12873.8 -56.9758 -113.952 -4.78361e-10 2.45945e+07 8.74792e+06 2.37677e+07 5.50418e+06 1.46355e+07
121 2 -7.4 1.85 -5.55 -477501 -1.06631e+06 -1.07909e+06 -652365 -652637 -56.9758 2.25513e+07 1.04171e+07 2.48147e+07 6.31275e+06 1.40272e+07
122 2 -3.7 0 -7.4 -2.13252e+06 -2.13252e+06 -953778 -1.62513e-09 15.3324 15.3324 2.58619e+07 9.13147e+06 2.58619e+07 5.50411e+06 1.25032e+07
123 2 -1.85 1.85 -7.4 -2.13261e+06 -2.13261e+06 -953820 -1.11487e-09 72.3082 72.3082 2.58619e+07 9.1315e+06 2.5862e+07 5.50411e+06 1.25031e+07
124 2 -1.85 0 -5.55 -93.1261 -186.252 -12780.7 -9.06082e-10 -56.9758 -1.07836e-09 2.37675e+07 9.1315e+06 2.37676e+07 5.50411e+06 1.46355e+07
125 2 -3.7 1.85 -5.55 -187.363 -93.1261 -12780.7 1.80536e-10 1.50055e-10 -56.9758 2.37677e+07 9.13147e+06 2.37675e+07 5.50411e+06 1.46356e+07
126 2 0 0 -7.4 -2.13252e+06 -2.13252e+06 -953778 2.76313e-10 15.3324 15.3324 2.58619e+07 9.1315e+06 2.58619e+07 5.50411e+06 1.25032e+07
127 2 1.85 1.85 -7.4 -2.13261e+06 -2.13261e+06 -953820 3.57832e-10 72.3082 72.3082 2.58619e+07 9.1315e+06 2.5862e+07 5.50411e+06 1.25031e+07
128 2 1.85 0 -5.55 -93.1261 -186.252 -12780.7 -1.85786e-09 -56.9758 -2.72868e-09 2.37675e+07 9.1315e+06 2.37676e+07 5.50411e+06 1.46355e+07
129 2 0 1.85 -5.55 -186.252 -93.1261 -12780.7 -9.3204e-10 -6.16924e-10 -56.9758 2.37676e+07 9.1315e+06 2.37675e+07 5.50411e+06 1.46356e+07
130 2 3.7 0 -7.4 -2.13252e+06 -2.13252e+06 -953778 -1.49768e-09 15.3324 15.3324 2.58619e+07 9.1315e+06 2.58619e+07 5.50411e+06 1.25032e+07
131 2 5.55 1.85 -7.4 -2.13273e+06 -2.13261e+06 -954359 -6.92412e-10 401.938 72.3082 2.58617e+07 9.13154e+06 2.5862e+07 5.50411e+06 1.25032e+07
132 2 5.55 0 -5.55 -113.952 -279.378 -12780.7 56.9758 -56.9758 -1.77847e-09 2.37678e+07 9.13161e+06 2.37677e+07 5.50404e+06 1.46355e+07
133 2 3.7 1.85 -5.55 -186.252 -93.1261 -12780.7 -9.29422e-10 -1.33435e-09 -56.9758 2.37676e+07 9.1315e+06 2.37675e+07 5.50411e+06 1.46356e+07
134 2 7.4 0 -7.4 -1.54001e+06 -3.19864e+06 -950562 652308 -417532 188.211 2.46765e+07 1.04171e+07 2.69089e+07 4.69554e+06 1.18949e+07
135 2 9.25 1.85 -7.4 773657 -1.05972e+06 -996053 651878 -637015 245.433 3.4685e+07 4.95782e+06 1.8269e+07 3.32394e+06 1.3847e+06
136 2 9.25 0 -5.55 2.11174e+06 -248447 -258524 651878 -1.00329e+06 -1.64602e-09 3.34916e+07 3.97432e+06 1.68077e+07 3.32394e+06 -5.58403e+06
137 2 7.4 1.85 -5.55 -477499 -1.06631e+06 -1.07909e+06 652365 652637 -56.9758 2.25512e+07 1.04171e+07 2.48147e+07 4.69546e+06 1.40272e+07
138 2 -9.25 5.55 -7.4 521699 -2.12834e+06 -1.00229e+06 1448.32 637459 4275.53 3.39506e+07 5.3857e+06 1.93146e+07 4.09744e+06 -161993
139 2 -9.25 3.7 -5.55 1.86066e+06 -248447 -1.32481e+06 -651878 1.65561e+06 -2.39351e-09 3.27561e+07 3.59062e+06 1.68077e+07 4.93259e+06 -5.58403e+06
140 2 -7.4 3.7 -7.4 -2.01696e+06 -4.26504e+06 -2.01696e+06 15.3324 1.07006e+06 15.3324 2.15518e+07 1.12259e+07 2.79563e+07 5.50395e+06 1.03325e+07
141 2 -5.55 5.55 -7.4 -2.14547e+06 -2.13283e+06 -954897 -56.9758 -257.303 401.938 2.66884e+07 8.74796e+06 2.58618e+07 5.50418e+06 1.25025e+07
142 2 -5.55 3.7 -5.55 -12853 -279.378 -12873.8 -56.9758 -113.952 -2.4622e-09 2.45945e+07 8.74792e+06 2.37677e+07 5.50418e+06 1.46355e+07
143 2 -7.4 5.55 -5.55 -477501 -1.06631e+06 -1.07909e+06 -652365 -652637 -56.9758 2.25513e+07 1.04172e+07 2.48153e+07 6.31265e+06 1.40272e+07
144 2 -3.7 3.7 -7.4 -2.13252e+06 -2.13252e+06 -953778 -1.19004e-09 15.3324 15.3324 2.58619e+07 9.13147e+06 2.58619e+07 5.50411e+06 1.25032e+07
145 2 -1.85 5.55 -7.4 -2.13261e+06 -2.13273e+06 -954359 -1.05829e-09 72.3082 401.938 2.58619e+07 9.13154e+06 2.58617e+07 5.50411e+06 1.25025e+07
146 2 -1.85 3.7 -5.55 -93.1261 -186.252 -12780.7 2.03717e-10 -56.9758 -1.9282e-09 2.37675e+07 9.1315e+06 2.37676e+07 5.50411e+06 1.46355e+07
147 2 -3.7 5.55 -5.55 -187.363 -93.1261 -12780.7 -9.41383e-11 2.84429e-10 -56.9758 2.37677e+07 9.13151e+06 2.37679e+07 5.50411e+06 1.46356e+07
148 2 0 3.7 -7.4 -2.13252e+06 -2.13252e+06 -953778 -1.71325e-09 15.3324 15.3324 2.58619e+07 9.1315e+06 2.58619e+07 5.50411e+06 1.25032e+07
149 2 1.85 5.55 -7.4 -2.13261e+06 -2.13273e+06 -954359 -6.00093e-10 72.3082 401.938 2.58619e+07 9.13154e+06 2.58617e+07 5.50411e+06 1.25025e+07
150 2 1.85 3.7 -5.55 -93.1261 -186.252 -12780.7 -1.29846e-10 -56.9758 -2.76951e-09 2.37675e+07 9.1315e+06 2.37676e+07 5.50411e+06 1.46355e+07
151 2 0 5.55 -5.55 -186.252 -93.1261 -12780.7 -4.07519e-10 -2.67163e-10 -56.9758 2.37676e+07 9.13154e+06 2.37679e+07 5.50411e+06 1.46356e+07
152 2 3.7 3.7 -7.4 -2.13252e+06 -2.13252e+06 -953778 -9.99368e-10 15.3324 15.3324 2.58619e+07 9.1315e+06 2.58619e+07 5.50411e+06 1.25032e+07
153 2 5.55 5.55 -7.4 -2.13273e+06 -2.13273e+06 -954897 -3.02899e-10 401.938 401.938 2.58617e+07 9.13159e+06 2.58617e+07 5.50411e+06 1.25026e+07
154 2 5.55 3.7 -5.55 -113.952 -279.378 -12780.7 56.9758 -56.9758 -2.57744e-09 2.37678e+07 9.13161e+06 2.37677e+07 5.50404e+06 1.46355e+07
155 2 3.7 5.55 -5.55 -186.252 -93.1261 -12780.7 -9.78552e-10 -8.25609e-10 -56.9758 2.37676e+07 9.13154e+06 2.37679e+07 5.50411e+06 1.46356e+07
156 2 7.4 3.7 -7.4 -1.54001e+06 -3.19864e+06 -950562 652308 -417532 188.211 2.46765e+07 1.04171e+07 2.69089e+07 4.69554e+06 1.18949e+07
157 2 9.25 5.55 -7.4 772872 -1.06203e+06 -1.00229e+06 650932 -636056 4520.71 3.46861e+07 4.96059e+06 1.82674e+07 3.35029e+06 1.40027e+06
158 2 9.25 3.7 -5.55 2.11174e+06 -248447 -258524 651878 -1.00329e+06 -2.17932e-09 3.34916e+07 3.97432e+06 1.68077e+07 3.32394e+06 -5.58403e+06
159 2 7.4 5.55 -5.55 -477499 -1.06631e+06 -1.07909e+06 652365 652637 -56.9758 2.25512e+07 1.04173e+07 2.48153e+07 4.69556e+06 1.40272e+07
160 2 -9.25 9.25 -7.4 35302.5 46188.1 -495094 30036.2 150670 -139832 3.35263e+07 2.0441e+06 3.28688e+07 9.57466e+06 6.90062e+06
161 2 -9.25 7.4 -5.55 1.72472e+06 -509090 -1.73251e+06 -143164 1.14532e+06 335106 3.28307e+07 4.32432e+06 1.77259e+07 -333916 -2.08171e+06
162 2 -7.4 7.4 -7.4 -2.0138e+06 -2.60325e+06 -2.0138e+06 -420650 1.07352e+06 -420650 2.26301e+07 1.07949e+07 2.68021e+07 6.41609e+06 1.20925e+07
163 2 -5.55 9.25 -7.4 -1.07286e+06 772779 -1.00229e+06 652973 -4028.79 -636056 1.88308e+07 4.78361e+06 3.43803e+07 7.20688e+06 9.43671e+06
164 2 -5.55 7.4 -5.55 -12666.8 -239117 -1.07919e+06 -129.302 -113.952 652637 2.45945e+07 9.22475e+06 2.41137e+07 5.50408e+06 1.35688e+07
165 2 -7.4 9.25 -5.55 319077 1.1476e+06 -666230 -142263 -334861 -493000 1.50659e+07 4.70739e+06 3.57638e+07 5.90659e+06 4.60949e+06
166 2 -3.7 7.4 -7.4 -3.19864e+06 -1.54001e+06 -950562 652308 188.211 -417532 2.6909e+07 1.0417e+07 2.46765e+07 4.69531e+06 1.42319e+07
167 2 -1.85 9.25 -7.4 -1.05972e+06 773657 -996053 651878 245.433 -637015 1.82623e+07 4.95786e+06 3.43791e+07 7.22447e+06 9.41581e+06
168 2 -1.85 7.4 -5.55 93.1261 -239024 -1.07909e+06 -72.3082 -56.9758 652637 2.37673e+07 9.60823e+06 2.41136e+07 5.50411e+06 1.35687e+07
169 2 -3.7 9.25 -5.55 817828 2.35019e+06 -258524 -502.295 4.44661e-10 -1.00329e+06 1.57553e+07 3.16525e+06 3.45336e+07 8.03327e+06 1.91624e+06
170 2 0 7.4 -7.4 -3.19864e+06 -1.54001e+06 -950562 652308 188.211 -417532 2.69089e+07 1.0417e+07 2.46765e+07 4.69531e+06 1.42319e+07
171 2 1.85 9.25 -7.4 -1.05972e+06 773657 -996053 651878 245.433 -637015 1.82623e+07 4.95786e+06 3.43791e+07 7.22447e+06 9.41581e+06
172 2 1.85 7.4 -5.55 93.1261 -239024 -1.07909e+06 -72.3082 -56.9758 652637 2.37673e+07 9.60823e+06 2.41136e+07 5.50411e+06 1.35687e+07
173 2 0 9.25 -5.55 817858 2.35019e+06 -258524 -502.295 -4.89414e-10 -1.00329e+06 1.57537e+07 3.16575e+06 3.45336e+07 8.03327e+06 1.91624e+06
174 2 3.7 7.4 -7.4 -3.19864e+06 -1.54001e+06 -950562 652308 188.211 -417532 2.69089e+07 1.0417e+07 2.46765e+07 4.69531e+06 1.42319e+07
175 2 5.55 9.25 -7.4 -1.06203e+06 772872 -1.00229e+06 650932 4520.71 -636056 1.82595e+07 4.96064e+06 3.43802e+07 7.24213e+06 9.43685e+06
176 2 5.55 7.4 -5.55 72.3006 -239117 -1.07909e+06 -15.3324 -56.9758 652637 2.37678e+07 9.60844e+06 2.41137e+07 5.50414e+06 1.35688e+07
177 2 3.7 9.25 -5.55 817858 2.35019e+06 -258524 -502.295 -1.28964e-09 -1.00329e+06 1.57537e+07 3.16575e+06 3.45336e+07 8.03327e+06 1.91624e+06
178 2 7.4 7.4 -7.4 -2.60616e+06 -2.60616e+06 -947404 1.30811e+06 -419076 -419076 2.53327e+07 1.13117e+07 2.53327e+07 3.49149e+06 1.32328e+07
179 2 9.25 9.25 -7.4 281564 281642 -495094 -208574 -137840 -137840 3.30478e+07 1.92929e+06 3.29618e+07 4.82437e+06 6.99356e+06
180 2 9.25 7.4 -5.55 1.9758e+06 -509090 -666230 141761 -493000 334861 3.35663e+07 4.70801e+06 1.77259e+07 8.59044e+06 -2.08171e+06
181 2 7.4 9.25 -5.55 319107 1.1476e+06 -666230 141761 334861 -493000 1.50643e+07 4.70789e+06 3.57638e+07 1.016e+07 4.60949e+06
182 2 -9.25 -9.25 -3.7 581178 581100 10294.5 -635207 328835 328835 3.27058e+07 1.06525e+06 3.25425e+07 1.24537e+07 -357402
183 2 -5.55 -9.25 -3.7 -1.32456e+06 1.86074e+06 -247812 157.435 -455.198 1.00358e+06 1.84245e+07 4.60585e+06 3.22545e+07 8.03622e+06 3.99849e+06
184 2 -7.4 -9.25 -1.85 -1.56864e+06 1.48661e+06 -1.71906e+06 -508188 -331287 1.14661e+06 1.87142e+07 5.51353e+06 3.08736e+07 1.09484e+07 7.16427e+06
185 2 -1.85 -9.25 -3.7 -1.31342e+06 1.86084e+06 -247146 502.295 -3.05753e-10 1.00368e+06 1.78465e+07 4.78275e+06 3.22545e+07 8.03327e+06 3.99357e+06
186 2 -3.7 -9.25 -1.85 -1.31345e+06 1.62239e+06 -1.31342e+06 502.258 -8.88433e-11 1.65606e+06 1.78482e+07 4.78226e+06 3.06922e+07 8.03327e+06 2.92726e+06
187 2 1.85 -9.25 -3.7 -1.31342e+06 1.86084e+06 -247146 502.295 2.2144e-10 1.00368e+06 1.78465e+07 4.78275e+06 3.22545e+07 8.03327e+06 3.99357e+06
188 2 0 -9.25 -1.85 -1.31342e+06 1.62239e+06 -1.31342e+06 502.295 1.0318e-09 1.65606e+06 1.78465e+07 4.78275e+06 3.06922e+07 8.03327e+06 2.92726e+06
189 2 5.55 -9.25 -3.7 -1.31376e+06 1.86074e+06 -247812 641.306 455.198 1.00358e+06 1.78531e+07 4.78292e+06 3.22545e+07 8.03033e+06 3.99849e+06
190 2 3.7 -9.25 -1.85 -1.31342e+06 1.62239e+06 -1.31342e+06 502.332 -1.91212e-09 1.65606e+06 1.78466e+07 4.78275e+06 3.06922e+07 8.03327e+06 2.92726e+06
191 2 9.25 -9.25 -3.7 591985 581100 10294.5 1.04915e+06 -328835 328835 3.21344e+07 1.24233e+06 3.25425e+07 2.23725e+06 -357402
192 2 7.4 -9.25 -1.85 -1.56861e+06 1.48661e+06 -1.71906e+06 508690 331287 1.14661e+06 1.87126e+07 5.51402e+06 3.08736e+07 5.11815e+06 7.16427e+06
193 2 -9.25 -5.55 -3.7 1.86074e+06 -1.32456e+06 -247812 157.435 1.00358e+06 -455.198 3.2756e+07 4.4011e+06 1.84474e+07 4.13452e+06 -7.1563e+06
194 2 -9.25 -7.4 -1.85 658415 -740446 -1.71906e+06 -508188 1.14661e+06 -331287 3.38785e+07 5.13133e+06 1.61546e+07 9.37114e+06 -1.05009e+06
195 2 -7.4 -7.4 -3.7 -2.01696e+06 -2.01696e+06 -4.26504e+06 1.07006e+06 15.3324 15.3324 2.15518e+07 1.16037e+07 2.15518e+07 3.78654e+06 1.24582e+07
196 2 -5.55 -5.55 -3.7 -12853 -12853 -187.363 -113.952 -56.9758 -56.9758 2.45945e+07 8.74803e+06 2.46133e+07 5.50425e+06 1.46228e+07
197 2 -5.55 -7.4 -1.85 -2.14547e+06 -715883 -1.06631e+06 -257.303 -56.9758 -652365 2.66884e+07 1.08428e+07 2.09888e+07 5.50462e+06 1.56635e+07
198 2 -7.4 -5.55 -1.85 -477501 -1.07909e+06 -1.06631e+06 -652637 -652365 -56.9758 2.25513e+07 1.04177e+07 2.56597e+07 6.31319e+06 1.4015e+07
199 2 -3.7 -7.4 -3.7 -2.13252e+06 -953778 -2.13252e+06 15.3324 -4.39751e-10 15.3324 2.58619e+07 1.12259e+07 1.94261e+07 5.50418e+06 1.45976e+07
200 2 -1.85 -5.55 -3.7 -93.1261 -12759.9 -94.237 -56.9758 1.07825e-10 -56.9758 2.37675e+07 9.13161e+06 2.46132e+07 5.50418e+06 1.46229e+07
201 2 -1.85 -7.4 -1.85 -2.13261e+06 -715344 -1.06621e+06 72.3082 -1.51219e-09 -652365 2.58619e+07 1.1226e+07 2.09882e+07 5.50411e+06 1.5664e+07
202 2 -3.7 -5.55 -1.85 -187.363 -12780.7 -93.1261 -6.71333e-11 -2.17301e-10 -56.9758 2.37677e+07 9.13165e+06 2.4613e+07 5.50411e+06 1.4623e+07
203 2 0 -7.4 -3.7 -2.13252e+06 -953778 -2.13252e+06 15.3324 -1.32589e-09 15.3324 2.58619e+07 1.12259e+07 1.94261e+07 5.50418e+06 1.45976e+07
204 2 1.85 -5.55 -3.7 -93.1261 -12759.9 -94.237 -56.9758 9.50438e-10 -56.9758 2.37675e+07 9.13161e+06 2.46132e+07 5.50418e+06 1.46229e+07
205 2 1.85 -7.4 -1.85 -2.13261e+06 -715344 -1.06621e+06 72.3082 3.43216e-10 -652365 2.58619e+07 1.1226e+07 2.09882e+07 5.50411e+06 1.5664e+07
206 2 0 -5.55 -1.85 -186.252 -12780.7 -93.1261 -3.49853e-10 -2.80032e-10 -56.9758 2.37676e+07 9.13169e+06 2.4613e+07 5.50411e+06 1.4623e+07
207 2 3.7 -7.4 -3.7 -2.13252e+06 -953778 -2.13252e+06 15.3324 -1.39517e-09 15.3324 2.58619e+07 1.12259e+07 1.94261e+07 5.50418e+06 1.45976e+07
208 2 5.55 -5.55 -3.7 -113.952 -12759.9 -187.363 -56.9758 56.9758 -56.9758 2.37678e+07 9.13166e+06 2.46132e+07 5.50418e+06 1.4623e+07
209 2 5.55 -7.4 -1.85 -2.13273e+06 -715883 -1.06621e+06 401.938 3.45057e-11 -652365 2.58617e+07 1.12265e+07 2.09888e+07 5.5036e+06 1.56635e+07
210 2 3.7 -5.55 -1.85 -186.252 -12780.7 -93.1261 -1.01046e-09 -1.06369e-09 -56.9758 2.37676e+07 9.13169e+06 2.4613e+07 5.50411e+06 1.4623e+07
211 2 7.4 -7.4 -3.7 -1.54001e+06 -950562 -3.19864e+06 -417532 652308 188.211 2.46765e+07 1.07949e+07 2.05044e+07 6.41308e+06 1.40206e+07