ITEM: TIMESTEP
0
ITEM: NUMBER OF ATOMS
3
ITEM: BOX BOUNDS xy xz yz pp pp pp
0.0000000000000000e+00 5.0000000000000000e+01 0.0000000000000000e+00
0.0000000000000000e+00 5.0000000000000000e+01 0.0000000000000000e+00
0.0000000000000000e+00 5.0000000000000000e+01 0.0000000000000000e+00
ITEM: ATOMS id type x y z c_1[1] c_1[2] c_1[3] c_1[4] c_1[22]
1 2 0.400088 0.44 0 -2.88258e+10 -3.1485e+10 -0 -8.66917e+09 1.05107e+11
2 2 0 0 0 -4.57667e+10 -1.39203e+10 -0 -1.30711e+10 1.00617e+11
3 2 0.5 0 0 -2.53107e+10 -1.75647e+10 -0 1.80164e+10 4.48967e+09
ITEM: TIMESTEP
1
ITEM: NUMBER OF ATOMS
3
ITEM: BOX BOUNDS xy xz yz pp pp pp
0.0000000000000000e+00 5.0000000000000000e+01 0.0000000000000000e+00
0.0000000000000000e+00 5.0000000000000000e+01 0.0000000000000000e+00
0.0000000000000000e+00 5.0000000000000000e+01 0.0000000000000000e+00
ITEM: ATOMS id type x y z c_1[1] c_1[2] c_1[3] c_1[4] c_1[22]
1 2 0.400088 0.44 0 -2.88258e+10 -3.14847e+10 -0 -8.66903e+09 1.05105e+11
2 2 0 0 0 -4.57666e+10 -1.39202e+10 -0 -1.3071e+10 1.00615e+11
3 2 0.500001 0 0 -2.53108e+10 -1.75645e+10 -0 1.80165e+10 4.49013e+09
ITEM: TIMESTEP
2
ITEM: NUMBER OF ATOMS
3
ITEM: BOX BOUNDS xy xz yz pp pp pp
0.0000000000000000e+00 5.0000000000000000e+01 0.0000000000000000e+00
0.0000000000000000e+00 5.0000000000000000e+01 0.0000000000000000e+00
0.0000000000000000e+00 5.0000000000000000e+01 0.0000000000000000e+00
ITEM: ATOMS id type x y z c_1[1] c_1[2] c_1[3] c_1[4] c_1[22]
1 2 0.400088 0.44 0 -2.88258e+10 -3.14845e+10 -0 -8.66889e+09 1.05103e+11
2 2 0 0 0 -4.57665e+10 -1.392e+10 -0 -1.30708e+10 1.00612e+11
3 2 0.500002 0 0 -2.53108e+10 -1.75644e+10 -0 1.80166e+10 4.49058e+09
