ITEM: TIMESTEP
0
ITEM: NUMBER OF ATOMS
3
ITEM: BOX BOUNDS xy xz yz pp pp pp
0.0000000000000000e+00 5.0000000000000000e+01 0.0000000000000000e+00
0.0000000000000000e+00 5.0000000000000000e+01 0.0000000000000000e+00
0.0000000000000000e+00 5.0000000000000000e+01 0.0000000000000000e+00
ITEM: ATOMS id type x y z c_1[1] c_1[2] c_1[3] c_1[4] c_1[5] c_1[6] c_1[7] c_1[22]
1 2 0.378614 0.321535 0 -2.96202e+08 -5.09561e+08 -0 -8.71034e+07 -0 -0 1.25921e+09 -1.66762e+09
2 2 0 0 0 -7.625e+08 -1.79721e+08 -0 -2.11625e+08 -0 -0 -1.59149e+09 -1.4211e+09
3 2 0.5 0 0 -5.60317e+08 -3.2984e+08 -0 1.24521e+08 -0 -0 -2.92097e+09 -2.4652e+08
ITEM: TIMESTEP
1
ITEM: NUMBER OF ATOMS
3
ITEM: BOX BOUNDS xy xz yz pp pp pp
0.0000000000000000e+00 5.0049999999999997e+01 4.9999999999997158e-02
0.0000000000000000e+00 5.0000000000000000e+01 0.0000000000000000e+00
0.0000000000000000e+00 5.0000000000000000e+01 0.0000000000000000e+00
ITEM: ATOMS id type x y z c_1[1] c_1[2] c_1[3] c_1[4] c_1[5] c_1[6] c_1[7] c_1[22]
1 2 0.378936 0.321535 0 -2.96202e+08 -5.09561e+08 -0 -8.71034e+07 -0 -0 1.25921e+09 -1.6678e+09
2 2 0 0 0 -7.625e+08 -1.79721e+08 -0 -2.11625e+08 -0 -0 -1.59149e+09 -1.42128e+09
3 2 0.5 0 0 -5.60317e+08 -3.2984e+08 -0 1.24521e+08 -0 -0 -2.92097e+09 -2.4652e+08
ITEM: TIMESTEP
2
ITEM: NUMBER OF ATOMS
3
ITEM: BOX BOUNDS xy xz yz pp pp pp
0.0000000000000000e+00 5.0100000000000001e+01 1.0000000000000142e-01
0.0000000000000000e+00 5.0000000000000000e+01 0.0000000000000000e+00
0.0000000000000000e+00 5.0000000000000000e+01 0.0000000000000000e+00
ITEM: ATOMS id type x y z c_1[1] c_1[2] c_1[3] c_1[4] c_1[5] c_1[6] c_1[7] c_1[22]
1 2 0.379257 0.321535 0 -2.97887e+08 -5.10846e+08 -0 -8.87848e+07 -0 -0 1.27846e+09 -1.69568e+09
2 2 0 0 0 -7.61331e+08 -1.80785e+08 -0 -2.1306e+08 -0 -0 -1.55008e+09 -1.44859e+09
3 2 0.5 0 0 -5.57028e+08 -3.30061e+08 -0 1.24275e+08 -0 -0 -2.8986e+09 -2.47086e+08
ITEM: TIMESTEP
3
ITEM: NUMBER OF ATOMS
3
ITEM: BOX BOUNDS xy xz yz pp pp pp
0.0000000000000000e+00 5.0149999999999999e+01 1.4999999999999858e-01
0.0000000000000000e+00 5.0000000000000000e+01 0.0000000000000000e+00
0.0000000000000000e+00 5.0000000000000000e+01 0.0000000000000000e+00
ITEM: ATOMS id type x y z c_1[1] c_1[2] c_1[3] c_1[4] c_1[5] c_1[6] c_1[7] c_1[22]
1 2 0.379579 0.321535 0 -2.99608e+08 -5.12153e+08 -0 -9.04941e+07 -0 -0 1.29752e+09 -1.72363e+09
2 2 0 0 0 -7.60205e+08 -1.81872e+08 -0 -2.14522e+08 -0 -0 -1.50839e+09 -1.47598e+09
3 2 0.5 0 0 -5.53747e+08 -3.30282e+08 -0 1.24028e+08 -0 -0 -2.87576e+09 -2.47652e+08
ITEM: TIMESTEP
4
ITEM: NUMBER OF ATOMS
3
ITEM: BOX BOUNDS xy xz yz pp pp pp
0.0000000000000000e+00 5.0200000000000003e+01 2.0000000000000284e-01
0.0000000000000000e+00 5.0000000000000000e+01 0.0000000000000000e+00
0.0000000000000000e+00 5.0000000000000000e+01 0.0000000000000000e+00
ITEM: ATOMS id type x y z c_1[1] c_1[2] c_1[3] c_1[4] c_1[5] c_1[6] c_1[7] c_1[22]
1 2 0.3799 0.321535 0 -3.01364e+08 -5.13481e+08 -0 -9.22313e+07 -0 -0 1.31636e+09 -1.75148e+09
2 2 0 0 0 -7.59121e+08 -1.82979e+08 -0 -2.16011e+08 -0 -0 -1.46644e+09 -1.50326e+09
3 2 0.5 0 0 -5.50473e+08 -3.30502e+08 -0 1.2378e+08 -0 -0 -2.85243e+09 -2.48218e+08
