ITEM: TIMESTEP
0
ITEM: NUMBER OF ATOMS
2
ITEM: BOX BOUNDS xy xz yz pp pp pp
0.0000000000000000e+00 5.0000000000000000e+01 0.0000000000000000e+00
0.0000000000000000e+00 5.0000000000000000e+01 0.0000000000000000e+00
0.0000000000000000e+00 5.0000000000000000e+01 0.0000000000000000e+00
ITEM: ATOMS id type x y z c_1[1] c_1[2] c_1[3] c_1[4] c_1[22]
1 2 0.400088 0.44 0 -6.41821e+09 -7.76262e+09 -0 -7.05848e+09 5.82008e+09
2 2 0 0 0 -6.41821e+09 -7.76262e+09 -0 -7.05848e+09 5.82008e+09
ITEM: TIMESTEP
1
ITEM: NUMBER OF ATOMS
2
ITEM: BOX BOUNDS xy xz yz pp pp pp
0.0000000000000000e+00 5.0000500000000002e+01 5.0000000000238742e-04
0.0000000000000000e+00 5.0000000000000000e+01 0.0000000000000000e+00
0.0000000000000000e+00 5.0000000000000000e+01 0.0000000000000000e+00
ITEM: ATOMS id type x y z c_1[1] c_1[2] c_1[3] c_1[4] c_1[22]
1 2 0.400092 0.44 0 -6.41821e+09 -7.76262e+09 -0 -7.05848e+09 5.82008e+09
2 2 0 0 0 -6.41821e+09 -7.76262e+09 -0 -7.05848e+09 5.82008e+09
ITEM: TIMESTEP
2
ITEM: NUMBER OF ATOMS
2
ITEM: BOX BOUNDS xy xz yz pp pp pp
0.0000000000000000e+00 5.0000999999999998e+01 9.9999999999766942e-04
0.0000000000000000e+00 5.0000000000000000e+01 0.0000000000000000e+00
0.0000000000000000e+00 5.0000000000000000e+01 0.0000000000000000e+00
ITEM: ATOMS id type x y z c_1[1] c_1[2] c_1[3] c_1[4] c_1[22]
1 2 0.400097 0.44 0 -6.41823e+09 -7.76247e+09 -0 -7.05842e+09 5.82019e+09
2 2 0 0 0 -6.41823e+09 -7.76247e+09 -0 -7.05842e+09 5.82019e+09
ITEM: TIMESTEP
3
ITEM: NUMBER OF ATOMS
2
ITEM: BOX BOUNDS xy xz yz pp pp pp
0.0000000000000000e+00 5.0001500000000000e+01 1.5000000000000568e-03
0.0000000000000000e+00 5.0000000000000000e+01 0.0000000000000000e+00
0.0000000000000000e+00 5.0000000000000000e+01 0.0000000000000000e+00
ITEM: ATOMS id type x y z c_1[1] c_1[2] c_1[3] c_1[4] c_1[22]
1 2 0.400101 0.44 0 -6.41825e+09 -7.76232e+09 -0 -7.05836e+09 5.82029e+09
2 2 0 0 0 -6.41825e+09 -7.76232e+09 -0 -7.05836e+09 5.82029e+09
ITEM: TIMESTEP
4
ITEM: NUMBER OF ATOMS
2
ITEM: BOX BOUNDS xy xz yz pp pp pp
0.0000000000000000e+00 5.0002000000000002e+01 2.0000000000024443e-03
0.0000000000000000e+00 5.0000000000000000e+01 0.0000000000000000e+00
0.0000000000000000e+00 5.0000000000000000e+01 0.0000000000000000e+00
ITEM: ATOMS id type x y z c_1[1] c_1[2] c_1[3] c_1[4] c_1[22]
1 2 0.400106 0.44 0 -6.41826e+09 -7.76217e+09 -0 -7.0583e+09 5.82039e+09
2 2 0 0 0 -6.41826e+09 -7.76217e+09 -0 -7.0583e+09 5.82039e+09
ITEM: TIMESTEP
5
ITEM: NUMBER OF ATOMS
2
ITEM: BOX BOUNDS xy xz yz pp pp pp
0.0000000000000000e+00 5.0002499999999998e+01 2.4999999999977263e-03
0.0000000000000000e+00 5.0000000000000000e+01 0.0000000000000000e+00
0.0000000000000000e+00 5.0000000000000000e+01 0.0000000000000000e+00
ITEM: ATOMS id type x y z c_1[1] c_1[2] c_1[3] c_1[4] c_1[22]
1 2 0.40011 0.44 0 -6.41828e+09 -7.76202e+09 -0 -7.05825e+09 5.82049e+09
2 2 0 0 0 -6.41828e+09 -7.76202e+09 -0 -7.05825e+09 5.82049e+09
ITEM: TIMESTEP
6
ITEM: NUMBER OF ATOMS
2
ITEM: BOX BOUNDS xy xz yz pp pp pp
0.0000000000000000e+00 5.0003000000000000e+01 3.0000000000001137e-03
0.0000000000000000e+00 5.0000000000000000e+01 0.0000000000000000e+00
0.0000000000000000e+00 5.0000000000000000e+01 0.0000000000000000e+00
ITEM: ATOMS id type x y z c_1[1] c_1[2] c_1[3] c_1[4] c_1[22]
1 2 0.400114 0.44 0 -6.4183e+09 -7.76187e+09 -0 -7.05819e+09 5.82059e+09
2 2 0 0 0 -6.4183e+09 -7.76187e+09 -0 -7.05819e+09 5.82059e+09
ITEM: TIMESTEP
7
ITEM: NUMBER OF ATOMS
2
ITEM: BOX BOUNDS xy xz yz pp pp pp
0.0000000000000000e+00 5.0003500000000003e+01 3.5000000000025011e-03
0.0000000000000000e+00 5.0000000000000000e+01 0.0000000000000000e+00
0.0000000000000000e+00 5.0000000000000000e+01 0.0000000000000000e+00
ITEM: ATOMS id type x y z c_1[1] c_1[2] c_1[3] c_1[4] c_1[22]
1 2 0.400119 0.44 0 -6.41832e+09 -7.76172e+09 -0 -7.05813e+09 5.82069e+09
2 2 0 0 0 -6.41832e+09 -7.76172e+09 -0 -7.05813e+09 5.82069e+09
ITEM: TIMESTEP
8
ITEM: NUMBER OF ATOMS
2
ITEM: BOX BOUNDS xy xz yz pp pp pp
0.0000000000000000e+00 5.0003999999999998e+01 3.9999999999977831e-03
0.0000000000000000e+00 5.0000000000000000e+01 0.0000000000000000e+00
0.0000000000000000e+00 5.0000000000000000e+01 0.0000000000000000e+00
ITEM: ATOMS id type x y z c_1[1] c_1[2] c_1[3] c_1[4] c_1[22]
1 2 0.400123 0.44 0 -6.41833e+09 -7.76157e+09 -0 -7.05807e+09 5.8208e+09
2 2 0 0 0 -6.41833e+09 -7.76157e+09 -0 -7.05807e+09 5.8208e+09
ITEM: TIMESTEP
9
ITEM: NUMBER OF ATOMS
2
ITEM: BOX BOUNDS xy xz yz pp pp pp
0.0000000000000000e+00 5.0004500000000000e+01 4.5000000000001705e-03
0.0000000000000000e+00 5.0000000000000000e+01 0.0000000000000000e+00
0.0000000000000000e+00 5.0000000000000000e+01 0.0000000000000000e+00
ITEM: ATOMS id type x y z c_1[1] c_1[2] c_1[3] c_1[4] c_1[22]
1 2 0.400128 0.44 0 -6.41835e+09 -7.76142e+09 -0 -7.05801e+09 5.8209e+09
2 2 0 0 0 -6.41835e+09 -7.76142e+09 -0 -7.05801e+09 5.8209e+09
ITEM: TIMESTEP
10
ITEM: NUMBER OF ATOMS
2
ITEM: BOX BOUNDS xy xz yz pp pp pp
0.0000000000000000e+00 5.0005000000000003e+01 5.0000000000025580e-03
0.0000000000000000e+00 5.0000000000000000e+01 0.0000000000000000e+00
0.0000000000000000e+00 5.0000000000000000e+01 0.0000000000000000e+00
ITEM: ATOMS id type x y z c_1[1] c_1[2] c_1[3] c_1[4] c_1[22]
1 2 0.400132 0.44 0 -6.41837e+09 -7.76127e+09 -0 -7.05795e+09 5.821e+09
2 2 0 0 0 -6.41837e+09 -7.76127e+09 -0 -7.05795e+09 5.821e+09
ITEM: TIMESTEP
11
ITEM: NUMBER OF ATOMS
2
ITEM: BOX BOUNDS xy xz yz pp pp pp
0.0000000000000000e+00 5.0005499999999998e+01 5.4999999999978400e-03
0.0000000000000000e+00 5.0000000000000000e+01 0.0000000000000000e+00
0.0000000000000000e+00 5.0000000000000000e+01 0.0000000000000000e+00
ITEM: ATOMS id type x y z c_1[1] c_1[2] c_1[3] c_1[4] c_1[22]
1 2 0.400136 0.44 0 -6.41839e+09 -7.76112e+09 -0 -7.0579e+09 5.8211e+09
2 2 0 0 0 -6.41839e+09 -7.76112e+09 -0 -7.0579e+09 5.8211e+09
ITEM: TIMESTEP
12
ITEM: NUMBER OF ATOMS
2
ITEM: BOX BOUNDS xy xz yz pp pp pp
0.0000000000000000e+00 5.0006000000000000e+01 6.0000000000002274e-03
0.0000000000000000e+00 5.0000000000000000e+01 0.0000000000000000e+00
0.0000000000000000e+00 5.0000000000000000e+01 0.0000000000000000e+00
ITEM: ATOMS id type x y z c_1[1] c_1[2] c_1[3] c_1[4] c_1[22]
1 2 0.400141 0.44 0 -6.4184e+09 -7.76098e+09 -0 -7.05784e+09 5.8212e+09
2 2 0 0 0 -6.4184e+09 -7.76098e+09 -0 -7.05784e+09 5.8212e+09
ITEM: TIMESTEP
13
ITEM: NUMBER OF ATOMS
2
ITEM: BOX BOUNDS xy xz yz pp pp pp
0.0000000000000000e+00 5.0006500000000003e+01 6.5000000000026148e-03
0.0000000000000000e+00 5.0000000000000000e+01 0.0000000000000000e+00
0.0000000000000000e+00 5.0000000000000000e+01 0.0000000000000000e+00
ITEM: ATOMS id type x y z c_1[1] c_1[2] c_1[3] c_1[4] c_1[22]
1 2 0.400145 0.44 0 -6.41842e+09 -7.76083e+09 -0 -7.05778e+09 5.8213e+09
2 2 0 0 0 -6.41842e+09 -7.76083e+09 -0 -7.05778e+09 5.8213e+09
ITEM: TIMESTEP
14
ITEM: NUMBER OF ATOMS
2
ITEM: BOX BOUNDS xy xz yz pp pp pp
0.0000000000000000e+00 5.0006999999999998e+01 6.9999999999978968e-03
0.0000000000000000e+00 5.0000000000000000e+01 0.0000000000000000e+00
0.0000000000000000e+00 5.0000000000000000e+01 0.0000000000000000e+00
ITEM: ATOMS id type x y z c_1[1] c_1[2] c_1[3] c_1[4] c_1[22]
1 2 0.40015 0.44 0 -6.41844e+09 -7.76068e+09 -0 -7.05772e+09 5.8214e+09
2 2 0 0 0 -6.41844e+09 -7.76068e+09 -0 -7.05772e+09 5.8214e+09
ITEM: TIMESTEP
15
ITEM: NUMBER OF ATOMS
2
ITEM: BOX BOUNDS xy xz yz pp pp pp
0.0000000000000000e+00 5.0007500000000000e+01 7.5000000000002842e-03
0.0000000000000000e+00 5.0000000000000000e+01 0.0000000000000000e+00
0.0000000000000000e+00 5.0000000000000000e+01 0.0000000000000000e+00
ITEM: ATOMS id type x y z c_1[1] c_1[2] c_1[3] c_1[4] c_1[22]
1 2 0.400154 0.44 0 -6.41846e+09 -7.76053e+09 -0 -7.05766e+09 5.82151e+09
2 2 0 0 0 -6.41846e+09 -7.76053e+09 -0 -7.05766e+09 5.82151e+09
ITEM: TIMESTEP
16
ITEM: NUMBER OF ATOMS
2
ITEM: BOX BOUNDS xy xz yz pp pp pp
0.0000000000000000e+00 5.0008000000000003e+01 8.0000000000026716e-03
0.0000000000000000e+00 5.0000000000000000e+01 0.0000000000000000e+00
0.0000000000000000e+00 5.0000000000000000e+01 0.0000000000000000e+00
ITEM: ATOMS id type x y z c_1[1] c_1[2] c_1[3] c_1[4] c_1[22]
1 2 0.400158 0.44 0 -6.41848e+09 -7.76038e+09 -0 -7.05761e+09 5.82161e+09
2 2 0 0 0 -6.41848e+09 -7.76038e+09 -0 -7.05761e+09 5.82161e+09
ITEM: TIMESTEP
17
ITEM: NUMBER OF ATOMS
2
ITEM: BOX BOUNDS xy xz yz pp pp pp
0.0000000000000000e+00 5.0008499999999998e+01 8.4999999999979536e-03
0.0000000000000000e+00 5.0000000000000000e+01 0.0000000000000000e+00
0.0000000000000000e+00 5.0000000000000000e+01 0.0000000000000000e+00
ITEM: ATOMS id type x y z c_1[1] c_1[2] c_1[3] c_1[4] c_1[22]
1 2 0.400163 0.44 0 -6.41849e+09 -7.76023e+09 -0 -7.05755e+09 5.82171e+09
2 2 0 0 0 -6.41849e+09 -7.76023e+09 -0 -7.05755e+09 5.82171e+09
ITEM: TIMESTEP
18
ITEM: NUMBER OF ATOMS
2
ITEM: BOX BOUNDS xy xz yz pp pp pp
0.0000000000000000e+00 5.0009000000000000e+01 9.0000000000003411e-03
0.0000000000000000e+00 5.0000000000000000e+01 0.0000000000000000e+00
0.0000000000000000e+00 5.0000000000000000e+01 0.0000000000000000e+00
ITEM: ATOMS id type x y z c_1[1] c_1[2] c_1[3] c_1[4] c_1[22]
1 2 0.400167 0.44 0 -6.41851e+09 -7.76008e+09 -0 -7.05749e+09 5.82181e+09
2 2 0 0 0 -6.41851e+09 -7.76008e+09 -0 -7.05749e+09 5.82181e+09
ITEM: TIMESTEP
19
ITEM: NUMBER OF ATOMS
2
ITEM: BOX BOUNDS xy xz yz pp pp pp
0.0000000000000000e+00 5.0009500000000003e+01 9.5000000000027285e-03
0.0000000000000000e+00 5.0000000000000000e+01 0.0000000000000000e+00
0.0000000000000000e+00 5.0000000000000000e+01 0.0000000000000000e+00
ITEM: ATOMS id type x y z c_1[1] c_1[2] c_1[3] c_1[4] c_1[22]
1 2 0.400172 0.44 0 -6.41853e+09 -7.75993e+09 -0 -7.05743e+09 5.82191e+09
2 2 0 0 0 -6.41853e+09 -7.75993e+09 -0 -7.05743e+09 5.82191e+09
ITEM: TIMESTEP
20
ITEM: NUMBER OF ATOMS
2
ITEM: BOX BOUNDS xy xz yz pp pp pp
0.0000000000000000e+00 5.0009999999999998e+01 9.9999999999980105e-03
0.0000000000000000e+00 5.0000000000000000e+01 0.0000000000000000e+00
0.0000000000000000e+00 5.0000000000000000e+01 0.0000000000000000e+00
ITEM: ATOMS id type x y z c_1[1] c_1[2] c_1[3] c_1[4] c_1[22]
1 2 0.400176 0.44 0 -6.41855e+09 -7.75978e+09 -0 -7.05737e+09 5.82201e+09
2 2 0 0 0 -6.41855e+09 -7.75978e+09 -0 -7.05737e+09 5.82201e+09
