ITEM: TIMESTEP
0
ITEM: NUMBER OF ATOMS
665
ITEM: BOX BOUNDS xy xz yz pp pp pp
-1.0000000000000000e+01 1.0000000000000000e+01 0.0000000000000000e+00
-1.0000000000000000e+01 1.0000000000000000e+01 0.0000000000000000e+00
-1.0000000000000000e+01 1.0000000000000000e+01 0.0000000000000000e+00
ITEM: ATOMS id type x y z c_1[1] c_1[2] c_1[3] c_1[4] c_1[5] c_1[6] c_1[7] c_1[8] c_1[13] c_1[15] c_1[22]
1 2 -7.4 -9.25 -9.25 5.3562e+07 -2.92608e+07 -2.92608e+07 -4.62385e+06 -4.62385e+06 -2.27359e+07 -1.85118e+07 1.55065e+07 2.00231e+08 3.52233e+06 -1.37543e+07
2 2 -3.7 -9.25 -9.25 8.13726e+07 -2.73863e+07 -2.73863e+07 -0 -0 -2.19761e+07 -1.12598e+08 6.81811e+06 2.00678e+08 -0 -2.05682e+07
3 2 0 -9.25 -9.25 8.13726e+07 -2.73863e+07 -2.73863e+07 1.84992e-08 2.1701e-08 -2.19761e+07 -1.12598e+08 6.81811e+06 2.00678e+08 -7.17735e-08 -2.05682e+07
4 2 3.7 -9.25 -9.25 8.13726e+07 -2.73863e+07 -2.73863e+07 -1.63647e-08 -1.63647e-08 -2.19761e+07 -1.12598e+08 6.81811e+06 2.00678e+08 9.07174e-09 -2.05682e+07
5 2 7.4 -9.25 -9.25 5.3562e+07 -2.92608e+07 -2.92608e+07 4.62385e+06 4.62385e+06 -2.27359e+07 -1.85118e+07 1.55065e+07 2.00231e+08 -3.52233e+06 -1.37543e+07
6 2 -9.25 -7.4 -9.25 -2.92608e+07 5.3562e+07 -2.92608e+07 -4.62385e+06 -2.27359e+07 -4.62385e+06 2.00231e+08 1.55065e+07 -1.85118e+07 2.14314e+07 6.90686e+07
7 2 -5.55 -7.4 -9.25 6.35564e+07 4.71513e+07 -2.81781e+07 -0 8.53811e-09 -2.74989e+06 1.31536e+06 4.9823e+07 5.3943e+07 -0 9.69743e+07
8 2 -7.4 -5.55 -9.25 4.71513e+07 6.35564e+07 -2.81781e+07 -0 -2.74989e+06 9.24962e-09 5.3943e+07 4.9823e+07 1.31536e+06 -0 1.13379e+08
9 2 -1.85 -7.4 -9.25 6.35564e+07 4.71513e+07 -2.81781e+07 -0 -2.13453e-09 -2.74989e+06 1.31536e+06 4.9823e+07 5.3943e+07 -0 9.69743e+07
10 2 -3.7 -5.55 -9.25 6.35564e+07 6.35564e+07 -2.70633e+07 -0 -0 1.20957e-08 1.31536e+06 4.9823e+07 1.31536e+06 -0 1.13379e+08
11 2 1.85 -7.4 -9.25 6.35564e+07 4.71513e+07 -2.81781e+07 -0 -1.52974e-08 -2.74989e+06 1.31536e+06 4.9823e+07 5.3943e+07 -0 9.69743e+07
12 2 0 -5.55 -9.25 6.35564e+07 6.35564e+07 -2.70633e+07 4.98057e-09 1.28072e-08 8.53811e-09 1.31536e+06 4.9823e+07 1.31536e+06 -4.58034e-08 1.13379e+08
13 2 5.55 -7.4 -9.25 6.35564e+07 4.71513e+07 -2.81781e+07 -0 -1.10284e-08 -2.74989e+06 1.31536e+06 4.9823e+07 5.3943e+07 -0 9.69743e+07
14 2 3.7 -5.55 -9.25 6.35564e+07 6.35564e+07 -2.70633e+07 -0 -8.18236e-09 9.24962e-09 1.31536e+06 4.9823e+07 1.31536e+06 -0 1.13379e+08
15 2 9.25 -7.4 -9.25 -2.92608e+07 5.3562e+07 -2.92608e+07 4.62385e+06 2.27359e+07 -4.62385e+06 2.00231e+08 1.55065e+07 -1.85118e+07 -2.14314e+07 6.90686e+07
16 2 7.4 -5.55 -9.25 4.71513e+07 6.35564e+07 -2.81781e+07 4.26906e-09 2.74989e+06 9.96113e-09 5.3943e+07 4.9823e+07 1.31536e+06 -3.59312e-08 1.13379e+08
17 2 -9.25 -3.7 -9.25 -2.73863e+07 8.13726e+07 -2.73863e+07 -0 -2.19761e+07 -3.55755e-10 2.00678e+08 6.81811e+06 -1.12598e+08 -0 8.81907e+07
18 2 -5.55 -3.7 -9.25 6.35564e+07 6.35564e+07 -2.70633e+07 -0 1.28072e-08 7.11509e-10 1.31536e+06 4.9823e+07 1.31536e+06 -0 1.13379e+08
19 2 -7.4 -1.85 -9.25 4.71513e+07 6.35564e+07 -2.81781e+07 -0 -2.74989e+06 -2.13453e-09 5.3943e+07 4.9823e+07 1.31536e+06 -0 1.13379e+08
20 2 -1.85 -3.7 -9.25 6.35564e+07 6.35564e+07 -2.70633e+07 -0 -6.40358e-09 7.11509e-10 1.31536e+06 4.9823e+07 1.31536e+06 -0 1.13379e+08
21 2 -3.7 -1.85 -9.25 6.35564e+07 6.35564e+07 -2.70633e+07 -0 -0 -6.40358e-09 1.31536e+06 4.9823e+07 1.31536e+06 -0 1.13379e+08
22 2 1.85 -3.7 -9.25 6.35564e+07 6.35564e+07 -2.70633e+07 -0 -1.6009e-08 -0 1.31536e+06 4.9823e+07 1.31536e+06 -0 1.13379e+08
23 2 0 -1.85 -9.25 6.35564e+07 6.35564e+07 -2.70633e+07 -4.98057e-09 1.28072e-08 -1.77877e-09 1.31536e+06 4.9823e+07 1.31536e+06 4.58034e-08 1.13379e+08
24 2 5.55 -3.7 -9.25 6.35564e+07 6.35564e+07 -2.70633e+07 -0 -8.18236e-09 -7.11509e-10 1.31536e+06 4.9823e+07 1.31536e+06 -0 1.13379e+08
25 2 3.7 -1.85 -9.25 6.35564e+07 6.35564e+07 -2.70633e+07 -0 -8.18236e-09 -2.13453e-09 1.31536e+06 4.9823e+07 1.31536e+06 -0 1.13379e+08
26 2 9.25 -3.7 -9.25 -2.73863e+07 8.13726e+07 -2.73863e+07 -0 2.19761e+07 -7.11509e-10 2.00678e+08 6.81811e+06 -1.12598e+08 1.42302e-09 8.81907e+07
27 2 7.4 -1.85 -9.25 4.71513e+07 6.35564e+07 -2.81781e+07 -4.26906e-09 2.74989e+06 -3.20179e-09 5.3943e+07 4.9823e+07 1.31536e+06 3.59312e-08 1.13379e+08
28 2 -9.25 0 -9.25 -2.73863e+07 8.13726e+07 -2.73863e+07 1.84992e-08 -2.19761e+07 2.13453e-08 2.00678e+08 6.81811e+06 -1.12598e+08 -5.26517e-08 8.81907e+07
29 2 -5.55 0 -9.25 6.35564e+07 6.35564e+07 -2.70633e+07 4.98057e-09 9.24962e-09 1.24514e-08 1.31536e+06 4.9823e+07 1.31536e+06 -4.60702e-08 1.13379e+08
30 2 -7.4 1.85 -9.25 4.71513e+07 6.35564e+07 -2.81781e+07 -0 -2.74989e+06 -1.45859e-08 5.3943e+07 4.9823e+07 1.31536e+06 -0 1.13379e+08
31 2 -1.85 0 -9.25 6.35564e+07 6.35564e+07 -2.70633e+07 -4.98057e-09 -2.49028e-09 1.28072e-08 1.31536e+06 4.9823e+07 1.31536e+06 4.60702e-08 1.13379e+08
32 2 -3.7 1.85 -9.25 6.35564e+07 6.35564e+07 -2.70633e+07 -0 -0 -1.6009e-08 1.31536e+06 4.9823e+07 1.31536e+06 -0 1.13379e+08
33 2 1.85 0 -9.25 6.35564e+07 6.35564e+07 -2.70633e+07 -1.06726e-09 -1.56532e-08 1.20957e-08 1.31536e+06 4.9823e+07 1.31536e+06 -1.24514e-09 1.13379e+08
34 2 0 1.85 -9.25 6.35564e+07 6.35564e+07 -2.70633e+07 -1.06726e-09 1.20957e-08 -1.56532e-08 1.31536e+06 4.9823e+07 1.31536e+06 -1.24514e-09 1.13379e+08
35 2 5.55 0 -9.25 6.35564e+07 6.35564e+07 -2.70633e+07 -1.06726e-09 -1.03169e-08 1.24514e-08 1.31536e+06 4.9823e+07 1.31536e+06 -3.64649e-09 1.13379e+08
36 2 3.7 1.85 -9.25 6.35564e+07 6.35564e+07 -2.70633e+07 -0 -7.8266e-09 -1.45859e-08 1.31536e+06 4.9823e+07 1.31536e+06 -0 1.13379e+08
37 2 9.25 0 -9.25 -2.73863e+07 8.13726e+07 -2.73863e+07 -1.95665e-08 2.19761e+07 2.09895e-08 2.00678e+08 6.81811e+06 -1.12598e+08 5.12287e-08 8.81907e+07
38 2 7.4 1.85 -9.25 4.71513e+07 6.35564e+07 -2.81781e+07 -2.13453e-09 2.74989e+06 -1.70762e-08 5.3943e+07 4.9823e+07 1.31536e+06 -4.89163e-09 1.13379e+08
39 2 -9.25 3.7 -9.25 -2.73863e+07 8.13726e+07 -2.73863e+07 -1.63647e-08 -2.19761e+07 -1.67205e-08 2.00678e+08 6.81811e+06 -1.12598e+08 1.13841e-08 8.81907e+07
40 2 -5.55 3.7 -9.25 6.35564e+07 6.35564e+07 -2.70633e+07 -0 8.53811e-09 -7.47085e-09 1.31536e+06 4.9823e+07 1.31536e+06 -0 1.13379e+08
41 2 -7.4 5.55 -9.25 4.71513e+07 6.35564e+07 -2.81781e+07 -0 -2.74989e+06 -1.03169e-08 5.3943e+07 4.9823e+07 1.31536e+06 -0 1.13379e+08
42 2 -1.85 3.7 -9.25 6.35564e+07 6.35564e+07 -2.70633e+07 -0 -2.13453e-09 -7.47085e-09 1.31536e+06 4.9823e+07 1.31536e+06 -0 1.13379e+08
43 2 -3.7 5.55 -9.25 6.35564e+07 6.35564e+07 -2.70633e+07 -0 -0 -8.89387e-09 1.31536e+06 4.9823e+07 1.31536e+06 -0 1.13379e+08
44 2 1.85 3.7 -9.25 6.35564e+07 6.35564e+07 -2.70633e+07 -0 -1.52974e-08 -8.18236e-09 1.31536e+06 4.9823e+07 1.31536e+06 -0 1.13379e+08
45 2 0 5.55 -9.25 6.35564e+07 6.35564e+07 -2.70633e+07 -1.06726e-09 1.35187e-08 -1.03169e-08 1.31536e+06 4.9823e+07 1.31536e+06 -3.73542e-09 1.13379e+08
46 2 5.55 3.7 -9.25 6.35564e+07 6.35564e+07 -2.70633e+07 -0 -1.10284e-08 -8.18236e-09 1.31536e+06 4.9823e+07 1.31536e+06 -0 1.13379e+08
47 2 3.7 5.55 -9.25 6.35564e+07 6.35564e+07 -2.70633e+07 -0 -8.18236e-09 -1.03169e-08 1.31536e+06 4.9823e+07 1.31536e+06 -0 1.13379e+08
48 2 9.25 3.7 -9.25 -2.73863e+07 8.13726e+07 -2.73863e+07 1.63647e-08 2.19761e+07 -1.6009e-08 2.00678e+08 6.81811e+06 -1.12598e+08 -1.13841e-08 8.81907e+07
49 2 7.4 5.55 -9.25 4.71513e+07 6.35564e+07 -2.81781e+07 -2.49028e-09 2.74989e+06 -9.60538e-09 5.3943e+07 4.9823e+07 1.31536e+06 -3.9133e-09 1.13379e+08
50 2 -9.25 7.4 -9.25 -2.92608e+07 5.3562e+07 -2.92608e+07 4.62385e+06 -2.27359e+07 4.62385e+06 2.00231e+08 1.55065e+07 -1.85118e+07 -2.14314e+07 6.90686e+07
51 2 -5.55 7.4 -9.25 6.35564e+07 4.71513e+07 -2.81781e+07 4.26906e-09 1.06726e-08 2.74989e+06 1.31536e+06 4.9823e+07 5.3943e+07 -3.88662e-08 9.69743e+07
52 2 -7.4 9.25 -9.25 5.3562e+07 -2.92608e+07 -2.92608e+07 4.62385e+06 -4.62385e+06 2.27359e+07 -1.85118e+07 1.55065e+07 2.00231e+08 -3.52233e+06 -1.37543e+07
53 2 -1.85 7.4 -9.25 6.35564e+07 4.71513e+07 -2.81781e+07 -4.26906e-09 -3.9133e-09 2.74989e+06 1.31536e+06 4.9823e+07 5.3943e+07 3.88662e-08 9.69743e+07
54 2 -3.7 9.25 -9.25 8.13726e+07 -2.73863e+07 -2.73863e+07 -0 -0 2.19761e+07 -1.12598e+08 6.81811e+06 2.00678e+08 -0 -2.05682e+07
55 2 1.85 7.4 -9.25 6.35564e+07 4.71513e+07 -2.81781e+07 -2.13453e-09 -1.63647e-08 2.74989e+06 1.31536e+06 4.9823e+07 5.3943e+07 -4.98057e-09 9.69743e+07
56 2 0 9.25 -9.25 8.13726e+07 -2.73863e+07 -2.73863e+07 -1.95665e-08 2.1701e-08 2.19761e+07 -1.12598e+08 6.81811e+06 2.00678e+08 7.12399e-08 -2.05682e+07
57 2 5.55 7.4 -9.25 6.35564e+07 4.71513e+07 -2.81781e+07 -2.49028e-09 -8.89387e-09 2.74989e+06 1.31536e+06 4.9823e+07 5.3943e+07 -3.82436e-09 9.69743e+07
58 2 3.7 9.25 -9.25 8.13726e+07 -2.73863e+07 -2.73863e+07 1.63647e-08 -1.6009e-08 2.19761e+07 -1.12598e+08 6.81811e+06 2.00678e+08 -8.71599e-09 -2.05682e+07
59 2 9.25 7.4 -9.25 -2.92608e+07 5.3562e+07 -2.92608e+07 -4.62385e+06 2.27359e+07 4.62385e+06 2.00231e+08 1.55065e+07 -1.85118e+07 2.14314e+07 6.90686e+07
60 2 7.4 9.25 -9.25 5.3562e+07 -2.92608e+07 -2.92608e+07 -4.62385e+06 4.62385e+06 2.27359e+07 -1.85118e+07 1.55065e+07 2.00231e+08 3.52233e+06 -1.37543e+07
61 2 -9.25 -9.25 -7.4 -2.92608e+07 -2.92608e+07 5.3562e+07 -2.27359e+07 -4.62385e+06 -4.62385e+06 2.00231e+08 4.08378e+07 2.00231e+08 6.79542e+07 1.15769e+07
62 2 -5.55 -9.25 -7.4 6.35564e+07 -2.81781e+07 4.71513e+07 8.53811e-09 -0 -2.74989e+06 1.31536e+06 1.46266e+07 2.0515e+08 -3.08617e-08 -1.35515e+07
63 2 -7.4 -9.25 -5.55 4.71513e+07 -2.81781e+07 6.35564e+07 -2.74989e+06 -0 9.96113e-09 5.3943e+07 1.95975e+07 2.0515e+08 2.01522e+06 -8.58066e+06
64 2 -1.85 -9.25 -7.4 6.35564e+07 -2.81781e+07 4.71513e+07 -2.13453e-09 -0 -2.74989e+06 1.31536e+06 1.46266e+07 2.0515e+08 2.69484e-08 -1.35515e+07
65 2 -3.7 -9.25 -5.55 6.35564e+07 -2.70633e+07 6.35564e+07 -0 -0 1.28072e-08 1.31536e+06 1.46266e+07 2.05448e+08 -0 -1.24367e+07
66 2 1.85 -9.25 -7.4 6.35564e+07 -2.81781e+07 4.71513e+07 -1.17399e-08 3.55755e-10 -2.74989e+06 1.31536e+06 1.46266e+07 2.0515e+08 5.43415e-08 -1.35515e+07
67 2 0 -9.25 -5.55 6.35564e+07 -2.70633e+07 6.35564e+07 1.03169e-08 4.62481e-09 9.96113e-09 1.31536e+06 1.46266e+07 2.05448e+08 -4.80269e-08 -1.24367e+07
68 2 5.55 -9.25 -7.4 6.35564e+07 -2.81781e+07 4.71513e+07 -1.10284e-08 3.55755e-10 -2.74989e+06 1.31536e+06 1.46266e+07 2.0515e+08 4.61592e-08 -1.35515e+07
69 2 3.7 -9.25 -5.55 6.35564e+07 -2.70633e+07 6.35564e+07 -8.18236e-09 -0 9.96113e-09 1.31536e+06 1.46266e+07 2.05448e+08 3.9133e-09 -1.24367e+07
70 2 9.25 -9.25 -7.4 -2.92608e+07 -2.92608e+07 5.3562e+07 2.27359e+07 4.62385e+06 -4.62385e+06 2.00231e+08 4.08378e+07 2.00231e+08 -6.79542e+07 1.15769e+07
71 2 7.4 -9.25 -5.55 4.71513e+07 -2.81781e+07 6.35564e+07 2.74989e+06 3.55755e-09 1.13841e-08 5.3943e+07 1.95975e+07 2.0515e+08 -2.01522e+06 -8.58066e+06
72 2 -9.25 -5.55 -7.4 -2.81781e+07 6.35564e+07 4.71513e+07 8.53811e-09 -2.74989e+06 3.55755e-10 2.0515e+08 1.46266e+07 1.31536e+06 -2.13453e-08 7.81829e+07
73 2 -9.25 -7.4 -5.55 -2.81781e+07 4.71513e+07 6.35564e+07 -2.74989e+06 9.96113e-09 -3.55755e-10 2.0515e+08 1.95975e+07 5.3943e+07 1.22615e+07 6.67488e+07
74 2 -7.4 -7.4 -7.4 2.9601e+07 2.9601e+07 2.9601e+07 -0 -0 -0 9.48193e+07 5.2003e+07 9.48193e+07 -0 8.1604e+07
75 2 -5.55 -5.55 -7.4 3.9223e+07 3.9223e+07 2.9601e+07 7.11509e-10 -0 -0 6.56537e+07 5.2003e+07 6.56537e+07 -2.84604e-09 9.1226e+07
76 2 -5.55 -7.4 -5.55 3.9223e+07 2.9601e+07 3.9223e+07 -0 7.11509e-10 -0 6.56537e+07 5.2003e+07 9.48193e+07 -0 8.1604e+07
77 2 -7.4 -5.55 -5.55 2.9601e+07 3.9223e+07 3.9223e+07 -0 -0 7.11509e-10 9.48193e+07 5.2003e+07 6.56537e+07 -0 9.1226e+07
78 2 -3.7 -7.4 -7.4 3.9223e+07 2.9601e+07 2.9601e+07 -0 -0 -0 6.56537e+07 5.2003e+07 9.48193e+07 -0 8.1604e+07
79 2 -1.85 -5.55 -7.4 3.9223e+07 3.9223e+07 2.9601e+07 -7.11509e-10 -0 -0 6.56537e+07 5.2003e+07 6.56537e+07 2.84604e-09 9.1226e+07
80 2 -1.85 -7.4 -5.55 3.9223e+07 2.9601e+07 3.9223e+07 -0 -7.11509e-10 -0 6.56537e+07 5.2003e+07 9.48193e+07 -0 8.1604e+07
81 2 -3.7 -5.55 -5.55 3.9223e+07 3.9223e+07 3.9223e+07 -0 -0 7.11509e-10 6.56537e+07 5.2003e+07 6.56537e+07 -0 9.1226e+07
82 2 0 -7.4 -7.4 3.9223e+07 2.9601e+07 2.9601e+07 -0 -0 -0 6.56537e+07 5.2003e+07 9.48193e+07 -0 8.1604e+07
83 2 1.85 -5.55 -7.4 3.9223e+07 3.9223e+07 2.9601e+07 -4.98057e-09 -0 -0 6.56537e+07 5.2003e+07 6.56537e+07 3.98445e-08 9.1226e+07
84 2 1.85 -7.4 -5.55 3.9223e+07 2.9601e+07 3.9223e+07 -0 -4.98057e-09 -0 6.56537e+07 5.2003e+07 9.48193e+07 -0 8.1604e+07
85 2 0 -5.55 -5.55 3.9223e+07 3.9223e+07 3.9223e+07 4.98057e-09 4.98057e-09 7.11509e-10 6.56537e+07 5.2003e+07 6.56537e+07 -3.98445e-08 9.1226e+07
86 2 3.7 -7.4 -7.4 3.9223e+07 2.9601e+07 2.9601e+07 -0 -0 -0 6.56537e+07 5.2003e+07 9.48193e+07 -0 8.1604e+07
87 2 5.55 -5.55 -7.4 3.9223e+07 3.9223e+07 2.9601e+07 1.42302e-09 -0 -0 6.56537e+07 5.2003e+07 6.56537e+07 -2.84604e-09 9.1226e+07
88 2 5.55 -7.4 -5.55 3.9223e+07 2.9601e+07 3.9223e+07 -0 1.42302e-09 -0 6.56537e+07 5.2003e+07 9.48193e+07 -0 8.1604e+07
89 2 3.7 -5.55 -5.55 3.9223e+07 3.9223e+07 3.9223e+07 -0 -0 7.11509e-10 6.56537e+07 5.2003e+07 6.56537e+07 -0 9.1226e+07
90 2 7.4 -7.4 -7.4 2.9601e+07 2.9601e+07 2.9601e+07 -0 -0 -0 9.48193e+07 5.2003e+07 9.48193e+07 -0 8.1604e+07
91 2 9.25 -5.55 -7.4 -2.81781e+07 6.35564e+07 4.71513e+07 -1.35187e-08 2.74989e+06 -0 2.0515e+08 1.46266e+07 1.31536e+06 6.11898e-08 7.81829e+07
92 2 9.25 -7.4 -5.55 -2.81781e+07 4.71513e+07 6.35564e+07 2.74989e+06 -1.42302e-08 -7.11509e-10 2.0515e+08 1.95975e+07 5.3943e+07 -1.22615e+07 6.67488e+07
93 2 7.4 -5.55 -5.55 2.9601e+07 3.9223e+07 3.9223e+07 3.55755e-09 3.55755e-09 7.11509e-10 9.48193e+07 5.2003e+07 6.56537e+07 -3.69985e-08 9.1226e+07
94 2 -9.25 -1.85 -7.4 -2.81781e+07 6.35564e+07 4.71513e+07 -1.77877e-09 -2.74989e+06 3.55755e-10 2.0515e+08 1.46266e+07 1.31536e+06 1.42302e-08 7.81829e+07
95 2 -9.25 -3.7 -5.55 -2.70633e+07 6.35564e+07 6.35564e+07 -0 1.28072e-08 -3.55755e-10 2.05448e+08 1.46266e+07 1.31536e+06 -0 7.81829e+07
96 2 -7.4 -3.7 -7.4 2.9601e+07 3.9223e+07 2.9601e+07 -0 -0 -0 9.48193e+07 5.2003e+07 6.56537e+07 -0 9.1226e+07
97 2 -5.55 -1.85 -7.4 3.9223e+07 3.9223e+07 2.9601e+07 -7.11509e-10 -0 -0 6.56537e+07 5.2003e+07 6.56537e+07 2.84604e-09 9.1226e+07
98 2 -5.55 -3.7 -5.55 3.9223e+07 3.9223e+07 3.9223e+07 -0 7.11509e-10 -0 6.56537e+07 5.2003e+07 6.56537e+07 -0 9.1226e+07
99 2 -7.4 -1.85 -5.55 2.9601e+07 3.9223e+07 3.9223e+07 -0 -0 -7.11509e-10 9.48193e+07 5.2003e+07 6.56537e+07 -0 9.1226e+07
100 2 -3.7 -3.7 -7.4 3.9223e+07 3.9223e+07 2.9601e+07 -0 -0 -0 6.56537e+07 5.2003e+07 6.56537e+07 -0 9.1226e+07
101 2 -1.85 -1.85 -7.4 3.9223e+07 3.9223e+07 2.9601e+07 7.11509e-10 -0 -0 6.56537e+07 5.2003e+07 6.56537e+07 -2.84604e-09 9.1226e+07
102 2 -1.85 -3.7 -5.55 3.9223e+07 3.9223e+07 3.9223e+07 -0 -7.11509e-10 -0 6.56537e+07 5.2003e+07 6.56537e+07 -0 9.1226e+07
103 2 -3.7 -1.85 -5.55 3.9223e+07 3.9223e+07 3.9223e+07 -0 -0 -7.11509e-10 6.56537e+07 5.2003e+07 6.56537e+07 -0 9.1226e+07
104 2 0 -3.7 -7.4 3.9223e+07 3.9223e+07 2.9601e+07 -0 -0 -0 6.56537e+07 5.2003e+07 6.56537e+07 -0 9.1226e+07
105 2 1.85 -1.85 -7.4 3.9223e+07 3.9223e+07 2.9601e+07 4.98057e-09 -0 -0 6.56537e+07 5.2003e+07 6.56537e+07 -3.98445e-08 9.1226e+07
106 2 1.85 -3.7 -5.55 3.9223e+07 3.9223e+07 3.9223e+07 -0 -4.98057e-09 -0 6.56537e+07 5.2003e+07 6.56537e+07 -0 9.1226e+07
107 2 0 -1.85 -5.55 3.9223e+07 3.9223e+07 3.9223e+07 -4.98057e-09 4.98057e-09 -7.11509e-10 6.56537e+07 5.2003e+07 6.56537e+07 3.98445e-08 9.1226e+07
108 2 3.7 -3.7 -7.4 3.9223e+07 3.9223e+07 2.9601e+07 -0 -0 -0 6.56537e+07 5.2003e+07 6.56537e+07 -0 9.1226e+07
109 2 5.55 -1.85 -7.4 3.9223e+07 3.9223e+07 2.9601e+07 -1.42302e-09 -0 -0 6.56537e+07 5.2003e+07 6.56537e+07 2.84604e-09 9.1226e+07
110 2 5.55 -3.7 -5.55 3.9223e+07 3.9223e+07 3.9223e+07 -0 1.42302e-09 -0 6.56537e+07 5.2003e+07 6.56537e+07 -0 9.1226e+07
111 2 3.7 -1.85 -5.55 3.9223e+07 3.9223e+07 3.9223e+07 -0 -0 -7.11509e-10 6.56537e+07 5.2003e+07 6.56537e+07 -0 9.1226e+07
112 2 7.4 -3.7 -7.4 2.9601e+07 3.9223e+07 2.9601e+07 -0 -0 -0 9.48193e+07 5.2003e+07 6.56537e+07 -0 9.1226e+07
113 2 9.25 -1.85 -7.4 -2.81781e+07 6.35564e+07 4.71513e+07 7.11509e-09 2.74989e+06 7.11509e-10 2.0515e+08 1.46266e+07 1.31536e+06 -5.40747e-08 7.81829e+07
114 2 9.25 -3.7 -5.55 -2.70633e+07 6.35564e+07 6.35564e+07 -0 -1.70762e-08 -7.11509e-10 2.05448e+08 1.46266e+07 1.31536e+06 -0 7.81829e+07
115 2 7.4 -1.85 -5.55 2.9601e+07 3.9223e+07 3.9223e+07 -3.55755e-09 3.55755e-09 -7.11509e-10 9.48193e+07 5.2003e+07 6.56537e+07 3.69985e-08 9.1226e+07
116 2 -9.25 1.85 -7.4 -2.81781e+07 6.35564e+07 4.71513e+07 -1.17399e-08 -2.74989e+06 -3.55755e-10 2.0515e+08 1.46266e+07 1.31536e+06 2.70374e-08 7.81829e+07
117 2 -9.25 0 -5.55 -2.70633e+07 6.35564e+07 6.35564e+07 1.03169e-08 9.96113e-09 4.98057e-09 2.05448e+08 1.46266e+07 1.31536e+06 -1.99223e-08 7.81829e+07
118 2 -7.4 0 -7.4 2.9601e+07 3.9223e+07 2.9601e+07 -0 -0 -0 9.48193e+07 5.2003e+07 6.56537e+07 -0 9.1226e+07
119 2 -5.55 1.85 -7.4 3.9223e+07 3.9223e+07 2.9601e+07 -4.98057e-09 -0 -0 6.56537e+07 5.2003e+07 6.56537e+07 3.98445e-08 9.1226e+07
120 2 -5.55 0 -5.55 3.9223e+07 3.9223e+07 3.9223e+07 4.98057e-09 7.11509e-10 4.98057e-09 6.56537e+07 5.2003e+07 6.56537e+07 -3.98445e-08 9.1226e+07
121 2 -7.4 1.85 -5.55 2.9601e+07 3.9223e+07 3.9223e+07 -0 -0 -4.98057e-09 9.48193e+07 5.2003e+07 6.56537e+07 -0 9.1226e+07
122 2 -3.7 0 -7.4 3.9223e+07 3.9223e+07 2.9601e+07 -0 -0 -0 6.56537e+07 5.2003e+07 6.56537e+07 -0 9.1226e+07
123 2 -1.85 1.85 -7.4 3.9223e+07 3.9223e+07 2.9601e+07 4.98057e-09 -0 -0 6.56537e+07 5.2003e+07 6.56537e+07 -3.98445e-08 9.1226e+07
124 2 -1.85 0 -5.55 3.9223e+07 3.9223e+07 3.9223e+07 -4.98057e-09 -7.11509e-10 4.98057e-09 6.56537e+07 5.2003e+07 6.56537e+07 3.98445e-08 9.1226e+07
125 2 -3.7 1.85 -5.55 3.9223e+07 3.9223e+07 3.9223e+07 -0 -0 -4.98057e-09 6.56537e+07 5.2003e+07 6.56537e+07 -0 9.1226e+07
126 2 0 0 -7.4 3.9223e+07 3.9223e+07 2.9601e+07 1.06726e-09 -0 -0 6.56537e+07 5.2003e+07 6.56537e+07 2.84604e-09 9.1226e+07
127 2 1.85 1.85 -7.4 3.9223e+07 3.9223e+07 2.9601e+07 1.06726e-09 -0 -0 6.56537e+07 5.2003e+07 6.56537e+07 2.84604e-09 9.1226e+07
128 2 1.85 0 -5.55 3.9223e+07 3.9223e+07 3.9223e+07 -1.06726e-09 -4.98057e-09 4.98057e-09 6.56537e+07 5.2003e+07 6.56537e+07 -2.84604e-09 9.1226e+07
129 2 0 1.85 -5.55 3.9223e+07 3.9223e+07 3.9223e+07 -1.06726e-09 4.98057e-09 -4.98057e-09 6.56537e+07 5.2003e+07 6.56537e+07 -2.84604e-09 9.1226e+07
130 2 3.7 0 -7.4 3.9223e+07 3.9223e+07 2.9601e+07 -0 -0 -0 6.56537e+07 5.2003e+07 6.56537e+07 -0 9.1226e+07
131 2 5.55 1.85 -7.4 3.9223e+07 3.9223e+07 2.9601e+07 3.55755e-10 -0 -0 6.56537e+07 5.2003e+07 6.56537e+07 2.84604e-09 9.1226e+07
132 2 5.55 0 -5.55 3.9223e+07 3.9223e+07 3.9223e+07 -3.55755e-10 1.42302e-09 4.98057e-09 6.56537e+07 5.2003e+07 6.56537e+07 -2.84604e-09 9.1226e+07
133 2 3.7 1.85 -5.55 3.9223e+07 3.9223e+07 3.9223e+07 -0 -0 -4.98057e-09 6.56537e+07 5.2003e+07 6.56537e+07 -0 9.1226e+07
134 2 7.4 0 -7.4 2.9601e+07 3.9223e+07 2.9601e+07 1.42302e-09 -0 -0 9.48193e+07 5.2003e+07 6.56537e+07 5.69207e-09 9.1226e+07
135 2 9.25 1.85 -7.4 -2.81781e+07 6.35564e+07 4.71513e+07 1.28072e-08 2.74989e+06 -0 2.0515e+08 1.46266e+07 1.31536e+06 -2.41913e-08 7.81829e+07
136 2 9.25 0 -5.55 -2.70633e+07 6.35564e+07 6.35564e+07 -1.13841e-08 -1.42302e-08 4.98057e-09 2.05448e+08 1.46266e+07 1.31536e+06 1.70762e-08 7.81829e+07
137 2 7.4 1.85 -5.55 2.9601e+07 3.9223e+07 3.9223e+07 -1.42302e-09 3.55755e-09 -4.98057e-09 9.48193e+07 5.2003e+07 6.56537e+07 -5.69207e-09 9.1226e+07
138 2 -9.25 5.55 -7.4 -2.81781e+07 6.35564e+07 4.71513e+07 -1.06726e-08 -2.74989e+06 -0 2.0515e+08 1.46266e+07 1.31536e+06 1.13841e-08 7.81829e+07
139 2 -9.25 3.7 -5.55 -2.70633e+07 6.35564e+07 6.35564e+07 -8.18236e-09 9.96113e-09 -3.55755e-10 2.05448e+08 1.46266e+07 1.31536e+06 4.26906e-09 7.81829e+07
140 2 -7.4 3.7 -7.4 2.9601e+07 3.9223e+07 2.9601e+07 -0 -0 -0 9.48193e+07 5.2003e+07 6.56537e+07 -0 9.1226e+07
141 2 -5.55 5.55 -7.4 3.9223e+07 3.9223e+07 2.9601e+07 1.42302e-09 -0 -0 6.56537e+07 5.2003e+07 6.56537e+07 -0 9.1226e+07
142 2 -5.55 3.7 -5.55 3.9223e+07 3.9223e+07 3.9223e+07 -0 7.11509e-10 -0 6.56537e+07 5.2003e+07 6.56537e+07 -0 9.1226e+07
143 2 -7.4 5.55 -5.55 2.9601e+07 3.9223e+07 3.9223e+07 -0 -0 1.42302e-09 9.48193e+07 5.2003e+07 6.56537e+07 -0 9.1226e+07
144 2 -3.7 3.7 -7.4 3.9223e+07 3.9223e+07 2.9601e+07 -0 -0 -0 6.56537e+07 5.2003e+07 6.56537e+07 -0 9.1226e+07
145 2 -1.85 5.55 -7.4 3.9223e+07 3.9223e+07 2.9601e+07 -1.42302e-09 -0 -0 6.56537e+07 5.2003e+07 6.56537e+07 -0 9.1226e+07
146 2 -1.85 3.7 -5.55 3.9223e+07 3.9223e+07 3.9223e+07 -0 -7.11509e-10 -0 6.56537e+07 5.2003e+07 6.56537e+07 -0 9.1226e+07
147 2 -3.7 5.55 -5.55 3.9223e+07 3.9223e+07 3.9223e+07 -0 -0 1.42302e-09 6.56537e+07 5.2003e+07 6.56537e+07 -0 9.1226e+07
148 2 0 3.7 -7.4 3.9223e+07 3.9223e+07 2.9601e+07 -0 -0 -0 6.56537e+07 5.2003e+07 6.56537e+07 -0 9.1226e+07
149 2 1.85 5.55 -7.4 3.9223e+07 3.9223e+07 2.9601e+07 3.55755e-10 -0 -0 6.56537e+07 5.2003e+07 6.56537e+07 2.84604e-09 9.1226e+07
150 2 1.85 3.7 -5.55 3.9223e+07 3.9223e+07 3.9223e+07 -0 -4.98057e-09 -0 6.56537e+07 5.2003e+07 6.56537e+07 -0 9.1226e+07
151 2 0 5.55 -5.55 3.9223e+07 3.9223e+07 3.9223e+07 -3.55755e-10 4.98057e-09 1.42302e-09 6.56537e+07 5.2003e+07 6.56537e+07 -2.84604e-09 9.1226e+07
152 2 3.7 3.7 -7.4 3.9223e+07 3.9223e+07 2.9601e+07 -0 -0 -0 6.56537e+07 5.2003e+07 6.56537e+07 -0 9.1226e+07
153 2 5.55 5.55 -7.4 3.9223e+07 3.9223e+07 2.9601e+07 7.11509e-10 -0 -0 6.56537e+07 5.2003e+07 6.56537e+07 -0 9.1226e+07
154 2 5.55 3.7 -5.55 3.9223e+07 3.9223e+07 3.9223e+07 -0 1.42302e-09 -0 6.56537e+07 5.2003e+07 6.56537e+07 -0 9.1226e+07
155 2 3.7 5.55 -5.55 3.9223e+07 3.9223e+07 3.9223e+07 -0 -0 1.42302e-09 6.56537e+07 5.2003e+07 6.56537e+07 -0 9.1226e+07
156 2 7.4 3.7 -7.4 2.9601e+07 3.9223e+07 2.9601e+07 -0 -0 -0 9.48193e+07 5.2003e+07 6.56537e+07 -0 9.1226e+07
157 2 9.25 5.55 -7.4 -2.81781e+07 6.35564e+07 4.71513e+07 1.13841e-08 2.74989e+06 -0 2.0515e+08 1.46266e+07 1.31536e+06 -8.53811e-09 7.81829e+07
158 2 9.25 3.7 -5.55 -2.70633e+07 6.35564e+07 6.35564e+07 8.18236e-09 -1.42302e-08 -7.11509e-10 2.05448e+08 1.46266e+07 1.31536e+06 -5.69207e-09 7.81829e+07
159 2 7.4 5.55 -5.55 2.9601e+07 3.9223e+07 3.9223e+07 -1.06726e-09 3.55755e-09 1.42302e-09 9.48193e+07 5.2003e+07 6.56537e+07 -2.84604e-09 9.1226e+07
160 2 -9.25 9.25 -7.4 -2.92608e+07 -2.92608e+07 5.3562e+07 2.27359e+07 -4.62385e+06 4.62385e+06 2.00231e+08 4.08378e+07 2.00231e+08 -6.79542e+07 1.15769e+07
161 2 -9.25 7.4 -5.55 -2.81781e+07 4.71513e+07 6.35564e+07 2.74989e+06 1.13841e-08 3.55755e-09 2.0515e+08 1.95975e+07 5.3943e+07 -1.22615e+07 6.67488e+07
162 2 -7.4 7.4 -7.4 2.9601e+07 2.9601e+07 2.9601e+07 -0 -0 -0 9.48193e+07 5.2003e+07 9.48193e+07 -0 8.1604e+07
163 2 -5.55 9.25 -7.4 6.35564e+07 -2.81781e+07 4.71513e+07 -1.35187e-08 -0 2.74989e+06 1.31536e+06 1.46266e+07 2.0515e+08 7.06173e-08 -1.35515e+07
164 2 -5.55 7.4 -5.55 3.9223e+07 2.9601e+07 3.9223e+07 3.55755e-09 7.11509e-10 3.55755e-09 6.56537e+07 5.2003e+07 9.48193e+07 -3.98445e-08 8.1604e+07
165 2 -7.4 9.25 -5.55 4.71513e+07 -2.81781e+07 6.35564e+07 2.74989e+06 -0 -1.42302e-08 5.3943e+07 1.95975e+07 2.0515e+08 -2.01522e+06 -8.58066e+06
166 2 -3.7 7.4 -7.4 3.9223e+07 2.9601e+07 2.9601e+07 -0 -0 -0 6.56537e+07 5.2003e+07 9.48193e+07 -0 8.1604e+07
167 2 -1.85 9.25 -7.4 6.35564e+07 -2.81781e+07 4.71513e+07 7.11509e-09 -0 2.74989e+06 1.31536e+06 1.46266e+07 2.0515e+08 -6.6704e-08 -1.35515e+07
168 2 -1.85 7.4 -5.55 3.9223e+07 2.9601e+07 3.9223e+07 -3.55755e-09 -7.11509e-10 3.55755e-09 6.56537e+07 5.2003e+07 9.48193e+07 3.98445e-08 8.1604e+07
169 2 -3.7 9.25 -5.55 6.35564e+07 -2.70633e+07 6.35564e+07 -0 -0 -1.70762e-08 1.31536e+06 1.46266e+07 2.05448e+08 -0 -1.24367e+07
170 2 0 7.4 -7.4 3.9223e+07 2.9601e+07 2.9601e+07 1.42302e-09 -0 -0 6.56537e+07 5.2003e+07 9.48193e+07 5.69207e-09 8.1604e+07
171 2 1.85 9.25 -7.4 6.35564e+07 -2.81781e+07 4.71513e+07 1.28072e-08 -0 2.74989e+06 1.31536e+06 1.46266e+07 2.0515e+08 -5.14065e-08 -1.35515e+07
172 2 1.85 7.4 -5.55 3.9223e+07 2.9601e+07 3.9223e+07 -1.42302e-09 -4.98057e-09 3.55755e-09 6.56537e+07 5.2003e+07 9.48193e+07 -5.69207e-09 8.1604e+07
173 2 0 9.25 -5.55 6.35564e+07 -2.70633e+07 6.35564e+07 -1.13841e-08 4.26906e-09 -1.42302e-08 1.31536e+06 1.46266e+07 2.05448e+08 4.61592e-08 -1.24367e+07
174 2 3.7 7.4 -7.4 3.9223e+07 2.9601e+07 2.9601e+07 -0 -0 -0 6.56537e+07 5.2003e+07 9.48193e+07 -0 8.1604e+07
175 2 5.55 9.25 -7.4 6.35564e+07 -2.81781e+07 4.71513e+07 1.13841e-08 -0 2.74989e+06 1.31536e+06 1.46266e+07 2.0515e+08 -4.32242e-08 -1.35515e+07
176 2 5.55 7.4 -5.55 3.9223e+07 2.9601e+07 3.9223e+07 -1.06726e-09 1.42302e-09 3.55755e-09 6.56537e+07 5.2003e+07 9.48193e+07 -2.84604e-09 8.1604e+07
177 2 3.7 9.25 -5.55 6.35564e+07 -2.70633e+07 6.35564e+07 8.18236e-09 -0 -1.42302e-08 1.31536e+06 1.46266e+07 2.05448e+08 -4.26906e-09 -1.24367e+07
178 2 7.4 7.4 -7.4 2.9601e+07 2.9601e+07 2.9601e+07 2.49028e-09 -0 -0 9.48193e+07 5.2003e+07 9.48193e+07 8.53811e-09 8.1604e+07
179 2 9.25 9.25 -7.4 -2.92608e+07 -2.92608e+07 5.3562e+07 -2.27359e+07 4.62385e+06 4.62385e+06 2.00231e+08 4.08378e+07 2.00231e+08 6.79542e+07 1.15769e+07
180 2 9.25 7.4 -5.55 -2.81781e+07 4.71513e+07 6.35564e+07 -2.74989e+06 -1.56532e-08 3.55755e-09 2.0515e+08 1.95975e+07 5.3943e+07 1.22615e+07 6.67488e+07
181 2 7.4 9.25 -5.55 4.71513e+07 -2.81781e+07 6.35564e+07 -2.74989e+06 3.55755e-09 -1.56532e-08 5.3943e+07 1.95975e+07 2.0515e+08 2.01522e+06 -8.58066e+06
182 2 -9.25 -9.25 -3.7 -2.73863e+07 -2.73863e+07 8.13726e+07 -2.19761e+07 -0 -0 2.00678e+08 4.02268e+07 2.00678e+08 6.73432e+07 1.28405e+07
183 2 -5.55 -9.25 -3.7 6.35564e+07 -2.70633e+07 6.35564e+07 1.28072e-08 -0 -0 1.31536e+06 1.46266e+07 2.05448e+08 -1.8855e-08 -1.24367e+07
184 2 -7.4 -9.25 -1.85 4.71513e+07 -2.81781e+07 6.35564e+07 -2.74989e+06 -0 -1.42302e-09 5.3943e+07 1.95975e+07 2.0515e+08 2.01522e+06 -8.58066e+06
185 2 -1.85 -9.25 -3.7 6.35564e+07 -2.70633e+07 6.35564e+07 -6.40358e-09 -0 -0 1.31536e+06 1.46266e+07 2.05448e+08 1.49417e-08 -1.24367e+07
186 2 -3.7 -9.25 -1.85 6.35564e+07 -2.70633e+07 6.35564e+07 -0 -0 -5.69207e-09 1.31536e+06 1.46266e+07 2.05448e+08 -0 -1.24367e+07
187 2 1.85 -9.25 -3.7 6.35564e+07 -2.70633e+07 6.35564e+07 -1.45859e-08 -3.55755e-10 -2.84604e-09 1.31536e+06 1.46266e+07 2.05448e+08 4.79824e-08 -1.24367e+07
188 2 0 -9.25 -1.85 6.35564e+07 -2.70633e+07 6.35564e+07 1.03169e-08 -3.9133e-09 -1.42302e-09 1.31536e+06 1.46266e+07 2.05448e+08 -4.90052e-08 -1.24367e+07
189 2 5.55 -9.25 -3.7 6.35564e+07 -2.70633e+07 6.35564e+07 -8.18236e-09 -3.55755e-10 -2.84604e-09 1.31536e+06 1.46266e+07 2.05448e+08 5.41192e-08 -1.24367e+07
190 2 3.7 -9.25 -1.85 6.35564e+07 -2.70633e+07 6.35564e+07 -8.18236e-09 -0 -1.42302e-09 1.31536e+06 1.46266e+07 2.05448e+08 4.26906e-09 -1.24367e+07
191 2 9.25 -9.25 -3.7 -2.73863e+07 -2.73863e+07 8.13726e+07 2.19761e+07 -0 -0 2.00678e+08 4.02268e+07 2.00678e+08 -6.73432e+07 1.28405e+07
192 2 7.4 -9.25 -1.85 4.71513e+07 -2.81781e+07 6.35564e+07 2.74989e+06 -3.55755e-09 -4.26906e-09 5.3943e+07 1.95975e+07 2.0515e+08 -2.01522e+06 -8.58066e+06
193 2 -9.25 -5.55 -3.7 -2.70633e+07 6.35564e+07 6.35564e+07 1.28072e-08 -0 -3.55755e-10 2.05448e+08 1.46266e+07 1.31536e+06 -2.84604e-09 7.81829e+07
194 2 -9.25 -7.4 -1.85 -2.81781e+07 4.71513e+07 6.35564e+07 -2.74989e+06 -1.42302e-09 -3.55755e-10 2.0515e+08 1.95975e+07 5.3943e+07 1.22615e+07 6.67488e+07
195 2 -7.4 -7.4 -3.7 2.9601e+07 2.9601e+07 3.9223e+07 -0 -0 -0 9.48193e+07 5.2003e+07 9.48193e+07 -0 8.1604e+07
196 2 -5.55 -5.55 -3.7 3.9223e+07 3.9223e+07 3.9223e+07 7.11509e-10 -0 -0 6.56537e+07 5.2003e+07 6.56537e+07 -2.84604e-09 9.1226e+07
197 2 -5.55 -7.4 -1.85 3.9223e+07 2.9601e+07 3.9223e+07 -0 -7.11509e-10 -0 6.56537e+07 5.2003e+07 9.48193e+07 -0 8.1604e+07
198 2 -7.4 -5.55 -1.85 2.9601e+07 3.9223e+07 3.9223e+07 -0 -0 -7.11509e-10 9.48193e+07 5.2003e+07 6.56537e+07 -0 9.1226e+07
199 2 -3.7 -7.4 -3.7 3.9223e+07 2.9601e+07 3.9223e+07 -0 -0 -0 6.56537e+07 5.2003e+07 9.48193e+07 -0 8.1604e+07
200 2 -1.85 -5.55 -3.7 3.9223e+07 3.9223e+07 3.9223e+07 -7.11509e-10 -0 -0 6.56537e+07 5.2003e+07 6.56537e+07 2.84604e-09 9.1226e+07
201 2 -1.85 -7.4 -1.85 3.9223e+07 2.9601e+07 3.9223e+07 -0 7.11509e-10 -0 6.56537e+07 5.2003e+07 9.48193e+07 -0 8.1604e+07
202 2 -3.7 -5.55 -1.85 3.9223e+07 3.9223e+07 3.9223e+07 -0 -0 -7.11509e-10 6.56537e+07 5.2003e+07 6.56537e+07 -0 9.1226e+07
203 2 0 -7.4 -3.7 3.9223e+07 2.9601e+07 3.9223e+07 -0 -0 -0 6.56537e+07 5.2003e+07 9.48193e+07 -0 8.1604e+07
204 2 1.85 -5.55 -3.7 3.9223e+07 3.9223e+07 3.9223e+07 -4.98057e-09 -0 -0 6.56537e+07 5.2003e+07 6.56537e+07 3.98445e-08 9.1226e+07
205 2 1.85 -7.4 -1.85 3.9223e+07 2.9601e+07 3.9223e+07 -0 4.98057e-09 -0 6.56537e+07 5.2003e+07 9.48193e+07 -0 8.1604e+07
206 2 0 -5.55 -1.85 3.9223e+07 3.9223e+07 3.9223e+07 4.98057e-09 -4.98057e-09 -7.11509e-10 6.56537e+07 5.2003e+07 6.56537e+07 -3.98445e-08 9.1226e+07
207 2 3.7 -7.4 -3.7 3.9223e+07 2.9601e+07 3.9223e+07 -0 -0 -0 6.56537e+07 5.2003e+07 9.48193e+07 -0 8.1604e+07
208 2 5.55 -5.55 -3.7 3.9223e+07 3.9223e+07 3.9223e+07 1.42302e-09 -0 -0 6.56537e+07 5.2003e+07 6.56537e+07 -2.84604e-09 9.1226e+07
209 2 5.55 -7.4 -1.85 3.9223e+07 2.9601e+07 3.9223e+07 -0 -1.42302e-09 -0 6.56537e+07 5.2003e+07 9.48193e+07 -0 8.1604e+07
210 2 3.7 -5.55 -1.85 3.9223e+07 3.9223e+07 3.9223e+07 -0 -0 -7.11509e-10 6.56537e+07 5.2003e+07 6.56537e+07 -0 9.1226e+07
211 2 7.4 -7.4 -3.7 2.9601e+07 2.9601e+07 3.9223e+07 -0 -0 -0 9.48193e+07 5.2003e+07 9.48193e+07 -0 8.1604e+07
212 2 9.25 -5.55 -3.7 -2.70633e+07 6.35564e+07 6.35564e+07 -1.77877e-08 -0 -7.11509e-10 2.05448e+08 1.46266e+07 1.31536e+06 4.26906e-08 7.81829e+07
213 2 9.25 -7.4 -1.85 -2.81781e+07 4.71513e+07 6.35564e+07 2.74989e+06 7.11509e-09 -0 2.0515e+08 1.95975e+07 5.3943e+07 -1.22615e+07 6.67488e+07
214 2 7.4 -5.55 -1.85 2.9601e+07 3.9223e+07 3.9223e+07 3.55755e-09 -3.55755e-09 -7.11509e-10 9.48193e+07 5.2003e+07 6.56537e+07 -3.69985e-08 9.1226e+07
215 2 -9.25 -1.85 -3.7 -2.70633e+07 6.35564e+07 6.35564e+07 -6.04783e-09 -0 -3.55755e-10 2.05448e+08 1.46266e+07 1.31536e+06 -4.26906e-09 7.81829e+07