ITEM: TIMESTEP
0
ITEM: NUMBER OF ATOMS
665
ITEM: BOX BOUNDS xy xz yz pp pp pp
-1.0000000000000000e+01 1.0000000000000000e+01 0.0000000000000000e+00
-1.0000000000000000e+01 1.0000000000000000e+01 0.0000000000000000e+00
-1.0000000000000000e+01 1.0000000000000000e+01 0.0000000000000000e+00
ITEM: ATOMS id type x y z c_1[1] c_1[2] c_1[3] c_1[4] c_1[5] c_1[6] c_1[7] c_1[22]
1 2 -7.4 -9.25 -9.25 6.34025e+06 -3.41589e+07 -2.72207e+07 -2.19132e+06 -4.30282e+06 -1.00264e+07 -4.44265e+07 -1.30748e+07
2 2 -3.7 -9.25 -9.25 7.48484e+06 -3.34714e+07 -2.72255e+07 -2.81915e+06 -2.81915e+06 -1.12719e+07 1.19769e+08 1.45542e+07
3 2 0 -9.25 -9.25 3.35711e+06 -3.14076e+07 -2.51616e+07 -2.54166e+06 -2.54166e+06 -1.11013e+07 2.19377e+08 2.1657e+07
4 2 3.7 -9.25 -9.25 7.48484e+06 -3.34714e+07 -2.72255e+07 -1.2022e+06 -1.2022e+06 -1.12719e+07 6.45386e+07 1.45542e+07
5 2 7.4 -9.25 -9.25 6.34025e+06 -3.41589e+07 -2.72207e+07 711627 2.82313e+06 -1.00264e+07 -9.96567e+07 -1.30748e+07
6 2 -9.25 -7.4 -9.25 -3.94232e+07 1.16045e+07 -2.72207e+07 -780445 -7.80919e+06 -7.52459e+06 4.02832e+08 5.91366e+07
7 2 -5.55 -7.4 -9.25 6.19655e+06 1.10003e+07 -2.81205e+07 -2.3129e+06 -3.41415e+06 -7.32276e+06 1.20158e+08 3.97361e+07
8 2 -7.4 -5.55 -9.25 7.06505e+06 1.01318e+07 -2.81205e+07 -2.3129e+06 -4.06459e+06 -6.67231e+06 6.95414e+07 5.49177e+07
9 2 -1.85 -7.4 -9.25 2.11877e+06 1.34186e+07 -2.6461e+07 -1.85219e+06 -3.02459e+06 -7.1636e+06 1.83091e+08 7.04045e+07
10 2 -3.7 -5.55 -9.25 6.29398e+06 1.08203e+07 -2.6878e+07 -1.12619e-09 -2.87392e+06 -7.01153e+06 1.39379e+08 6.34016e+07
11 2 1.85 -7.4 -9.25 2.11877e+06 1.34186e+07 -2.6461e+07 -1.85219e+06 -3.02459e+06 -7.1636e+06 1.83091e+08 7.04045e+07
12 2 0 -5.55 -9.25 5.51254e+06 1.08203e+07 -2.60965e+07 -6.27848e-09 -2.66342e+06 -7.01153e+06 1.70656e+08 6.34016e+07
13 2 5.55 -7.4 -9.25 6.19655e+06 1.10003e+07 -2.81205e+07 -1.68162e+06 -2.56511e+06 -7.32276e+06 9.28174e+07 3.97361e+07
14 2 3.7 -5.55 -9.25 6.29398e+06 1.08203e+07 -2.6878e+07 4.37099e-10 -1.85804e+06 -7.01153e+06 1.08555e+08 6.34016e+07
15 2 9.25 -7.4 -9.25 -3.94232e+07 1.16045e+07 -2.72207e+07 -3.79438e+06 1.96977e+06 -7.52459e+06 3.75492e+08 5.91366e+07
16 2 7.4 -5.55 -9.25 7.06505e+06 1.01318e+07 -2.81205e+07 2.3129e+06 1.99606e+06 -6.67231e+06 3.87171e+07 5.49177e+07
17 2 -9.25 -3.7 -9.25 -3.56645e+07 9.67788e+06 -2.72255e+07 -2.81915e+06 -8.65696e+06 -6.82316e+06 3.91053e+08 5.36145e+07
18 2 -5.55 -3.7 -9.25 9.94914e+06 7.1651e+06 -2.6878e+07 -1.54649e-09 -3.39137e+06 -6.49408e+06 1.16837e+08 3.94059e+07
19 2 -7.4 -1.85 -9.25 1.03545e+07 5.18293e+06 -2.6461e+07 -1.85219e+06 -3.75896e+06 -6.42923e+06 6.65138e+07 6.04008e+07
20 2 -1.85 -3.7 -9.25 7.57097e+06 8.35241e+06 -2.56871e+07 -1.22764e-10 -2.66342e+06 -6.64056e+06 1.65912e+08 5.74132e+07
21 2 -3.7 -1.85 -9.25 8.35241e+06 7.57097e+06 -2.56871e+07 1.43174e-09 -2.87392e+06 -6.43006e+06 1.34636e+08 6.76471e+07
22 2 1.85 -3.7 -9.25 7.57097e+06 8.35241e+06 -2.56871e+07 4.91858e-09 -2.66342e+06 -6.64056e+06 1.65912e+08 5.74132e+07
23 2 0 -1.85 -9.25 7.57097e+06 7.57097e+06 -2.49057e+07 -2.11646e-09 -2.66342e+06 -6.43006e+06 1.65912e+08 6.76471e+07
24 2 5.55 -3.7 -9.25 9.94914e+06 7.1651e+06 -2.6878e+07 1.95373e-09 -1.80105e+06 -6.49408e+06 8.99535e+07 3.94059e+07
25 2 3.7 -1.85 -9.25 8.35241e+06 7.57097e+06 -2.56871e+07 2.0112e-09 -1.85804e+06 -6.43006e+06 1.03812e+08 6.76471e+07
26 2 9.25 -3.7 -9.25 -3.56645e+07 9.67788e+06 -2.72255e+07 2.81915e+06 3.73336e+06 -6.82316e+06 3.6417e+08 5.36145e+07
27 2 7.4 -1.85 -9.25 1.03545e+07 5.18293e+06 -2.6461e+07 1.85219e+06 1.69042e+06 -6.42923e+06 3.56895e+07 6.04008e+07
28 2 -9.25 0 -9.25 -3.36006e+07 5.55015e+06 -2.51616e+07 -2.54166e+06 -8.48643e+06 -6.54567e+06 3.90607e+08 6.89766e+07
29 2 -5.55 0 -9.25 9.94914e+06 6.38366e+06 -2.60965e+07 -6.13604e-09 -3.39137e+06 -6.28358e+06 1.16837e+08 4.96399e+07
30 2 -7.4 1.85 -9.25 1.03545e+07 5.18293e+06 -2.6461e+07 -1.85219e+06 -3.75896e+06 -6.42923e+06 6.65138e+07 6.04008e+07
31 2 -1.85 0 -9.25 7.57097e+06 7.57097e+06 -2.49057e+07 -1.6608e-09 -2.66342e+06 -6.43006e+06 1.65912e+08 6.76471e+07
32 2 -3.7 1.85 -9.25 8.35241e+06 7.57097e+06 -2.56871e+07 5.21662e-09 -2.87392e+06 -6.43006e+06 1.34636e+08 6.76471e+07
33 2 1.85 0 -9.25 7.57097e+06 7.57097e+06 -2.49057e+07 1.2142e-10 -2.66342e+06 -6.43006e+06 1.65912e+08 6.76471e+07
34 2 0 1.85 -9.25 7.57097e+06 7.57097e+06 -2.49057e+07 1.21219e-09 -2.66342e+06 -6.43006e+06 1.65912e+08 6.76471e+07
35 2 5.55 0 -9.25 9.94914e+06 6.38366e+06 -2.60965e+07 -1.59295e-09 -1.80105e+06 -6.28358e+06 8.99535e+07 4.96399e+07
36 2 3.7 1.85 -9.25 8.35241e+06 7.57097e+06 -2.56871e+07 3.38477e-09 -1.85804e+06 -6.43006e+06 1.03812e+08 6.76471e+07
37 2 9.25 0 -9.25 -3.36006e+07 5.55015e+06 -2.51616e+07 2.54166e+06 3.56283e+06 -6.54567e+06 3.63724e+08 6.89766e+07
38 2 7.4 1.85 -9.25 1.03545e+07 5.18293e+06 -2.6461e+07 1.85219e+06 1.69042e+06 -6.42923e+06 3.56895e+07 6.04008e+07
39 2 -9.25 3.7 -9.25 -3.42955e+07 8.30895e+06 -2.72255e+07 -2.61307e+06 -8.91916e+06 -4.55945e+06 3.91224e+08 6.66757e+07
40 2 -5.55 3.7 -9.25 9.94914e+06 7.1651e+06 -2.6878e+07 1.96349e-09 -3.39137e+06 -5.4782e+06 1.16837e+08 4.61859e+07
41 2 -7.4 5.55 -9.25 9.89047e+06 7.30641e+06 -2.81205e+07 -1.68162e+06 -4.38929e+06 -5.49858e+06 6.09209e+07 5.24258e+07
42 2 -1.85 3.7 -9.25 7.57097e+06 8.35241e+06 -2.56871e+07 1.32833e-09 -2.66342e+06 -5.62468e+06 1.65912e+08 6.41931e+07
43 2 -3.7 5.55 -9.25 8.03622e+06 9.07802e+06 -2.6878e+07 3.03264e-09 -2.87392e+06 -5.42122e+06 1.35456e+08 6.58424e+07
44 2 1.85 3.7 -9.25 7.57097e+06 8.35241e+06 -2.56871e+07 3.31079e-09 -2.66342e+06 -5.62468e+06 1.65912e+08 6.41931e+07
45 2 0 5.55 -9.25 7.25478e+06 9.07802e+06 -2.60965e+07 -2.59271e-09 -2.66342e+06 -5.42122e+06 1.66733e+08 6.58424e+07
46 2 5.55 3.7 -9.25 9.94914e+06 7.1651e+06 -2.6878e+07 1.79685e-09 -1.80105e+06 -5.4782e+06 8.99535e+07 4.61859e+07
47 2 3.7 5.55 -9.25 8.03622e+06 9.07802e+06 -2.6878e+07 3.89037e-09 -1.85804e+06 -5.42122e+06 1.04632e+08 6.58424e+07
48 2 9.25 3.7 -9.25 -3.42955e+07 8.30895e+06 -2.72255e+07 2.61307e+06 3.99556e+06 -4.55945e+06 3.64341e+08 6.66757e+07
49 2 7.4 5.55 -9.25 9.89047e+06 7.30641e+06 -2.81205e+07 1.68162e+06 2.32075e+06 -5.49858e+06 3.00966e+07 5.24258e+07
50 2 -9.25 7.4 -9.25 -3.43976e+07 6.57899e+06 -2.72207e+07 711627 -8.82979e+06 1.62651e+06 3.94087e+08 6.32808e+07
51 2 -5.55 7.4 -9.25 1.12417e+07 5.95519e+06 -2.81205e+07 2.3129e+06 -3.73884e+06 -937408 1.07021e+08 3.33795e+07
52 2 -7.4 9.25 -9.25 1.18433e+07 -3.96619e+07 -2.72207e+07 -3.79438e+06 -6.32796e+06 773142 -2.8887e+07 -1.18436e+07
53 2 -1.85 7.4 -9.25 8.24709e+06 7.2903e+06 -2.6461e+07 1.85219e+06 -3.02459e+06 -1.71422e+06 1.74652e+08 6.87453e+07
54 2 -3.7 9.25 -9.25 1.0502e+07 -3.64886e+07 -2.72255e+07 1.40828e+06 -3.46591e+06 1.38065e+06 9.07961e+07 1.23824e+07
55 2 1.85 7.4 -9.25 8.24709e+06 7.2903e+06 -2.6461e+07 1.85219e+06 -3.02459e+06 -1.71422e+06 1.74652e+08 6.87453e+07
56 2 0 9.25 -9.25 7.74319e+06 -3.57937e+07 -2.51616e+07 2.54166e+06 -2.54166e+06 947917 2.14861e+08 2.35048e+07
57 2 5.55 7.4 -9.25 1.12417e+07 5.95519e+06 -2.81205e+07 1.68162e+06 -2.24042e+06 -937408 7.96808e+07 3.33795e+07
58 2 3.7 9.25 -9.25 1.0502e+07 -3.64886e+07 -2.72255e+07 2.61307e+06 -555435 1.38065e+06 3.55659e+07 1.23824e+07
59 2 9.25 7.4 -9.25 -3.43976e+07 6.57899e+06 -2.72207e+07 3.8632e+06 2.99037e+06 1.62651e+06 3.66746e+08 6.32808e+07
60 2 7.4 9.25 -9.25 1.18433e+07 -3.96619e+07 -2.72207e+07 5.27407e+06 4.84828e+06 773142 -8.41172e+07 -1.18436e+07
61 2 -9.25 -9.25 -7.4 -3.87965e+07 -3.69215e+07 2.06786e+07 -5.0773e+06 -1.80768e+06 -4.77405e+06 4.04325e+08 2.21568e+07
62 2 -5.55 -9.25 -7.4 5.66716e+06 -3.25883e+07 1.59976e+07 -3.4666e+06 -2.28534e+06 -6.72035e+06 1.20568e+08 -826573
63 2 -7.4 -9.25 -5.55 5.65074e+06 -2.77607e+07 1.11864e+07 -3.8585e+06 -3.71217e+06 -7.32167e+06 6.98067e+07 215312
64 2 -1.85 -9.25 -7.4 1.80258e+06 -3.09839e+07 1.82578e+07 -3.02459e+06 -1.85219e+06 -6.46311e+06 1.83911e+08 1.1393e+07
65 2 -3.7 -9.25 -5.55 6.29398e+06 -2.6878e+07 1.08203e+07 -2.87392e+06 -2.00588e-09 -7.01153e+06 1.39379e+08 7.83262e+06
66 2 1.85 -9.25 -7.4 1.80258e+06 -3.09839e+07 1.82578e+07 -3.02459e+06 -1.85219e+06 -6.46311e+06 1.83911e+08 1.1393e+07
67 2 0 -9.25 -5.55 5.51254e+06 -2.60965e+07 1.08203e+07 -2.66342e+06 -9.31376e-09 -7.01153e+06 1.70656e+08 1.01356e+07
68 2 5.55 -9.25 -7.4 5.66716e+06 -3.25883e+07 1.59976e+07 -2.51266e+06 -1.70918e+06 -6.72035e+06 9.32277e+07 -826573
69 2 3.7 -9.25 -5.55 6.29398e+06 -2.6878e+07 1.08203e+07 -1.85804e+06 -2.61811e-10 -7.01153e+06 1.08555e+08 7.83262e+06
70 2 9.25 -9.25 -7.4 -3.87965e+07 -3.69215e+07 2.06786e+07 -762123 -2.76715e+06 -4.77405e+06 3.76985e+08 2.21568e+07
71 2 7.4 -9.25 -5.55 5.65074e+06 -2.77607e+07 1.11864e+07 1.78997e+06 3.71217e+06 -7.32167e+06 3.89824e+07 215312
72 2 -9.25 -5.55 -7.4 -3.25883e+07 5.66716e+06 1.59976e+07 -3.4666e+06 -6.05782e+06 -3.91959e+06 3.71172e+08 4.29249e+07
73 2 -9.25 -7.4 -5.55 -3.21735e+07 1.00635e+07 1.11864e+07 -3.05312e+06 -7.32167e+06 -3.71217e+06 3.71068e+08 4.45067e+07
74 2 -7.4 -7.4 -7.4 7.75917e+06 7.75917e+06 7.75917e+06 -2.99637e+06 -2.99637e+06 -2.99637e+06 1.19299e+08 6.15339e+07
75 2 -5.55 -5.55 -7.4 5.75829e+06 5.75829e+06 1.32148e+07 -1.51196e-09 -1.77211e+06 -1.77211e+06 1.38385e+08 5.31154e+07
76 2 -5.55 -7.4 -5.55 5.75829e+06 1.02729e+07 8.70021e+06 -1.77211e+06 -3.80093e-09 -1.77211e+06 1.38385e+08 5.53344e+07
77 2 -7.4 -5.55 -5.55 7.33099e+06 8.70021e+06 8.70021e+06 -1.77211e+06 -1.77211e+06 -5.92282e-09 1.08906e+08 5.89073e+07
78 2 -3.7 -7.4 -7.4 2.14707e+06 1.09287e+07 1.09287e+07 -1.64105e+06 -1.64105e+06 -3.13609e+06 1.6606e+08 6.89014e+07
79 2 -1.85 -5.55 -7.4 4.13171e+06 6.2681e+06 1.43316e+07 -1.27182e-09 -1.64105e+06 -1.77211e+06 1.65973e+08 6.08475e+07
80 2 -1.85 -7.4 -5.55 4.13171e+06 1.13897e+07 9.21002e+06 -1.64105e+06 -6.99101e-10 -1.77211e+06 1.65973e+08 6.78565e+07
81 2 -3.7 -5.55 -5.55 6.44689e+06 9.50574e+06 9.50574e+06 -1.00826e-09 -1.56532e-09 -6.09854e-09 1.46675e+08 6.19461e+07
82 2 0 -7.4 -7.4 2.14707e+06 1.09287e+07 1.09287e+07 -1.64105e+06 -1.64105e+06 -3.13609e+06 1.75674e+08 6.89014e+07
83 2 1.85 -5.55 -7.4 4.13171e+06 6.2681e+06 1.43316e+07 1.81435e-09 -1.64105e+06 -1.77211e+06 1.65973e+08 6.08475e+07
84 2 1.85 -7.4 -5.55 4.13171e+06 1.13897e+07 9.21002e+06 -1.64105e+06 6.73838e-09 -1.77211e+06 1.65973e+08 6.78565e+07
85 2 0 -5.55 -5.55 6.44689e+06 9.50574e+06 9.50574e+06 -6.55541e-09 -6.95291e-09 -7.27518e-09 1.56288e+08 6.19461e+07
86 2 3.7 -7.4 -7.4 2.14707e+06 1.09287e+07 1.09287e+07 -1.64105e+06 -1.64105e+06 -3.13609e+06 1.48757e+08 6.89014e+07
87 2 5.55 -5.55 -7.4 5.24849e+06 6.2681e+06 1.32148e+07 2.41024e-09 -1.64105e+06 -1.77211e+06 1.22058e+08 5.20108e+07
88 2 5.55 -7.4 -5.55 5.24849e+06 1.02729e+07 9.21002e+06 -1.64105e+06 6.20097e-09 -1.77211e+06 1.22058e+08 5.53344e+07
89 2 3.7 -5.55 -5.55 6.44689e+06 9.50574e+06 9.50574e+06 -1.40498e-09 -1.83861e-09 -6.17234e-09 1.29371e+08 6.19461e+07
90 2 7.4 -7.4 -7.4 3.06021e+06 1.01086e+07 1.01086e+07 471746 471746 -3.40402e+06 1.00787e+08 6.09298e+07
91 2 9.25 -5.55 -7.4 -3.49378e+07 8.01663e+06 1.59976e+07 3.4666e+06 2.85846e+06 -4.80316e+06 3.57554e+08 4.453e+07
92 2 9.25 -7.4 -5.55 -3.4523e+07 1.00635e+07 1.35359e+07 -146243 7.32167e+06 -4.59574e+06 3.5745e+08 4.45067e+07
93 2 7.4 -5.55 -5.55 7.33099e+06 8.70021e+06 8.70021e+06 1.77211e+06 1.77211e+06 -5.74544e-09 9.16024e+07 5.89073e+07
94 2 -9.25 -1.85 -7.4 -3.09839e+07 1.80258e+06 1.82578e+07 -3.02459e+06 -5.80058e+06 -3.48643e+06 3.69479e+08 4.65674e+07
95 2 -9.25 -3.7 -5.55 -2.88003e+07 8.21628e+06 1.08203e+07 -2.87392e+06 -7.01153e+06 -6.68221e-09 3.57862e+08 3.46082e+07
96 2 -7.4 -3.7 -7.4 1.09287e+07 2.14707e+06 1.09287e+07 -1.64105e+06 -3.13609e+06 -1.64105e+06 1.12105e+08 5.91888e+07
97 2 -5.55 -1.85 -7.4 6.2681e+06 4.13171e+06 1.43316e+07 -1.06726e-09 -1.77211e+06 -1.64105e+06 1.3728e+08 5.78994e+07
98 2 -5.55 -3.7 -5.55 8.99593e+06 6.9567e+06 9.50574e+06 -1.68475e-09 -5.68699e-09 -3.87773e-09 1.30685e+08 5.22099e+07
99 2 -7.4 -1.85 -5.55 8.95757e+06 6.56382e+06 9.21002e+06 -1.64105e+06 -1.77211e+06 -2.0855e-09 1.07096e+08 6.15512e+07
100 2 -3.7 -3.7 -7.4 5.15133e+06 5.15133e+06 1.44287e+07 -3.757e-10 -1.64105e+06 -1.64105e+06 1.54151e+08 6.22961e+07
101 2 -1.85 -1.85 -7.4 4.64152e+06 4.64152e+06 1.54484e+07 2.31241e-09 -1.64105e+06 -1.64105e+06 1.64869e+08 6.56315e+07
102 2 -1.85 -3.7 -5.55 7.97631e+06 7.4665e+06 1.00156e+07 8.18236e-10 1.81816e-09 -3.37834e-09 1.52974e+08 5.9942e+07
103 2 -3.7 -1.85 -5.55 7.4665e+06 7.97631e+06 1.00156e+07 1.6009e-09 -1.62084e-09 -7.88071e-10 1.44465e+08 6.42971e+07
104 2 0 -3.7 -7.4 5.15133e+06 5.15133e+06 1.44287e+07 -6.64136e-09 -1.64105e+06 -1.64105e+06 1.63764e+08 6.22961e+07
105 2 1.85 -1.85 -7.4 4.64152e+06 4.64152e+06 1.54484e+07 4.80269e-09 -1.64105e+06 -1.64105e+06 1.64869e+08 6.56315e+07
106 2 1.85 -3.7 -5.55 7.97631e+06 7.4665e+06 1.00156e+07 2.97055e-09 7.2828e-09 -3.95914e-09 1.52974e+08 5.9942e+07
107 2 0 -1.85 -5.55 7.4665e+06 7.97631e+06 1.00156e+07 -5.14072e-09 -7.45312e-09 -1.71652e-09 1.54078e+08 6.42971e+07
108 2 3.7 -3.7 -7.4 5.15133e+06 5.15133e+06 1.44287e+07 -3.28811e-10 -1.64105e+06 -1.64105e+06 1.36847e+08 6.22961e+07
109 2 5.55 -1.85 -7.4 5.75829e+06 4.64152e+06 1.43316e+07 3.37967e-09 -1.64105e+06 -1.64105e+06 1.20953e+08 5.67948e+07
110 2 5.55 -3.7 -5.55 8.48612e+06 6.9567e+06 1.00156e+07 2.40134e-09 5.65978e-09 -2.96815e-09 1.14656e+08 5.22099e+07
111 2 3.7 -1.85 -5.55 7.4665e+06 7.97631e+06 1.00156e+07 8.89387e-10 -1.19178e-09 -1.11173e-09 1.27162e+08 6.42971e+07
112 2 7.4 -3.7 -7.4 6.14711e+06 4.49655e+06 1.33608e+07 1.64105e+06 611472 -1.84488e+06 9.35969e+07 5.85847e+07
113 2 9.25 -1.85 -7.4 -3.28236e+07 3.64225e+06 1.82578e+07 3.02459e+06 2.60122e+06 -4.37e+06 3.54757e+08 4.70679e+07
114 2 9.25 -3.7 -5.55 -3.12324e+07 8.21628e+06 1.32524e+07 2.87392e+06 7.01153e+06 -5.67098e-09 3.44546e+08 3.46082e+07
115 2 7.4 -1.85 -5.55 8.95757e+06 6.56382e+06 9.21002e+06 1.64105e+06 1.77211e+06 -1.1562e-10 8.97924e+07 6.15512e+07
116 2 -9.25 1.85 -7.4 -3.09839e+07 1.80258e+06 1.82578e+07 -3.02459e+06 -5.80058e+06 -3.48643e+06 3.69479e+08 4.65674e+07
117 2 -9.25 0 -5.55 -2.80188e+07 7.43484e+06 1.08203e+07 -2.66342e+06 -7.01153e+06 -1.29309e-08 3.57709e+08 4.04534e+07
118 2 -7.4 0 -7.4 1.09287e+07 2.14707e+06 1.09287e+07 -1.64105e+06 -3.13609e+06 -1.64105e+06 1.12105e+08 6.3034e+07
119 2 -5.55 1.85 -7.4 6.2681e+06 4.13171e+06 1.43316e+07 1.95665e-09 -1.77211e+06 -1.64105e+06 1.3728e+08 5.78994e+07
120 2 -5.55 0 -5.55 8.99593e+06 6.9567e+06 9.50574e+06 -6.72196e-09 -4.39357e-09 -9.31248e-09 1.30685e+08 5.60551e+07
121 2 -7.4 1.85 -5.55 8.95757e+06 6.56382e+06 9.21002e+06 -1.64105e+06 -1.77211e+06 4.32455e-09 1.07096e+08 6.15512e+07
122 2 -3.7 0 -7.4 5.15133e+06 5.15133e+06 1.44287e+07 -6.57021e-09 -1.64105e+06 -1.64105e+06 1.54151e+08 6.61413e+07
123 2 -1.85 1.85 -7.4 4.64152e+06 4.64152e+06 1.54484e+07 5.15844e-09 -1.64105e+06 -1.64105e+06 1.64869e+08 6.56315e+07
124 2 -1.85 0 -5.55 7.97631e+06 7.4665e+06 1.00156e+07 -4.99438e-09 7.38191e-10 -9.35752e-09 1.52974e+08 6.37873e+07
125 2 -3.7 1.85 -5.55 7.4665e+06 7.97631e+06 1.00156e+07 3.9133e-09 -1.26509e-09 4.91909e-09 1.44465e+08 6.42971e+07
126 2 0 0 -7.4 5.15133e+06 5.15133e+06 1.44287e+07 -1.22176e-08 -1.64105e+06 -1.64105e+06 1.63764e+08 6.61413e+07
127 2 1.85 1.85 -7.4 4.64152e+06 4.64152e+06 1.54484e+07 6.93722e-09 -1.64105e+06 -1.64105e+06 1.64869e+08 6.56315e+07
128 2 1.85 0 -5.55 7.97631e+06 7.4665e+06 1.00156e+07 -2.41272e-09 5.56756e-09 -8.99313e-09 1.52974e+08 6.37873e+07
129 2 0 1.85 -5.55 7.4665e+06 7.97631e+06 1.00156e+07 -1.39558e-09 -6.60739e-09 3.82436e-09 1.54078e+08 6.42971e+07
130 2 3.7 0 -7.4 5.15133e+06 5.15133e+06 1.44287e+07 -5.39782e-09 -1.64105e+06 -1.64105e+06 1.36847e+08 6.61413e+07
131 2 5.55 1.85 -7.4 5.75829e+06 4.64152e+06 1.43316e+07 7.11509e-09 -1.64105e+06 -1.64105e+06 1.20953e+08 5.67948e+07
132 2 5.55 0 -5.55 8.48612e+06 6.9567e+06 1.00156e+07 -2.67792e-09 5.98557e-09 -9.44322e-09 1.14656e+08 5.60551e+07
133 2 3.7 1.85 -5.55 7.4665e+06 7.97631e+06 1.00156e+07 3.55755e-09 -8.71599e-10 4.25127e-09 1.27162e+08 6.42971e+07
134 2 7.4 0 -7.4 6.14711e+06 4.49655e+06 1.33608e+07 1.64105e+06 611472 -1.84488e+06 9.35969e+07 6.243e+07
135 2 9.25 1.85 -7.4 -3.28236e+07 3.64225e+06 1.82578e+07 3.02459e+06 2.60122e+06 -4.37e+06 3.54757e+08 4.70679e+07
136 2 9.25 0 -5.55 -3.04509e+07 7.43484e+06 1.32524e+07 2.66342e+06 7.01153e+06 -1.41214e-08 3.44393e+08 4.04534e+07
137 2 7.4 1.85 -5.55 8.95757e+06 6.56382e+06 9.21002e+06 1.64105e+06 1.77211e+06 2.8994e-09 8.97924e+07 6.15512e+07
138 2 -9.25 5.55 -7.4 -3.16508e+07 4.72965e+06 1.59976e+07 -3.47888e+06 -5.86467e+06 -3.81987e+06 3.7126e+08 4.95908e+07
139 2 -9.25 3.7 -5.55 -2.80188e+07 7.43484e+06 1.08203e+07 -2.66342e+06 -7.01153e+06 -4.00021e-09 3.57966e+08 4.20211e+07
140 2 -7.4 3.7 -7.4 1.09287e+07 2.14707e+06 1.09287e+07 -1.64105e+06 -3.13609e+06 -1.64105e+06 1.12105e+08 6.3034e+07
141 2 -5.55 5.55 -7.4 6.2681e+06 5.24849e+06 1.32148e+07 3.20179e-09 -1.77211e+06 -1.64105e+06 1.3728e+08 5.5955e+07
142 2 -5.55 3.7 -5.55 8.99593e+06 6.9567e+06 9.50574e+06 -5.90359e-11 -3.85994e-09 -3.69985e-09 1.30685e+08 5.60551e+07
143 2 -7.4 5.55 -5.55 8.95757e+06 6.56382e+06 9.21002e+06 -1.64105e+06 -1.77211e+06 4.08577e-09 1.04102e+08 5.85574e+07
144 2 -3.7 3.7 -7.4 5.15133e+06 5.15133e+06 1.44287e+07 -6.24729e-10 -1.64105e+06 -1.64105e+06 1.54151e+08 6.61413e+07
145 2 -1.85 5.55 -7.4 4.64152e+06 5.75829e+06 1.43316e+07 3.37967e-09 -1.64105e+06 -1.64105e+06 1.64869e+08 6.36871e+07
146 2 -1.85 3.7 -5.55 7.97631e+06 7.4665e+06 1.00156e+07 7.09351e-10 2.57922e-10 -3.10129e-09 1.52974e+08 6.37873e+07
147 2 -3.7 5.55 -5.55 7.4665e+06 7.97631e+06 1.00156e+07 3.20179e-09 -1.95881e-09 4.6539e-09 1.44465e+08 6.42971e+07
148 2 0 3.7 -7.4 5.15133e+06 5.15133e+06 1.44287e+07 -4.68362e-09 -1.64105e+06 -1.64105e+06 1.63764e+08 6.61413e+07
149 2 1.85 5.55 -7.4 4.64152e+06 5.75829e+06 1.43316e+07 6.22571e-09 -1.64105e+06 -1.64105e+06 1.64869e+08 6.36871e+07
150 2 1.85 3.7 -5.55 7.97631e+06 7.4665e+06 1.00156e+07 2.45875e-09 6.36801e-09 -3.55138e-09 1.52974e+08 6.37873e+07
151 2 0 5.55 -5.55 7.4665e+06 7.97631e+06 1.00156e+07 -1.84405e-09 -7.02918e-09 2.73042e-09 1.54078e+08 6.42971e+07
152 2 3.7 3.7 -7.4 5.15133e+06 5.15133e+06 1.44287e+07 -7.15825e-10 -1.64105e+06 -1.64105e+06 1.36847e+08 6.61413e+07
153 2 5.55 5.55 -7.4 5.75829e+06 5.75829e+06 1.32148e+07 7.29297e-09 -1.64105e+06 -1.64105e+06 1.20953e+08 5.48504e+07
154 2 5.55 3.7 -5.55 8.48612e+06 6.9567e+06 1.00156e+07 3.24896e-09 6.27018e-09 -3.13335e-09 1.14656e+08 5.60551e+07
155 2 3.7 5.55 -5.55 7.4665e+06 7.97631e+06 1.00156e+07 2.75494e-09 -1.62084e-09 4.72264e-09 1.27162e+08 6.42971e+07
156 2 7.4 3.7 -7.4 6.14711e+06 4.49655e+06 1.33608e+07 1.64105e+06 611472 -1.84488e+06 9.35969e+07 6.243e+07
157 2 9.25 5.55 -7.4 -3.34905e+07 6.56932e+06 1.59976e+07 3.47888e+06 2.6653e+06 -4.70344e+06 3.56538e+08 5.00914e+07
158 2 9.25 3.7 -5.55 -3.04509e+07 7.43484e+06 1.32524e+07 2.66342e+06 7.01153e+06 -3.77917e-09 3.4465e+08 4.20211e+07
159 2 7.4 5.55 -5.55 8.95757e+06 6.56382e+06 9.21002e+06 1.64105e+06 1.77211e+06 4.72264e-09 8.67986e+07 5.85574e+07
160 2 -9.25 9.25 -7.4 -3.69215e+07 -3.87965e+07 2.06786e+07 -762123 -3.41874e+06 -4.12247e+06 4.13256e+08 3.0276e+07
161 2 -9.25 7.4 -5.55 -2.85663e+07 6.45627e+06 1.11864e+07 1.78997e+06 -7.32167e+06 3.71217e+06 3.67977e+08 4.87247e+07
162 2 -7.4 7.4 -7.4 1.01086e+07 3.06021e+06 1.01086e+07 471746 -3.40402e+06 471746 1.18695e+08 6.47899e+07
163 2 -5.55 9.25 -7.4 7.07913e+06 -3.40003e+07 1.59976e+07 2.50037e+06 -2.69247e+06 2.00277e+06 1.13331e+08 3.26937e+06
164 2 -5.55 7.4 -5.55 1.00156e+07 6.01565e+06 8.70021e+06 1.77211e+06 -4.14454e-09 1.77211e+06 1.34589e+08 5.53843e+07
165 2 -7.4 9.25 -5.55 1.0869e+07 -3.53285e+07 1.35359e+07 -146243 -4.59574e+06 7.32167e+06 8.0322e+07 2.21304e+06
166 2 -3.7 7.4 -7.4 4.49655e+06 6.14711e+06 1.33608e+07 1.64105e+06 -1.84488e+06 611472 1.65456e+08 7.224e+07
167 2 -1.85 9.25 -7.4 3.64225e+06 -3.28236e+07 1.82578e+07 3.02459e+06 -2.73576e+06 1.93869e+06 1.84412e+08 1.58376e+07
168 2 -1.85 7.4 -5.55 8.99593e+06 6.52546e+06 9.21002e+06 1.64105e+06 1.84103e-09 1.77211e+06 1.64772e+08 7.05011e+07
169 2 -3.7 9.25 -5.55 9.35714e+06 -3.23732e+07 1.32524e+07 2.06853e+06 -1.72837e-09 7.01153e+06 1.26678e+08 9.71604e+06
170 2 0 7.4 -7.4 4.49655e+06 6.14711e+06 1.33608e+07 1.64105e+06 -1.84488e+06 611472 1.75069e+08 7.224e+07
171 2 1.85 9.25 -7.4 3.64225e+06 -3.28236e+07 1.82578e+07 3.02459e+06 -2.73576e+06 1.93869e+06 1.84412e+08 1.58376e+07
172 2 1.85 7.4 -5.55 8.99593e+06 6.52546e+06 9.21002e+06 1.64105e+06 5.38968e-09 1.77211e+06 1.64772e+08 7.05011e+07
173 2 0 9.25 -5.55 9.35714e+06 -3.23732e+07 1.32524e+07 2.66342e+06 -1.13766e-08 7.01153e+06 1.71664e+08 1.42723e+07
174 2 3.7 7.4 -7.4 4.49655e+06 6.14711e+06 1.33608e+07 1.64105e+06 -1.84488e+06 611472 1.48153e+08 7.224e+07
175 2 5.55 9.25 -7.4 6.56932e+06 -3.34905e+07 1.59976e+07 3.47888e+06 -3.0692e+06 2.00277e+06 8.48859e+07 2.16478e+06
176 2 5.55 7.4 -5.55 9.50574e+06 6.01565e+06 9.21002e+06 1.64105e+06 6.16345e-09 1.77211e+06 1.18263e+08 5.53843e+07
177 2 3.7 9.25 -5.55 9.35714e+06 -3.23732e+07 1.32524e+07 2.66342e+06 -1.3659e-09 7.01153e+06 9.58534e+07 9.71604e+06
178 2 7.4 7.4 -7.4 5.40969e+06 5.40969e+06 1.24581e+07 2.05288e+06 541609 541609 9.58147e+07 5.98171e+07
179 2 9.25 9.25 -7.4 -3.69215e+07 -3.87965e+07 2.06786e+07 6.60154e+06 -2.17362e+06 -5.14e+06 3.82547e+08 2.69083e+07
180 2 9.25 7.4 -5.55 -3.09157e+07 6.45627e+06 1.35359e+07 1.40939e+06 7.32167e+06 4.59574e+06 3.5436e+08 4.87247e+07
181 2 7.4 9.25 -5.55 1.0869e+07 -3.53285e+07 1.35359e+07 2.21478e+06 4.59574e+06 7.32167e+06 4.94977e+07 2.21304e+06
182 2 -9.25 -9.25 -3.7 -3.36221e+07 -3.14609e+07 1.18709e+07 -6.04204e+06 -5.86831e+06 -5.86831e+06 3.91094e+08 1.87477e+07
183 2 -5.55 -9.25 -3.7 9.73593e+06 -2.87452e+07 9.2455e+06 -3.44382e+06 27554.2 -6.59216e+06 1.16426e+08 -505506
184 2 -7.4 -9.25 -1.85 8.94015e+06 -2.61012e+07 6.23751e+06 -3.55286e+06 -3.25146e+06 -7.07859e+06 6.67791e+07 720403
185 2 -1.85 -9.25 -3.7 7.57097e+06 -2.76094e+07 1.02747e+07 -2.66342e+06 3.55765e-09 -6.64056e+06 1.65912e+08 9.04759e+06
186 2 -3.7 -9.25 -1.85 8.35241e+06 -2.56871e+07 7.57097e+06 -2.87392e+06 1.77595e-09 -6.43006e+06 1.34636e+08 7.72465e+06
187 2 1.85 -9.25 -3.7 7.57097e+06 -2.76094e+07 1.02747e+07 -2.66342e+06 9.54964e-09 -6.64056e+06 1.65912e+08 9.04759e+06
188 2 0 -9.25 -1.85 7.57097e+06 -2.49057e+07 7.57097e+06 -2.66342e+06 -3.34359e-09 -6.43006e+06 1.65912e+08 1.00276e+07
189 2 5.55 -9.25 -3.7 9.73593e+06 -2.87452e+07 9.2455e+06 -1.7486e+06 -27554.2 -6.59216e+06 8.95432e+07 -505506
190 2 3.7 -9.25 -1.85 8.35241e+06 -2.56871e+07 7.57097e+06 -1.85804e+06 6.69702e-10 -6.43006e+06 1.03812e+08 7.72465e+06
191 2 9.25 -9.25 -3.7 -3.36221e+07 -3.14609e+07 1.18709e+07 1.11845e+06 5.86831e+06 -5.86831e+06 3.64211e+08 1.87477e+07
192 2 7.4 -9.25 -1.85 8.94015e+06 -2.61012e+07 6.23751e+06 1.48433e+06 3.25146e+06 -7.07859e+06 3.59548e+07 720403
193 2 -9.25 -5.55 -3.7 -2.87452e+07 9.73593e+06 9.2455e+06 -3.44382e+06 -6.59216e+06 27554.2 3.57721e+08 3.85959e+07
194 2 -9.25 -7.4 -1.85 -3.0514e+07 1.33529e+07 6.23751e+06 -2.74748e+06 -7.07859e+06 -3.25146e+06 3.69234e+08 4.71338e+07
195 2 -7.4 -7.4 -3.7 1.09287e+07 1.09287e+07 2.14707e+06 -3.13609e+06 -1.64105e+06 -1.64105e+06 1.12105e+08 6.2489e+07
196 2 -5.55 -5.55 -3.7 8.99593e+06 8.99593e+06 7.4665e+06 -2.50807e-09 -4.35291e-09 -3.20179e-09 1.30685e+08 5.36192e+07
197 2 -5.55 -7.4 -1.85 6.2681e+06 1.18995e+07 6.56382e+06 -1.77211e+06 -2.99833e-09 -1.64105e+06 1.3728e+08 5.77886e+07
198 2 -7.4 -5.55 -1.85 8.95757e+06 9.21002e+06 6.56382e+06 -1.77211e+06 -1.64105e+06 -1.13601e-09 1.07096e+08 5.94171e+07
199 2 -3.7 -7.4 -3.7 5.15133e+06 1.44287e+07 5.15133e+06 -1.64105e+06 -6.20413e-10 -1.64105e+06 1.54151e+08 6.96185e+07
200 2 -1.85 -5.55 -3.7 7.97631e+06 9.50574e+06 7.97631e+06 -6.49252e-10 3.30852e-09 -3.7325e-09 1.52974e+08 6.13513e+07
201 2 -1.85 -7.4 -1.85 4.64152e+06 1.30163e+07 7.07363e+06 -1.64105e+06 3.95239e-09 -1.64105e+06 1.64869e+08 7.03108e+07
202 2 -3.7 -5.55 -1.85 7.4665e+06 1.00156e+07 7.97631e+06 -1.13841e-09 1.42302e-09 -2.27758e-10 1.44465e+08 6.24559e+07
203 2 0 -7.4 -3.7 5.15133e+06 1.44287e+07 5.15133e+06 -1.64105e+06 -6.20151e-09 -1.64105e+06 1.63764e+08 6.96185e+07
204 2 1.85 -5.55 -3.7 7.97631e+06 9.50574e+06 7.97631e+06 1.10284e-09 9.19626e-09 -3.77966e-09 1.52974e+08 6.13513e+07
205 2 1.85 -7.4 -1.85 4.64152e+06 1.30163e+07 7.07363e+06 -1.64105e+06 9.90459e-09 -1.64105e+06 1.64869e+08 7.03108e+07
206 2 0 -5.55 -1.85 7.4665e+06 1.00156e+07 7.97631e+06 -7.06173e-09 -4.42921e-09 -1.06726e-09 1.54078e+08 6.24559e+07
207 2 3.7 -7.4 -3.7 5.15133e+06 1.44287e+07 5.15133e+06 -1.64105e+06 -8.89387e-10 -1.64105e+06 1.36847e+08 6.96185e+07
208 2 5.55 -5.55 -3.7 8.48612e+06 9.50574e+06 7.4665e+06 2.00112e-09 5.78101e-09 -3.8985e-09 1.14656e+08 5.25146e+07
209 2 5.55 -7.4 -1.85 5.75829e+06 1.18995e+07 7.07363e+06 -1.64105e+06 8.23766e-09 -1.64105e+06 1.20953e+08 5.77886e+07
210 2 3.7 -5.55 -1.85 7.4665e+06 1.00156e+07 7.97631e+06 -1.2985e-09 1.15404e-09 -8.89387e-10 1.27162e+08 6.24559e+07
211 2 7.4 -7.4 -3.7 6.14711e+06 1.33608e+07 4.49655e+06 611472 1.64105e+06 -1.84488e+06 9.35969e+07 6.18887e+07
212 2 9.25 -5.55 -3.7 -3.11773e+07 1.2168e+07 9.2455e+06 3.44382e+06 6.59216e+06 27554.2 3.44405e+08 4.02048e+07
213 2 9.25 -7.4 -1.85 -3.23537e+07 1.33529e+07 8.07718e+06 -451882 7.07859e+06 -4.13503e+06 3.54512e+08 4.71338e+07
214 2 7.4 -5.55 -1.85 8.95757e+06 9.21002e+06 6.56382e+06 1.77211e+06 1.64105e+06 -3.55755e-10 8.97924e+07 5.94171e+07
215 2 -9.25 -1.85 -3.7 -2.76094e+07 7.57097e+06 1.02747e+07 -2.66342e+06 -6.64056e+06 3.84272e-09 3.56653e+08 4.09399e+07
216 2 -9.25 -3.7 -1.85 -2.76094e+07 1.02747e+07 7.57097e+06 -2.87392e+06 -6.43006e+06 3.20179e-09 3.56653e+08 3.5599e+07
217 2 -7.4 -3.7 -3.7 1.44287e+07 5.15133e+06 5.15133e+06 -1.64105e+06 -1.64105e+06 -1.76099e-09 1.04277e+08 5.77116e+07
218 2 -5.55 -1.85 -3.7 9.50574e+06 7.97631e+06 7.97631e+06 -1.77877e-10 -3.91037e-09 3.13064e-09 1.29581e+08 5.70748e+07
219 2 -5.55 -3.7 -1.85 9.50574e+06 7.97631e+06 7.97631e+06 -1.76099e-09 -3.21665e-09 2.13453e-09 1.29581e+08 5.32295e+07
220 2 -7.4 -1.85 -1.85 1.05841e+07 7.07363e+06 7.07363e+06 -1.64105e+06 -1.64105e+06 6.58146e-09 1.05286e+08 6.2061e+07
221 2 -3.7 -3.7 -3.7 8.48612e+06 8.48612e+06 8.48612e+06 -3.97804e-10 -1.07158e-09 1.24514e-10 1.42256e+08 6.09617e+07
222 2 -1.85 -1.85 -3.7 8.48612e+06 8.48612e+06 8.48612e+06 3.20179e-09 3.46352e-09 3.59312e-09 1.51869e+08 6.48069e+07
223 2 -1.85 -3.7 -1.85 8.48612e+06 8.48612e+06 8.48612e+06 4.62481e-10 4.95769e-09 2.49028e-09 1.51869e+08 6.09617e+07
224 2 -3.7 -1.85 -1.85 8.48612e+06 8.48612e+06 8.48612e+06 1.24514e-09 8.51653e-10 5.15844e-09 1.42256e+08 6.48069e+07
225 2 0 -3.7 -3.7 8.48612e+06 8.48612e+06 8.48612e+06 -6.07647e-09 -6.03874e-09 -9.4275e-10 1.51869e+08 6.09617e+07
226 2 1.85 -1.85 -3.7 8.48612e+06 8.48612e+06 8.48612e+06 5.69207e-09 9.15051e-09 3.45082e-09 1.51869e+08 6.48069e+07
227 2 1.85 -3.7 -1.85 8.48612e+06 8.48612e+06 8.48612e+06 3.68206e-09 1.00933e-08 2.66816e-09 1.51869e+08 6.09617e+07
228 2 0 -1.85 -1.85 8.48612e+06 8.48612e+06 8.48612e+06 -4.44693e-09 -4.86743e-09 7.29297e-09 1.51869e+08 6.48069e+07
229 2 3.7 -3.7 -3.7 8.48612e+06 8.48612e+06 8.48612e+06 -6.42516e-10 -5.29316e-10 -1.40523e-09 1.24953e+08 6.09617e+07
230 2 5.55 -1.85 -3.7 8.99593e+06 8.48612e+06 7.97631e+06 3.55755e-09 6.59364e-09 3.13064e-09 1.13551e+08 5.59702e+07
231 2 5.55 -3.7 -1.85 8.99593e+06 7.97631e+06 8.48612e+06 2.22347e-09 6.68258e-09 2.49028e-09 1.13551e+08 5.32295e+07
232 2 3.7 -1.85 -1.85 8.48612e+06 8.48612e+06 8.48612e+06 1.24514e-09 1.6009e-09 6.04783e-09 1.24953e+08 6.48069e+07
233 2 7.4 -3.7 -3.7 9.56453e+06 7.58344e+06 7.58344e+06 1.64105e+06 1.64105e+06 3.02391e-10 8.57732e+07 5.71112e+07
234 2 9.25 -1.85 -3.7 -2.95317e+07 9.49327e+06 1.02747e+07 2.66342e+06 6.64056e+06 4.29099e-09 3.42232e+08 4.14442e+07
235 2 9.25 -3.7 -1.85 -2.95317e+07 1.02747e+07 9.49327e+06 2.87392e+06 6.43006e+06 4.09118e-09 3.42232e+08 3.5599e+07
236 2 7.4 -1.85 -1.85 1.05841e+07 7.07363e+06 7.07363e+06 1.64105e+06 1.64105e+06 6.93722e-09 8.79824e+07 6.2061e+07
237 2 -9.25 1.85 -3.7 -2.76094e+07 7.57097e+06 1.02747e+07 -2.66342e+06 -6.64056e+06 9.89583e-09 3.56653e+08 4.09399e+07
238 2 -9.25 0 -1.85 -2.6828e+07 9.49327e+06 7.57097e+06 -2.66342e+06 -6.43006e+06 -1.82964e-09 3.56499e+08 4.14442e+07
239 2 -7.4 0 -3.7 1.44287e+07 5.15133e+06 5.15133e+06 -1.64105e+06 -1.64105e+06 -6.47372e-09 1.04277e+08 6.15568e+07
240 2 -5.55 1.85 -3.7 9.50574e+06 7.97631e+06 7.97631e+06 1.95665e-09 -3.68101e-09 8.20014e-09 1.29581e+08 5.70748e+07
241 2 -5.55 0 -1.85 9.50574e+06 7.97631e+06 7.97631e+06 -7.14177e-09 -2.31241e-09 -2.51109e-09 1.29581e+08 5.70748e+07
242 2 -7.4 1.85 -1.85 1.05841e+07 7.07363e+06 7.07363e+06 -1.64105e+06 -1.64105e+06 1.19178e-08 1.05286e+08 6.2061e+07
243 2 -3.7 0 -3.7 8.48612e+06 8.48612e+06 8.48612e+06 -6.30771e-09 -2.31241e-10 -6.39449e-09 1.42256e+08 6.48069e+07
244 2 -1.85 1.85 -3.7 8.48612e+06 8.48612e+06 8.48612e+06 5.15844e-09 3.05628e-09 9.51644e-09 1.51869e+08 6.48069e+07
245 2 -1.85 0 -1.85 8.48612e+06 8.48612e+06 8.48612e+06 -4.73154e-09 4.44693e-09 -2.33322e-09 1.51869e+08 6.48069e+07
246 2 -3.7 1.85 -1.85 8.48612e+06 8.48612e+06 8.48612e+06 3.73542e-09 1.24514e-09 1.04948e-08 1.42256e+08 6.48069e+07
247 2 0 0 -3.7 8.48612e+06 8.48612e+06 8.48612e+06 -1.16969e-08 -5.31212e-09 -5.95889e-09 1.51869e+08 6.48069e+07
248 2 1.85 1.85 -3.7 8.48612e+06 8.48612e+06 8.48612e+06 6.58146e-09 8.51823e-09 8.91165e-09 1.51869e+08 6.48069e+07
249 2 1.85 0 -1.85 8.48612e+06 8.48612e+06 8.48612e+06 -1.52974e-09 9.60538e-09 -2.81536e-09 1.51869e+08 6.48069e+07
250 2 0 1.85 -1.85 8.48612e+06 8.48612e+06 8.48612e+06 -1.84992e-09 -4.33488e-09 1.1562e-08 1.51869e+08 6.48069e+07