ITEM: TIMESTEP
0
ITEM: NUMBER OF ATOMS
16384
ITEM: BOX BOUNDS pp pp pp
0.0000000000000000e+00 5.5821520457401498e+01
0.0000000000000000e+00 5.5821520457401498e+01
0.0000000000000000e+00 5.5821520457401498e+01
ITEM: ATOMS id type x y z
1 4 0 0 0
2 4 1.75827 1.75827 0
8193 2 0 0 0
8194 2 1.75827 1.75827 0
8195 2 1.75827 0 1.75827
8196 2 0 1.75827 1.75827
3 4 5.2748 1.75827 0
4 4 5.2748 0 1.75827
5 4 3.51654 1.75827 1.75827
8197 2 5.2748 0 1.75827
6 4 8.79134 0 1.75827
7 4 7.03307 1.75827 1.75827
8198 2 7.03307 0 0
8199 2 8.79134 1.75827 0
8 4 12.3079 1.75827 0
9 4 12.3079 0 1.75827
10 4 10.5496 1.75827 1.75827
8200 2 12.3079 1.75827 0
11 4 14.0661 0 0
12 4 14.0661 1.75827 1.75827
8201 2 15.8244 0 1.75827
8202 2 19.3409 0 1.75827
8203 2 17.5827 1.75827 1.75827
13 4 21.0992 0 0
8204 2 21.0992 0 0
8205 2 22.8575 1.75827 0
8206 2 21.0992 1.75827 1.75827
14 4 24.6157 0 0
16 4 24.6157 1.75827 1.75827
8207 2 24.6157 0 0
15 4 26.374 0 1.75827
17 4 28.1323 0 0
8208 2 26.374 0 1.75827
18 4 29.8906 1.75827 0
19 4 29.8906 0 1.75827
8209 2 29.8906 1.75827 0
8212 2 31.6488 1.75827 1.75827
20 4 33.4071 1.75827 0
21 4 33.4071 0 1.75827
8210 2 33.4071 1.75827 0
8211 2 33.4071 0 1.75827
8213 2 35.1654 0 0
8215 2 35.1654 1.75827 1.75827
22 4 36.9236 1.75827 0
23 4 38.6819 0 0
8214 2 36.9236 0 1.75827
8217 2 38.6819 1.75827 1.75827
24 4 40.4402 1.75827 0
8216 2 40.4402 1.75827 0
8218 2 42.1984 0 0
8220 2 42.1984 1.75827 1.75827
25 4 43.9567 1.75827 0
8219 2 43.9567 1.75827 0
8221 2 45.715 0 0
8223 2 45.715 1.75827 1.75827
26 4 47.4732 1.75827 0
27 4 49.2315 0 0
29 4 49.2315 1.75827 1.75827
8222 2 47.4732 0 1.75827
28 4 50.9898 0 1.75827
8224 2 50.9898 0 1.75827
30 4 52.748 0 0
31 4 54.5063 1.75827 0
8225 2 52.748 0 0
32 4 1.75827 3.51654 1.75827
33 4 0 5.2748 1.75827
8226 2 0 3.51654 0
8227 2 1.75827 5.2748 0
34 4 5.2748 3.51654 1.75827
35 4 3.51654 5.2748 1.75827
8228 2 5.2748 3.51654 1.75827
36 4 7.03307 3.51654 0
37 4 8.79134 5.2748 0
38 4 8.79134 3.51654 1.75827
39 4 7.03307 5.2748 1.75827
8229 2 7.03307 3.51654 0
8230 2 8.79134 5.2748 0
40 4 12.3079 5.2748 0
41 4 12.3079 3.51654 1.75827
42 4 10.5496 5.2748 1.75827
43 4 14.0661 3.51654 0
44 4 15.8244 5.2748 0
45 4 14.0661 5.2748 1.75827
8231 2 14.0661 3.51654 0
8232 2 15.8244 3.51654 1.75827
46 4 19.3409 3.51654 1.75827
47 4 17.5827 5.2748 1.75827
8233 2 19.3409 5.2748 0
48 4 21.0992 3.51654 0
49 4 22.8575 5.2748 0
50 4 22.8575 3.51654 1.75827
51 4 21.0992 5.2748 1.75827
8234 2 22.8575 5.2748 0
8235 2 22.8575 3.51654 1.75827
52 4 24.6157 5.2748 1.75827
8236 2 24.6157 3.51654 0
8237 2 24.6157 5.2748 1.75827
53 4 28.1323 3.51654 0
56 4 28.1323 5.2748 1.75827
8238 2 28.1323 3.51654 0
54 4 29.8906 5.2748 0
55 4 29.8906 3.51654 1.75827
57 4 31.6488 3.51654 0
59 4 31.6488 5.2748 1.75827
8239 2 29.8906 5.2748 0
8241 2 31.6488 5.2748 1.75827
58 4 33.4071 5.2748 0
61 4 35.1654 5.2748 1.75827
8240 2 33.4071 3.51654 1.75827
60 4 36.9236 3.51654 1.75827
8242 2 36.9236 3.51654 1.75827
8243 2 38.6819 3.51654 0
62 4 40.4402 3.51654 1.75827
63 4 42.1984 3.51654 0
8244 2 40.4402 5.2748 0
8245 2 42.1984 3.51654 0
64 4 43.9567 5.2748 0
65 4 43.9567 3.51654 1.75827
8246 2 43.9567 3.51654 1.75827
8247 2 45.715 3.51654 0
8250 2 45.715 5.2748 1.75827
66 4 47.4732 5.2748 0
67 4 47.4732 3.51654 1.75827
68 4 49.2315 3.51654 0
8248 2 47.4732 5.2748 0
8249 2 47.4732 3.51654 1.75827
8251 2 49.2315 3.51654 0
69 4 50.9898 5.2748 0
70 4 52.748 3.51654 0
71 4 54.5063 5.2748 0
72 4 52.748 5.2748 1.75827
8252 2 52.748 3.51654 0
8253 2 54.5063 5.2748 0
8254 2 54.5063 3.51654 1.75827
8255 2 52.748 5.2748 1.75827
73 4 1.75827 7.03307 1.75827
8256 2 1.75827 7.03307 1.75827
8257 2 0 8.79134 1.75827
74 4 5.2748 7.03307 1.75827
75 4 3.51654 8.79134 1.75827
8258 2 3.51654 7.03307 0
8259 2 5.2748 8.79134 0
8260 2 7.03307 7.03307 0
8261 2 8.79134 7.03307 1.75827
8262 2 7.03307 8.79134 1.75827
76 4 10.5496 7.03307 0
77 4 12.3079 7.03307 1.75827
8263 2 10.5496 7.03307 0
8264 2 10.5496 8.79134 1.75827
78 4 15.8244 7.03307 1.75827
8265 2 14.0661 7.03307 0
8266 2 15.8244 8.79134 0
8267 2 15.8244 7.03307 1.75827
79 4 19.3409 8.79134 0
80 4 19.3409 7.03307 1.75827
8268 2 17.5827 7.03307 0
8269 2 19.3409 8.79134 0
8270 2 19.3409 7.03307 1.75827
81 4 21.0992 7.03307 0
82 4 22.8575 7.03307 1.75827
8271 2 22.8575 8.79134 0
8272 2 21.0992 8.79134 1.75827
83 4 24.6157 8.79134 1.75827
8273 2 24.6157 8.79134 1.75827
8274 2 28.1323 7.03307 0
8276 2 28.1323 8.79134 1.75827
84 4 29.8906 7.03307 1.75827
86 4 31.6488 8.79134 1.75827
8275 2 29.8906 8.79134 0
8277 2 31.6488 7.03307 0
8280 2 31.6488 8.79134 1.75827
85 4 33.4071 8.79134 0
88 4 35.1654 8.79134 1.75827
8278 2 33.4071 8.79134 0
8279 2 33.4071 7.03307 1.75827
8281 2 35.1654 7.03307 0
87 4 36.9236 7.03307 1.75827
90 4 38.6819 8.79134 1.75827
8282 2 36.9236 8.79134 0
8283 2 36.9236 7.03307 1.75827
89 4 40.4402 7.03307 1.75827
92 4 42.1984 8.79134 1.75827
8284 2 40.4402 8.79134 0
8285 2 42.1984 7.03307 0
91 4 43.9567 8.79134 0
93 4 45.715 8.79134 1.75827
8288 2 45.715 8.79134 1.75827
94 4 49.2315 7.03307 0
8286 2 47.4732 8.79134 0
8287 2 47.4732 7.03307 1.75827
8289 2 49.2315 7.03307 0
8291 2 49.2315 8.79134 1.75827
8290 2 50.9898 8.79134 0
95 4 52.748 7.03307 0
96 4 54.5063 8.79134 0
97 4 52.748 8.79134 1.75827
8292 2 52.748 7.03307 0
8293 2 54.5063 8.79134 0
8294 2 52.748 8.79134 1.75827
98 4 1.75827 12.3079 0
99 4 1.75827 10.5496 1.75827
100 4 0 12.3079 1.75827
8295 2 0 10.5496 0
101 4 3.51654 10.5496 0
102 4 5.2748 12.3079 0
103 4 5.2748 10.5496 1.75827
8296 2 3.51654 10.5496 0
8297 2 5.2748 12.3079 0
8298 2 5.2748 10.5496 1.75827
104 4 7.03307 10.5496 0
105 4 8.79134 10.5496 1.75827
8299 2 7.03307 10.5496 0
8300 2 8.79134 12.3079 0
106 4 12.3079 12.3079 0
107 4 12.3079 10.5496 1.75827
8301 2 10.5496 10.5496 0
8302 2 12.3079 12.3079 0
8303 2 10.5496 12.3079 1.75827
8304 2 15.8244 12.3079 0
8305 2 15.8244 10.5496 1.75827
108 4 17.5827 10.5496 0
109 4 19.3409 12.3079 0
110 4 19.3409 10.5496 1.75827
8306 2 19.3409 12.3079 0
111 4 21.0992 10.5496 0
112 4 22.8575 10.5496 1.75827
113 4 21.0992 12.3079 1.75827
8307 2 22.8575 12.3079 0
8308 2 21.0992 12.3079 1.75827
114 4 24.6157 10.5496 0
117 4 24.6157 12.3079 1.75827
8309 2 24.6157 10.5496 0
8311 2 24.6157 12.3079 1.75827
115 4 26.374 12.3079 0
116 4 26.374 10.5496 1.75827
118 4 28.1323 12.3079 1.75827
8310 2 26.374 10.5496 1.75827
8312 2 28.1323 10.5496 0
119 4 31.6488 10.5496 0
122 4 31.6488 12.3079 1.75827
8313 2 29.8906 12.3079 0
8314 2 31.6488 10.5496 0
120 4 33.4071 12.3079 0
121 4 33.4071 10.5496 1.75827
123 4 35.1654 10.5496 0
8315 2 33.4071 10.5496 1.75827
8316 2 35.1654 10.5496 0
124 4 36.9236 10.5496 1.75827
8317 2 38.6819 10.5496 0
8318 2 38.6819 12.3079 1.75827
127 4 42.1984 12.3079 1.75827
125 4 43.9567 12.3079 0
126 4 43.9567 10.5496 1.75827
128 4 45.715 10.5496 0
8320 2 45.715 12.3079 1.75827
129 4 47.4732 10.5496 1.75827
130 4 49.2315 10.5496 0
8319 2 47.4732 10.5496 1.75827
8321 2 49.2315 10.5496 0
8322 2 49.2315 12.3079 1.75827
131 4 54.5063 12.3079 0
8323 2 52.748 10.5496 0
8324 2 54.5063 12.3079 0
8325 2 52.748 12.3079 1.75827
132 4 1.75827 15.8244 0
8326 2 1.75827 15.8244 0
8327 2 1.75827 14.0661 1.75827
8328 2 0 15.8244 1.75827
133 4 5.2748 15.8244 0
8329 2 3.51654 14.0661 0
8330 2 5.2748 15.8244 0
8331 2 5.2748 14.0661 1.75827
8332 2 3.51654 15.8244 1.75827
134 4 8.79134 14.0661 1.75827
8333 2 7.03307 14.0661 0
8334 2 8.79134 15.8244 0
8335 2 7.03307 15.8244 1.75827
135 4 10.5496 15.8244 1.75827
8336 2 12.3079 15.8244 0
136 4 14.0661 15.8244 1.75827
8337 2 15.8244 15.8244 0
8338 2 15.8244 14.0661 1.75827
8339 2 14.0661 15.8244 1.75827
137 4 17.5827 14.0661 0
138 4 19.3409 15.8244 0
8340 2 17.5827 14.0661 0
8341 2 19.3409 14.0661 1.75827
8342 2 17.5827 15.8244 1.75827
139 4 21.0992 14.0661 0
140 4 22.8575 15.8244 0
8343 2 22.8575 15.8244 0
8344 2 22.8575 14.0661 1.75827
8345 2 21.0992 15.8244 1.75827
142 4 24.6157 15.8244 1.75827
8346 2 24.6157 15.8244 1.75827
141 4 26.374 15.8244 0
144 4 28.1323 15.8244 1.75827
8348 2 28.1323 15.8244 1.75827
143 4 29.8906 14.0661 1.75827
147 4 31.6488 15.8244 1.75827
8347 2 29.8906 15.8244 0
8350 2 31.6488 15.8244 1.75827
145 4 33.4071 15.8244 0
146 4 33.4071 14.0661 1.75827
148 4 35.1654 14.0661 0
150 4 35.1654 15.8244 1.75827
8349 2 33.4071 14.0661 1.75827
8352 2 35.1654 15.8244 1.75827
149 4 36.9236 15.8244 0
8351 2 36.9236 15.8244 0
8353 2 38.6819 14.0661 0
8355 2 38.6819 15.8244 1.75827
151 4 40.4402 15.8244 0
152 4 42.1984 14.0661 0
154 4 42.1984 15.8244 1.75827
8354 2 40.4402 14.0661 1.75827
8356 2 42.1984 14.0661 0
8358 2 42.1984 15.8244 1.75827
153 4 43.9567 15.8244 0
155 4 45.715 14.0661 0
157 4 45.715 15.8244 1.75827
8357 2 43.9567 14.0661 1.75827
8360 2 45.715 15.8244 1.75827
156 4 47.4732 14.0661 1.75827
158 4 49.2315 14.0661 0
8359 2 47.4732 14.0661 1.75827
8361 2 50.9898 15.8244 0
159 4 52.748 15.8244 1.75827
8362 2 52.748 14.0661 0
8363 2 54.5063 15.8244 0
8364 2 54.5063 14.0661 1.75827
8365 2 52.748 15.8244 1.75827
160 4 0 17.5827 0
161 4 1.75827 19.3409 0
162 4 1.75827 17.5827 1.75827
163 4 0 19.3409 1.75827
8366 2 0 17.5827 0
8367 2 1.75827 19.3409 0
8368 2 1.75827 17.5827 1.75827
8369 2 0 19.3409 1.75827
164 4 3.51654 17.5827 0
165 4 5.2748 17.5827 1.75827
8370 2 3.51654 17.5827 0
8371 2 5.2748 19.3409 0
8372 2 5.2748 17.5827 1.75827
8373 2 3.51654 19.3409 1.75827
166 4 8.79134 19.3409 0
167 4 8.79134 17.5827 1.75827
168 4 7.03307 19.3409 1.75827
8374 2 7.03307 17.5827 0
8375 2 8.79134 19.3409 0
169 4 12.3079 17.5827 1.75827
170 4 10.5496 19.3409 1.75827
8376 2 12.3079 19.3409 0
8377 2 12.3079 17.5827 1.75827
171 4 14.0661 17.5827 0
172 4 15.8244 19.3409 0
173 4 15.8244 17.5827 1.75827
174 4 14.0661 19.3409 1.75827
8378 2 14.0661 17.5827 0
8379 2 15.8244 19.3409 0
8380 2 15.8244 17.5827 1.75827
8381 2 14.0661 19.3409 1.75827
175 4 17.5827 17.5827 0
176 4 17.5827 19.3409 1.75827
8382 2 19.3409 19.3409 0
8383 2 19.3409 17.5827 1.75827
177 4 21.0992 17.5827 0
178 4 22.8575 19.3409 0
8384 2 22.8575 19.3409 0
8385 2 22.8575 17.5827 1.75827
8386 2 24.6157 17.5827 0
179 4 26.374 19.3409 0
8387 2 26.374 19.3409 0
8388 2 28.1323 19.3409 1.75827
180 4 31.6488 17.5827 0
182 4 31.6488 19.3409 1.75827
181 4 33.4071 19.3409 0
183 4 35.1654 17.5827 0
8389 2 33.4071 19.3409 0
8390 2 33.4071 17.5827 1.75827
8391 2 35.1654 17.5827 0
184 4 38.6819 17.5827 0
185 4 38.6819 19.3409 1.75827
8392 2 36.9236 19.3409 0
8393 2 36.9236 17.5827 1.75827
8394 2 38.6819 19.3409 1.75827
8395 2 42.1984 17.5827 0
8397 2 42.1984 19.3409 1.75827
186 4 43.9567 17.5827 1.75827
189 4 45.715 19.3409 1.75827
8396 2 43.9567 17.5827 1.75827
8398 2 45.715 17.5827 0
8400 2 45.715 19.3409 1.75827
187 4 47.4732 19.3409 0
188 4 47.4732 17.5827 1.75827
8399 2 47.4732 17.5827 1.75827
8401 2 49.2315 17.5827 0
190 4 50.9898 19.3409 0
8402 2 50.9898 19.3409 0
191 4 54.5063 19.3409 0
192 4 54.5063 17.5827 1.75827
8403 2 54.5063 19.3409 0
193 4 1.75827 22.8575 0
194 4 1.75827 21.0992 1.75827
195 4 0 22.8575 1.75827
196 4 3.51654 21.0992 0
197 4 5.2748 22.8575 0
8404 2 3.51654 21.0992 0
8405 2 3.51654 22.8575 1.75827
198 4 7.03307 21.0992 0
199 4 8.79134 22.8575 0
200 4 8.79134 21.0992 1.75827
201 4 7.03307 22.8575 1.75827
8406 2 7.03307 21.0992 0
8407 2 8.79134 22.8575 0
202 4 10.5496 21.0992 0
203 4 12.3079 22.8575 0
204 4 12.3079 21.0992 1.75827
8408 2 10.5496 21.0992 0
8409 2 10.5496 22.8575 1.75827
205 4 15.8244 22.8575 0
206 4 15.8244 21.0992 1.75827
8410 2 14.0661 21.0992 0
8411 2 15.8244 22.8575 0
8412 2 14.0661 22.8575 1.75827
207 4 19.3409 22.8575 0
208 4 17.5827 22.8575 1.75827
8413 2 17.5827 21.0992 0
8414 2 19.3409 21.0992 1.75827
209 4 21.0992 21.0992 0
210 4 22.8575 22.8575 0
8415 2 22.8575 22.8575 0
8416 2 22.8575 21.0992 1.75827
8417 2 24.6157 21.0992 0
211 4 26.374 22.8575 0
212 4 28.1323 21.0992 0
215 4 28.1323 22.8575 1.75827
8418 2 26.374 21.0992 1.75827
8419 2 28.1323 21.0992 0
213 4 29.8906 22.8575 0
214 4 29.8906 21.0992 1.75827
8420 2 29.8906 21.0992 1.75827
8421 2 31.6488 21.0992 0
216 4 33.4071 22.8575 0
217 4 33.4071 21.0992 1.75827
218 4 35.1654 21.0992 0
8422 2 33.4071 22.8575 0
8423 2 33.4071 21.0992 1.75827
8424 2 35.1654 21.0992 0
219 4 36.9236 21.0992 1.75827
220 4 38.6819 21.0992 0
8425 2 36.9236 22.8575 0
8427 2 38.6819 22.8575 1.75827
221 4 40.4402 22.8575 0
8426 2 40.4402 22.8575 0
8428 2 42.1984 22.8575 1.75827
222 4 43.9567 22.8575 0
223 4 43.9567 21.0992 1.75827
224 4 45.715 21.0992 0
225 4 45.715 22.8575 1.75827
226 4 49.2315 21.0992 0
228 4 49.2315 22.8575 1.75827
8429 2 47.4732 21.0992 1.75827
227 4 50.9898 22.8575 0
8430 2 50.9898 22.8575 0
229 4 54.5063 22.8575 0
230 4 0 24.6157 0
232 4 1.75827 24.6157 1.75827
8431 2 0 24.6157 0
8433 2 1.75827 24.6157 1.75827
235 4 5.2748 24.6157 1.75827
8436 2 5.2748 24.6157 1.75827
237 4 8.79134 24.6157 1.75827
8437 2 7.03307 24.6157 0
8439 2 8.79134 24.6157 1.75827
239 4 10.5496 24.6157 0
240 4 12.3079 24.6157 1.75827
243 4 15.8244 24.6157 1.75827
8441 2 15.8244 24.6157 1.75827
8443 2 19.3409 24.6157 1.75827
245 4 21.0992 24.6157 0
246 4 22.8575 24.6157 1.75827
8445 2 22.8575 24.6157 1.75827
8446 2 24.6157 24.6157 0
248 4 26.374 24.6157 1.75827
8447 2 28.1323 24.6157 0
251 4 31.6488 24.6157 0
8449 2 31.6488 24.6157 0
252 4 35.1654 24.6157 0
8450 2 33.4071 24.6157 1.75827
8451 2 35.1654 24.6157 0
253 4 36.9236 24.6157 1.75827
8453 2 36.9236 24.6157 1.75827
8454 2 38.6819 24.6157 0
8456 2 42.1984 24.6157 0
256 4 43.9567 24.6157 1.75827
259 4 54.5063 24.6157 1.75827
231 4 1.75827 26.374 0
233 4 0 26.374 1.75827
260 4 0 28.1323 0
8432 2 1.75827 26.374 0
8434 2 0 26.374 1.75827
8464 2 1.75827 28.1323 1.75827
234 4 5.2748 26.374 0
236 4 3.51654 26.374 1.75827
263 4 3.51654 28.1323 0
265 4 5.2748 28.1323 1.75827
8435 2 5.2748 26.374 0
8466 2 3.51654 28.1323 0
238 4 7.03307 26.374 1.75827
267 4 7.03307 28.1323 0
268 4 8.79134 28.1323 1.75827
8438 2 8.79134 26.374 0
8440 2 7.03307 26.374 1.75827
8467 2 7.03307 28.1323 0
8469 2 8.79134 28.1323 1.75827
241 4 10.5496 26.374 1.75827
269 4 10.5496 28.1323 0
8470 2 10.5496 28.1323 0
242 4 15.8244 26.374 0
244 4 14.0661 26.374 1.75827
8471 2 15.8244 28.1323 1.75827
274 4 19.3409 28.1323 1.75827
8442 2 19.3409 26.374 0
276 4 22.8575 28.1323 1.75827
8444 2 22.8575 26.374 0
8474 2 21.0992 28.1323 0
249 4 24.6157 26.374 1.75827
278 4 24.6157 28.1323 0
247 4 26.374 26.374 0
250 4 28.1323 26.374 1.75827
280 4 28.1323 28.1323 0
8475 2 28.1323 28.1323 0
281 4 29.8906 28.1323 1.75827
282 4 31.6488 28.1323 0
8448 2 29.8906 26.374 0
8477 2 29.8906 28.1323 1.75827
8478 2 31.6488 28.1323 0
284 4 33.4071 28.1323 1.75827
8480 2 35.1654 28.1323 0
286 4 38.6819 28.1323 0
8452 2 36.9236 26.374 0
8455 2 38.6819 26.374 1.75827
8482 2 36.9236 28.1323 1.75827
254 4 40.4402 26.374 0
8458 2 42.1984 26.374 1.75827
8484 2 40.4402 28.1323 1.75827
255 4 43.9567 26.374 0
257 4 45.715 26.374 1.75827
289 4 43.9567 28.1323 1.75827
8457 2 43.9567 26.374 0
8487 2 43.9567 28.1323 1.75827
8459 2 47.4732 26.374 0
8461 2 49.2315 26.374 1.75827
8489 2 47.4732 28.1323 1.75827
8491 2 49.2315 28.1323 0
258 4 50.9898 26.374 0
291 4 50.9898 28.1323 1.75827
8460 2 50.9898 26.374 0
292 4 54.5063 28.1323 1.75827
8462 2 54.5063 26.374 0
8493 2 54.5063 28.1323 1.75827
261 4 1.75827 29.8906 0
262 4 0 29.8906 1.75827
8463 2 1.75827 29.8906 0
8465 2 0 29.8906 1.75827
8495 2 0 31.6488 0
264 4 5.2748 29.8906 0
266 4 3.51654 29.8906 1.75827
295 4 3.51654 31.6488 0
8498 2 5.2748 31.6488 1.75827
297 4 8.79134 31.6488 1.75827
8468 2 8.79134 29.8906 0
8499 2 7.03307 31.6488 0
270 4 12.3079 29.8906 0
271 4 10.5496 29.8906 1.75827
299 4 12.3079 31.6488 1.75827
8502 2 12.3079 31.6488 1.75827
272 4 14.0661 29.8906 1.75827
301 4 14.0661 31.6488 0
302 4 15.8244 31.6488 1.75827
8472 2 14.0661 29.8906 1.75827
8504 2 14.0661 31.6488 0
8506 2 15.8244 31.6488 1.75827
273 4 19.3409 29.8906 0
275 4 17.5827 29.8906 1.75827
8473 2 19.3409 29.8906 0
8508 2 17.5827 31.6488 0
277 4 21.0992 29.8906 1.75827
306 4 22.8575 31.6488 1.75827
8510 2 21.0992 31.6488 0
279 4 24.6157 29.8906 1.75827
8513 2 24.6157 31.6488 0
308 4 28.1323 31.6488 0
8476 2 29.8906 29.8906 0
8515 2 29.8906 31.6488 1.75827
283 4 33.4071 29.8906 0
285 4 35.1654 29.8906 1.75827
8479 2 33.4071 29.8906 0
8483 2 35.1654 29.8906 1.75827
8519 2 35.1654 31.6488 0
311 4 36.9236 31.6488 1.75827
8481 2 36.9236 29.8906 0
8485 2 38.6819 29.8906 1.75827
8520 2 36.9236 31.6488 1.75827
287 4 40.4402 29.8906 0
290 4 42.1984 29.8906 1.75827
314 4 42.1984 31.6488 0
8523 2 42.1984 31.6488 0
288 4 43.9567 29.8906 0
316 4 45.715 31.6488 0
8486 2 43.9567 29.8906 0
8490 2 45.715 29.8906 1.75827
318 4 47.4732 31.6488 1.75827
320 4 49.2315 31.6488 0
8488 2 47.4732 29.8906 0
8525 2 49.2315 31.6488 0
8492 2 50.9898 29.8906 0
8526 2 50.9898 31.6488 1.75827
293 4 52.748 29.8906 1.75827
8494 2 52.748 29.8906 1.75827
294 4 1.75827 33.4071 0
323 4 1.75827 35.1654 1.75827
8496 2 1.75827 33.4071 0
8528 2 0 35.1654 0
296 4 5.2748 33.4071 0
324 4 3.51654 35.1654 0
325 4 5.2748 35.1654 1.75827
8497 2 5.2748 33.4071 0
326 4 8.79134 35.1654 1.75827
8500 2 7.03307 33.4071 1.75827
8532 2 7.03307 35.1654 0
298 4 12.3079 33.4071 0
300 4 10.5496 33.4071 1.75827
328 4 12.3079 35.1654 1.75827
8501 2 12.3079 33.4071 0
8503 2 10.5496 33.4071 1.75827
329 4 14.0661 35.1654 0
8505 2 15.8244 33.4071 0
8507 2 14.0661 33.4071 1.75827
8536 2 15.8244 35.1654 1.75827
303 4 19.3409 33.4071 0
304 4 17.5827 33.4071 1.75827
332 4 17.5827 35.1654 0
8509 2 19.3409 33.4071 0
8537 2 17.5827 35.1654 0
8538 2 19.3409 35.1654 1.75827
305 4 22.8575 33.4071 0
334 4 21.0992 35.1654 0
8511 2 22.8575 33.4071 0
8512 2 21.0992 33.4071 1.75827
8540 2 21.0992 35.1654 0
8542 2 22.8575 35.1654 1.75827
307 4 26.374 33.4071 0
338 4 26.374 35.1654 1.75827
339 4 28.1323 35.1654 0
8516 2 28.1323 33.4071 1.75827
8545 2 26.374 35.1654 1.75827
8546 2 28.1323 35.1654 0
309 4 29.8906 33.4071 0
341 4 29.8906 35.1654 1.75827
343 4 31.6488 35.1654 0
8514 2 29.8906 33.4071 0
8518 2 31.6488 33.4071 1.75827
8548 2 29.8906 35.1654 1.75827
312 4 35.1654 33.4071 1.75827
345 4 33.4071 35.1654 1.75827
346 4 35.1654 35.1654 0
8517 2 33.4071 33.4071 0
8521 2 35.1654 33.4071 1.75827
8550 2 33.4071 35.1654 1.75827
310 4 36.9236 33.4071 0
347 4 38.6819 35.1654 0
8552 2 36.9236 35.1654 1.75827
313 4 40.4402 33.4071 0
348 4 42.1984 35.1654 0
8522 2 40.4402 33.4071 0
315 4 43.9567 33.4071 0
319 4 45.715 33.4071 1.75827
349 4 43.9567 35.1654 1.75827
8556 2 45.715 35.1654 0
317 4 47.4732 33.4071 0
352 4 49.2315 35.1654 0
8524 2 47.4732 33.4071 0
8557 2 47.4732 35.1654 1.75827
354 4 50.9898 35.1654 1.75827
321 4 54.5063 33.4071 0
8527 2 54.5063 33.4071 0
322 4 1.75827 36.9236 0
357 4 0 38.6819 0
359 4 1.75827 38.6819 1.75827
8529 2 0 36.9236 1.75827
8561 2 0 38.6819 0
8562 2 1.75827 38.6819 1.75827
361 4 3.51654 38.6819 0
8530 2 5.2748 36.9236 0
8531 2 3.51654 36.9236 1.75827
8563 2 3.51654 38.6819 0
8564 2 5.2748 38.6819 1.75827
327 4 7.03307 36.9236 1.75827
363 4 7.03307 38.6819 0
364 4 8.79134 38.6819 1.75827
8533 2 8.79134 36.9236 0
8565 2 7.03307 38.6819 0
8566 2 8.79134 38.6819 1.75827
365 4 10.5496 38.6819 0
366 4 12.3079 38.6819 1.75827
8534 2 12.3079 36.9236 0
8569 2 12.3079 38.6819 1.75827
330 4 15.8244 36.9236 0
331 4 14.0661 36.9236 1.75827
368 4 15.8244 38.6819 1.75827
8535 2 15.8244 36.9236 0
8570 2 15.8244 38.6819 1.75827
333 4 19.3409 36.9236 0
370 4 19.3409 38.6819 1.75827
8539 2 17.5827 36.9236 1.75827
335 4 22.8575 36.9236 0
336 4 21.0992 36.9236 1.75827
372 4 22.8575 38.6819 1.75827
8541 2 22.8575 36.9236 0
8543 2 21.0992 36.9236 1.75827
8573 2 22.8575 38.6819 1.75827
374 4 24.6157 38.6819 0
8575 2 24.6157 38.6819 0
337 4 26.374 36.9236 0
342 4 28.1323 36.9236 1.75827
376 4 26.374 38.6819 1.75827
378 4 28.1323 38.6819 0
8544 2 26.374 36.9236 0
8549 2 28.1323 36.9236 1.75827
8576 2 26.374 38.6819 1.75827
340 4 29.8906 36.9236 0
379 4 29.8906 38.6819 1.75827
380 4 31.6488 38.6819 0
8547 2 29.8906 36.9236 0
8551 2 31.6488 36.9236 1.75827
8578 2 31.6488 38.6819 0
344 4 33.4071 36.9236 0
381 4 33.4071 38.6819 1.75827
8553 2 35.1654 36.9236 1.75827
383 4 36.9236 38.6819 1.75827
350 4 42.1984 36.9236 1.75827
385 4 40.4402 38.6819 1.75827
8555 2 42.1984 36.9236 1.75827
8581 2 40.4402 38.6819 1.75827
387 4 45.715 38.6819 0
8554 2 43.9567 36.9236 0
351 4 47.4732 36.9236 0
390 4 49.2315 38.6819 0
8582 2 47.4732 38.6819 1.75827
353 4 50.9898 36.9236 0
391 4 50.9898 38.6819 1.75827
8558 2 50.9898 36.9236 0
8584 2 50.9898 38.6819 1.75827
355 4 54.5063 36.9236 0
356 4 52.748 36.9236 1.75827
8559 2 54.5063 36.9236 0
8560 2 52.748 36.9236 1.75827
8586 2 54.5063 38.6819 1.75827
358 4 1.75827 40.4402 0
360 4 0 40.4402 1.75827
362 4 3.51654 40.4402 1.75827
395 4 3.51654 42.1984 0
8591 2 5.2748 42.1984 1.75827
397 4 7.03307 42.1984 0
399 4 8.79134 42.1984 1.75827
8567 2 7.03307 40.4402 1.75827
8593 2 7.03307 42.1984 0
8595 2 8.79134 42.1984 1.75827
367 4 10.5496 40.4402 1.75827
401 4 12.3079 42.1984 1.75827
8568 2 12.3079 40.4402 0
402 4 14.0661 42.1984 0
8597 2 15.8244 42.1984 1.75827
369 4 19.3409 40.4402 0
371 4 17.5827 40.4402 1.75827
8571 2 19.3409 40.4402 0
8572 2 17.5827 40.4402 1.75827
8598 2 17.5827 42.1984 0
8599 2 19.3409 42.1984 1.75827
373 4 21.0992 40.4402 1.75827
406 4 21.0992 42.1984 0
8574 2 21.0992 40.4402 1.75827
8600 2 21.0992 42.1984 0
8601 2 22.8575 42.1984 1.75827
377 4 24.6157 40.4402 1.75827
407 4 24.6157 42.1984 0
8577 2 24.6157 40.4402 1.75827
8602 2 24.6157 42.1984 0
375 4 26.374 40.4402 0
8579 2 31.6488 40.4402 1.75827
8605 2 29.8906 42.1984 1.75827
8607 2 31.6488 42.1984 0
408 4 33.4071 42.1984 1.75827
410 4 35.1654 42.1984 0
8608 2 33.4071 42.1984 1.75827
8610 2 35.1654 42.1984 0
382 4 36.9236 40.4402 0
412 4 36.9236 42.1984 1.75827
413 4 38.6819 42.1984 0
8580 2 36.9236 40.4402 0
8612 2 36.9236 42.1984 1.75827
8614 2 38.6819 42.1984 0
384 4 40.4402 40.4402 0
386 4 42.1984 40.4402 1.75827
415 4 40.4402 42.1984 1.75827
8615 2 40.4402 42.1984 1.75827
8616 2 42.1984 42.1984 0
389 4 45.715 40.4402 1.75827
418 4 45.715 42.1984 0
8617 2 43.9567 42.1984 1.75827
8618 2 45.715 42.1984 0
388 4 47.4732 40.4402 0
419 4 47.4732 42.1984 1.75827
420 4 49.2315 42.1984 0
8585 2 49.2315 40.4402 1.75827
8583 2 50.9898 40.4402 0
392 4 54.5063 40.4402 0
393 4 52.748 40.4402 1.75827
422 4 52.748 42.1984 0
8587 2 52.748 40.4402 1.75827
8622 2 52.748 42.1984 0
394 4 0 43.9567 1.75827
8588 2 1.75827 43.9567 0
8589 2 0 43.9567 1.75827
8623 2 0 45.715 0
8624 2 1.75827 45.715 1.75827
396 4 3.51654 43.9567 1.75827
426 4 3.51654 45.715 0
8590 2 5.2748 43.9567 0
8592 2 3.51654 43.9567 1.75827
8625 2 5.2748 45.715 1.75827
398 4 8.79134 43.9567 0
400 4 7.03307 43.9567 1.75827
8594 2 8.79134 43.9567 0
8627 2 7.03307 45.715 0
8628 2 8.79134 45.715 1.75827
429 4 10.5496 45.715 0
8596 2 12.3079 43.9567 0
8631 2 12.3079 45.715 1.75827
403 4 15.8244 43.9567 0
404 4 14.0661 43.9567 1.75827
432 4 14.0661 45.715 0
405 4 17.5827 43.9567 1.75827
435 4 17.5827 45.715 0
8635 2 19.3409 45.715 1.75827
436 4 21.0992 45.715 0
438 4 22.8575 45.715 1.75827
8636 2 21.0992 45.715 0
8603 2 24.6157 43.9567 1.75827
440 4 26.374 45.715 1.75827
441 4 28.1323 45.715 0
8606 2 28.1323 43.9567 1.75827
8638 2 26.374 45.715 1.75827
409 4 31.6488 43.9567 1.75827
8604 2 29.8906 43.9567 0
8609 2 31.6488 43.9567 1.75827
443 4 33.4071 45.715 1.75827
445 4 35.1654 45.715 0
8613 2 35.1654 43.9567 1.75827
8641 2 33.4071 45.715 1.75827
411 4 36.9236 43.9567 0
448 4 38.6819 45.715 0
8611 2 36.9236 43.9567 0
8644 2 38.6819 45.715 0
414 4 40.4402 43.9567 0
417 4 42.1984 43.9567 1.75827
449 4 40.4402 45.715 1.75827
450 4 42.1984 45.715 0
416 4 43.9567 43.9567 0
452 4 43.9567 45.715 1.75827
454 4 45.715 45.715 0
8620 2 45.715 43.9567 1.75827
8647 2 43.9567 45.715 1.75827
8649 2 45.715 45.715 0
456 4 47.4732 45.715 1.75827
8619 2 47.4732 43.9567 0
8621 2 49.2315 43.9567 1.75827
8651 2 47.4732 45.715 1.75827
8652 2 49.2315 45.715 0
421 4 50.9898 43.9567 0
457 4 50.9898 45.715 1.75827
423 4 54.5063 43.9567 0
424 4 52.748 43.9567 1.75827
459 4 52.748 45.715 0
460 4 54.5063 45.715 1.75827
8655 2 52.748 45.715 0
8657 2 54.5063 45.715 1.75827
425 4 0 47.4732 1.75827
8658 2 0 49.2315 0
8660 2 1.75827 49.2315 1.75827
427 4 3.51654 47.4732 1.75827
8626 2 3.51654 47.4732 1.75827
428 4 8.79134 47.4732 0
463 4 8.79134 49.2315 1.75827
8629 2 7.03307 47.4732 1.75827
8662 2 7.03307 49.2315 0
430 4 12.3079 47.4732 0
431 4 10.5496 47.4732 1.75827
464 4 10.5496 49.2315 0
8630 2 12.3079 47.4732 0
8632 2 10.5496 47.4732 1.75827
8665 2 10.5496 49.2315 0
8667 2 12.3079 49.2315 1.75827
433 4 15.8244 47.4732 0
434 4 14.0661 47.4732 1.75827
465 4 14.0661 49.2315 0
8633 2 15.8244 47.4732 0
8634 2 14.0661 47.4732 1.75827
8668 2 14.0661 49.2315 0
467 4 17.5827 49.2315 0
468 4 19.3409 49.2315 1.75827
8669 2 17.5827 49.2315 0
437 4 22.8575 47.4732 0
470 4 22.8575 49.2315 1.75827
8637 2 22.8575 47.4732 0
8671 2 21.0992 49.2315 0
471 4 24.6157 49.2315 0
8639 2 24.6157 47.4732 1.75827
439 4 26.374 47.4732 0
473 4 26.374 49.2315 1.75827
8640 2 28.1323 47.4732 1.75827
8673 2 26.374 49.2315 1.75827
8674 2 28.1323 49.2315 0
444 4 31.6488 47.4732 1.75827
475 4 29.8906 49.2315 1.75827
8676 2 31.6488 49.2315 0
442 4 33.4071 47.4732 0
447 4 35.1654 47.4732 1.75827
477 4 33.4071 49.2315 1.75827
478 4 35.1654 49.2315 0
8643 2 35.1654 47.4732 1.75827
8677 2 33.4071 49.2315 1.75827
446 4 36.9236 47.4732 0
479 4 36.9236 49.2315 1.75827
8642 2 36.9236 47.4732 0
8646 2 38.6819 47.4732 1.75827
8680 2 36.9236 49.2315 1.75827
453 4 42.1984 47.4732 1.75827
481 4 40.4402 49.2315 1.75827
483 4 42.1984 49.2315 0
8645 2 40.4402 47.4732 0
8648 2 42.1984 47.4732 1.75827
451 4 43.9567 47.4732 0
484 4 43.9567 49.2315 1.75827
8684 2 45.715 49.2315 0
455 4 47.4732 47.4732 0
458 4 49.2315 47.4732 1.75827
8650 2 47.4732 47.4732 0
8654 2 49.2315 47.4732 1.75827
8687 2 49.2315 49.2315 0
488 4 50.9898 49.2315 1.75827
8653 2 50.9898 47.4732 0
489 4 52.748 49.2315 0
491 4 54.5063 49.2315 1.75827
8656 2 54.5063 47.4732 0
8659 2 1.75827 50.9898 0
461 4 5.2748 50.9898 0
8661 2 3.51654 50.9898 1.75827
462 4 8.79134 50.9898 0
8663 2 8.79134 50.9898 0
8664 2 7.03307 50.9898 1.75827
8666 2 12.3079 50.9898 0
466 4 14.0661 50.9898 1.75827
469 4 17.5827 50.9898 1.75827
8670 2 19.3409 50.9898 0
8672 2 21.0992 50.9898 1.75827
474 4 24.6157 50.9898 1.75827
472 4 26.374 50.9898 0
8675 2 29.8906 50.9898 0
8678 2 31.6488 50.9898 1.75827
476 4 33.4071 50.9898 0
8681 2 35.1654 50.9898 1.75827
482 4 38.6819 50.9898 1.75827
8679 2 36.9236 50.9898 0
8682 2 38.6819 50.9898 1.75827
480 4 40.4402 50.9898 0
8683 2 42.1984 50.9898 1.75827
486 4 45.715 50.9898 1.75827
8686 2 45.715 50.9898 1.75827
485 4 47.4732 50.9898 0
8685 2 47.4732 50.9898 0
487 4 50.9898 50.9898 0
8688 2 50.9898 50.9898 0
490 4 54.5063 50.9898 0
492 4 1.75827 54.5063 0
8689 2 0 52.748 0
8690 2 1.75827 54.5063 0
8691 2 0 54.5063 1.75827
493 4 3.51654 52.748 0
494 4 5.2748 54.5063 0
495 4 3.51654 54.5063 1.75827
8692 2 3.51654 52.748 0
8693 2 5.2748 52.748 1.75827
8694 2 3.51654 54.5063 1.75827
496 4 7.03307 52.748 0
497 4 8.79134 52.748 1.75827
8695 2 8.79134 54.5063 0
8696 2 7.03307 54.5063 1.75827
498 4 12.3079 54.5063 0
8697 2 10.5496 52.748 0
8698 2 12.3079 52.748 1.75827
8699 2 14.0661 52.748 0
8700 2 15.8244 54.5063 0
8701 2 15.8244 52.748 1.75827
8702 2 14.0661 54.5063 1.75827
499 4 19.3409 54.5063 0
500 4 19.3409 52.748 1.75827
501 4 17.5827 54.5063 1.75827
8703 2 17.5827 52.748 0
502 4 21.0992 52.748 0
8704 2 22.8575 54.5063 0
8705 2 22.8575 52.748 1.75827
8706 2 21.0992 54.5063 1.75827
503 4 24.6157 52.748 0
8707 2 24.6157 52.748 0
8709 2 24.6157 54.5063 1.75827
504 4 26.374 54.5063 0
505 4 26.374 52.748 1.75827
508 4 28.1323 54.5063 1.75827
8708 2 26.374 52.748 1.75827
8711 2 28.1323 54.5063 1.75827
506 4 29.8906 54.5063 0
507 4 29.8906 52.748 1.75827
509 4 31.6488 52.748 0
8710 2 29.8906 54.5063 0
8712 2 31.6488 52.748 0
8714 2 31.6488 54.5063 1.75827
510 4 33.4071 54.5063 0
511 4 33.4071 52.748 1.75827
512 4 35.1654 52.748 0
8713 2 33.4071 52.748 1.75827
8715 2 35.1654 52.748 0
8718 2 35.1654 54.5063 1.75827
513 4 38.6819 52.748 0
8716 2 36.9236 54.5063 0
8717 2 36.9236 52.748 1.75827
8719 2 38.6819 52.748 0
514 4 40.4402 52.748 1.75827
516 4 42.1984 54.5063 1.75827
8720 2 40.4402 54.5063 0
515 4 43.9567 52.748 1.75827
517 4 45.715 52.748 0
519 4 45.715 54.5063 1.75827
8721 2 43.9567 52.748 1.75827
8722 2 45.715 52.748 0
8725 2 45.715 54.5063 1.75827
518 4 47.4732 52.748 1.75827
8723 2 47.4732 54.5063 0
8724 2 47.4732 52.748 1.75827
8726 2 50.9898 54.5063 0
8727 2 50.9898 52.748 1.75827
520 4 54.5063 54.5063 0
521 4 54.5063 52.748 1.75827
8728 2 54.5063 54.5063 0
8729 2 54.5063 52.748 1.75827
8730 2 1.75827 1.75827 3.51654
8731 2 0 1.75827 5.2748
522 4 5.2748 0 5.2748
523 4 3.51654 1.75827 5.2748
8732 2 5.2748 1.75827 3.51654
8733 2 5.2748 0 5.2748
8734 2 3.51654 1.75827 5.2748
524 4 8.79134 0 5.2748
8735 2 7.03307 0 3.51654
8736 2 8.79134 0 5.2748
8737 2 7.03307 1.75827 5.2748
525 4 12.3079 1.75827 3.51654
526 4 12.3079 0 5.2748
527 4 10.5496 1.75827 5.2748
8738 2 12.3079 0 5.2748
8739 2 10.5496 1.75827 5.2748
528 4 14.0661 0 3.51654
529 4 15.8244 0 5.2748
8740 2 14.0661 0 3.51654
8741 2 14.0661 1.75827 5.2748
530 4 19.3409 0 5.2748
531 4 17.5827 1.75827 5.2748
8742 2 17.5827 1.75827 5.2748
532 4 22.8575 1.75827 3.51654
533 4 22.8575 0 5.2748
8743 2 21.0992 0 3.51654
8744 2 22.8575 1.75827 3.51654
8745 2 21.0992 1.75827 5.2748
534 4 24.6157 0 3.51654
535 4 24.6157 1.75827 5.2748
8746 2 24.6157 0 3.51654
536 4 28.1323 0 3.51654
539 4 28.1323 1.75827 5.2748
8747 2 26.374 0 5.2748
8748 2 28.1323 0 3.51654
8749 2 28.1323 1.75827 5.2748
537 4 29.8906 1.75827 3.51654
538 4 29.8906 0 5.2748
8752 2 31.6488 1.75827 5.2748
540 4 35.1654 0 3.51654
8750 2 33.4071 1.75827 3.51654
8751 2 33.4071 0 5.2748
8753 2 35.1654 1.75827 5.2748
541 4 38.6819 0 3.51654
542 4 40.4402 1.75827 3.51654
545 4 42.1984 1.75827 5.2748
8754 2 40.4402 1.75827 3.51654
8755 2 40.4402 0 5.2748
8756 2 42.1984 1.75827 5.2748
543 4 43.9567 1.75827 3.51654
544 4 43.9567 0 5.2748
546 4 45.715 0 3.51654
549 4 45.715 1.75827 5.2748
8757 2 45.715 0 3.51654
547 4 47.4732 1.75827 3.51654
548 4 47.4732 0 5.2748