ITEM: TIMESTEP
0
ITEM: NUMBER OF ATOMS
16384
ITEM: BOX BOUNDS pp pp pp
0.0000000000000000e+00 2.9223178421272799e+01
0.0000000000000000e+00 2.9223178421272799e+01
0.0000000000000000e+00 2.9223178421272799e+01
ITEM: ATOMS id type x y z
1 4 0 0 0
2 4 0.920472 0.920472 0
3 4 2.76142 0.920472 0
4 4 2.76142 0 0.920472
5 4 1.84094 0.920472 0.920472
32 4 0.920472 1.84094 0.920472
33 4 0 2.76142 0.920472
34 4 2.76142 1.84094 0.920472
35 4 1.84094 2.76142 0.920472
522 4 2.76142 0 2.76142
523 4 1.84094 0.920472 2.76142
553 4 0.920472 2.76142 1.84094
554 4 0 2.76142 2.76142
555 4 2.76142 2.76142 1.84094
556 4 2.76142 1.84094 2.76142
557 4 1.84094 2.76142 2.76142
8193 2 0 0 0
8194 2 0.920472 0.920472 0
8195 2 0.920472 0 0.920472
8196 2 0 0.920472 0.920472
8197 2 2.76142 0 0.920472
8226 2 0 1.84094 0
8227 2 0.920472 2.76142 0
8228 2 2.76142 1.84094 0.920472
8730 2 0.920472 0.920472 1.84094
8731 2 0 0.920472 2.76142
8732 2 2.76142 0.920472 1.84094
8733 2 2.76142 0 2.76142
8734 2 1.84094 0.920472 2.76142
8760 2 1.84094 1.84094 1.84094
8761 2 2.76142 2.76142 1.84094
6 4 4.60236 0 0.920472
7 4 3.68189 0.920472 0.920472
8 4 6.44331 0.920472 0
9 4 6.44331 0 0.920472
10 4 5.52283 0.920472 0.920472
36 4 3.68189 1.84094 0
37 4 4.60236 2.76142 0
38 4 4.60236 1.84094 0.920472
39 4 3.68189 2.76142 0.920472
40 4 6.44331 2.76142 0
41 4 6.44331 1.84094 0.920472
42 4 5.52283 2.76142 0.920472
524 4 4.60236 0 2.76142
525 4 6.44331 0.920472 1.84094
526 4 6.44331 0 2.76142
527 4 5.52283 0.920472 2.76142
558 4 3.68189 1.84094 1.84094
559 4 4.60236 1.84094 2.76142
560 4 3.68189 2.76142 2.76142
561 4 5.52283 1.84094 1.84094
562 4 6.44331 2.76142 1.84094
8198 2 3.68189 0 0
8199 2 4.60236 0.920472 0
8200 2 6.44331 0.920472 0
8229 2 3.68189 1.84094 0
8230 2 4.60236 2.76142 0
8735 2 3.68189 0 1.84094
8736 2 4.60236 0 2.76142
8737 2 3.68189 0.920472 2.76142
8738 2 6.44331 0 2.76142
8739 2 5.52283 0.920472 2.76142
8762 2 4.60236 2.76142 1.84094
8763 2 4.60236 1.84094 2.76142
8764 2 5.52283 2.76142 2.76142
11 4 7.36378 0 0
12 4 7.36378 0.920472 0.920472
43 4 7.36378 1.84094 0
44 4 8.28425 2.76142 0
45 4 7.36378 2.76142 0.920472
46 4 10.1252 1.84094 0.920472
47 4 9.20472 2.76142 0.920472
528 4 7.36378 0 1.84094
529 4 8.28425 0 2.76142
530 4 10.1252 0 2.76142
531 4 9.20472 0.920472 2.76142
563 4 8.28425 2.76142 1.84094
564 4 8.28425 1.84094 2.76142
565 4 9.20472 1.84094 1.84094
566 4 10.1252 2.76142 1.84094
567 4 10.1252 1.84094 2.76142
8201 2 8.28425 0 0.920472
8202 2 10.1252 0 0.920472
8203 2 9.20472 0.920472 0.920472
8231 2 7.36378 1.84094 0
8232 2 8.28425 1.84094 0.920472
8233 2 10.1252 2.76142 0
8740 2 7.36378 0 1.84094
8741 2 7.36378 0.920472 2.76142
8742 2 9.20472 0.920472 2.76142
8765 2 8.28425 2.76142 1.84094
8766 2 8.28425 1.84094 2.76142
8767 2 7.36378 2.76142 2.76142
8768 2 10.1252 2.76142 1.84094
8769 2 9.20472 2.76142 2.76142
13 4 11.0457 0 0
14 4 12.8866 0 0
15 4 13.8071 0 0.920472
16 4 12.8866 0.920472 0.920472
48 4 11.0457 1.84094 0
49 4 11.9661 2.76142 0
50 4 11.9661 1.84094 0.920472
51 4 11.0457 2.76142 0.920472
52 4 12.8866 2.76142 0.920472
532 4 11.9661 0.920472 1.84094
533 4 11.9661 0 2.76142
534 4 12.8866 0 1.84094
535 4 12.8866 0.920472 2.76142
568 4 11.0457 1.84094 1.84094
569 4 11.9661 2.76142 1.84094
570 4 11.9661 1.84094 2.76142
8204 2 11.0457 0 0
8205 2 11.9661 0.920472 0
8206 2 11.0457 0.920472 0.920472
8207 2 12.8866 0 0
8208 2 13.8071 0 0.920472
8234 2 11.9661 2.76142 0
8235 2 11.9661 1.84094 0.920472
8236 2 12.8866 1.84094 0
8237 2 12.8866 2.76142 0.920472
8743 2 11.0457 0 1.84094
8744 2 11.9661 0.920472 1.84094
8745 2 11.0457 0.920472 2.76142
8746 2 12.8866 0 1.84094
8747 2 13.8071 0 2.76142
8770 2 11.0457 1.84094 1.84094
8771 2 11.9661 2.76142 1.84094
8772 2 11.0457 2.76142 2.76142
8773 2 12.8866 1.84094 1.84094
8774 2 13.8071 1.84094 2.76142
8775 2 12.8866 2.76142 2.76142
17 4 14.7276 0 0
18 4 15.648 0.920472 0
19 4 15.648 0 0.920472
20 4 17.489 0.920472 0
21 4 17.489 0 0.920472
53 4 14.7276 1.84094 0
54 4 15.648 2.76142 0
55 4 15.648 1.84094 0.920472
56 4 14.7276 2.76142 0.920472
57 4 16.5685 1.84094 0
58 4 17.489 2.76142 0
59 4 16.5685 2.76142 0.920472
536 4 14.7276 0 1.84094
537 4 15.648 0.920472 1.84094
538 4 15.648 0 2.76142
539 4 14.7276 0.920472 2.76142
571 4 14.7276 1.84094 1.84094
572 4 15.648 2.76142 1.84094
573 4 15.648 1.84094 2.76142
574 4 14.7276 2.76142 2.76142
575 4 16.5685 1.84094 1.84094
576 4 17.489 2.76142 1.84094
577 4 16.5685 2.76142 2.76142
8209 2 15.648 0.920472 0
8210 2 17.489 0.920472 0
8211 2 17.489 0 0.920472
8212 2 16.5685 0.920472 0.920472
8238 2 14.7276 1.84094 0
8239 2 15.648 2.76142 0
8240 2 17.489 1.84094 0.920472
8241 2 16.5685 2.76142 0.920472
8748 2 14.7276 0 1.84094
8749 2 14.7276 0.920472 2.76142
8750 2 17.489 0.920472 1.84094
8751 2 17.489 0 2.76142
8752 2 16.5685 0.920472 2.76142
8776 2 15.648 2.76142 1.84094
8777 2 14.7276 2.76142 2.76142
8778 2 16.5685 1.84094 1.84094
22 4 19.3299 0.920472 0
23 4 20.2504 0 0
24 4 21.1709 0.920472 0
60 4 19.3299 1.84094 0.920472
61 4 18.4094 2.76142 0.920472
62 4 21.1709 1.84094 0.920472
540 4 18.4094 0 1.84094
541 4 20.2504 0 1.84094
542 4 21.1709 0.920472 1.84094
578 4 18.4094 2.76142 2.76142
579 4 21.1709 2.76142 1.84094
580 4 21.1709 1.84094 2.76142
581 4 20.2504 2.76142 2.76142
8213 2 18.4094 0 0
8214 2 19.3299 0 0.920472
8215 2 18.4094 0.920472 0.920472
8216 2 21.1709 0.920472 0
8217 2 20.2504 0.920472 0.920472
8242 2 19.3299 1.84094 0.920472
8243 2 20.2504 1.84094 0
8244 2 21.1709 2.76142 0
8753 2 18.4094 0.920472 2.76142
8754 2 21.1709 0.920472 1.84094
8755 2 21.1709 0 2.76142
8779 2 19.3299 1.84094 2.76142
8780 2 18.4094 2.76142 2.76142
8781 2 21.1709 1.84094 2.76142
8782 2 20.2504 2.76142 2.76142
25 4 23.0118 0.920472 0
26 4 24.8528 0.920472 0
63 4 22.0913 1.84094 0
64 4 23.0118 2.76142 0
65 4 23.0118 1.84094 0.920472
66 4 24.8528 2.76142 0
67 4 24.8528 1.84094 0.920472
543 4 23.0118 0.920472 1.84094
544 4 23.0118 0 2.76142
545 4 22.0913 0.920472 2.76142
546 4 23.9323 0 1.84094
547 4 24.8528 0.920472 1.84094
548 4 24.8528 0 2.76142
549 4 23.9323 0.920472 2.76142
582 4 23.0118 2.76142 1.84094
583 4 23.9323 1.84094 1.84094
584 4 24.8528 2.76142 1.84094
8218 2 22.0913 0 0
8219 2 23.0118 0.920472 0
8220 2 22.0913 0.920472 0.920472
8221 2 23.9323 0 0
8222 2 24.8528 0 0.920472
8223 2 23.9323 0.920472 0.920472
8245 2 22.0913 1.84094 0
8246 2 23.0118 1.84094 0.920472
8247 2 23.9323 1.84094 0
8248 2 24.8528 2.76142 0
8249 2 24.8528 1.84094 0.920472
8250 2 23.9323 2.76142 0.920472
8756 2 22.0913 0.920472 2.76142
8757 2 23.9323 0 1.84094
8758 2 24.8528 0 2.76142
8783 2 22.0913 1.84094 1.84094
8784 2 23.0118 2.76142 1.84094
8785 2 22.0913 2.76142 2.76142
8786 2 23.9323 2.76142 2.76142
27 4 25.7732 0 0
28 4 26.6937 0 0.920472
29 4 25.7732 0.920472 0.920472
30 4 27.6142 0 0
31 4 28.5346 0.920472 0
68 4 25.7732 1.84094 0
69 4 26.6937 2.76142 0
70 4 27.6142 1.84094 0
71 4 28.5346 2.76142 0
72 4 27.6142 2.76142 0.920472
550 4 25.7732 0.920472 2.76142
551 4 27.6142 0 1.84094
552 4 27.6142 0.920472 2.76142
585 4 26.6937 1.84094 2.76142
586 4 28.5346 2.76142 1.84094
8224 2 26.6937 0 0.920472
8225 2 27.6142 0 0
8251 2 25.7732 1.84094 0
8252 2 27.6142 1.84094 0
8253 2 28.5346 2.76142 0
8254 2 28.5346 1.84094 0.920472
8255 2 27.6142 2.76142 0.920472
8759 2 28.5346 0.920472 1.84094
8787 2 25.7732 1.84094 1.84094
8788 2 26.6937 1.84094 2.76142
8789 2 28.5346 2.76142 1.84094
73 4 0.920472 3.68189 0.920472
74 4 2.76142 3.68189 0.920472
75 4 1.84094 4.60236 0.920472
98 4 0.920472 6.44331 0
99 4 0.920472 5.52283 0.920472
100 4 0 6.44331 0.920472
101 4 1.84094 5.52283 0
102 4 2.76142 6.44331 0
103 4 2.76142 5.52283 0.920472
587 4 0 3.68189 1.84094
588 4 0.920472 4.60236 1.84094
589 4 0.920472 3.68189 2.76142
590 4 2.76142 4.60236 1.84094
591 4 1.84094 4.60236 2.76142
611 4 0 6.44331 2.76142
612 4 2.76142 6.44331 1.84094
8256 2 0.920472 3.68189 0.920472
8257 2 0 4.60236 0.920472
8258 2 1.84094 3.68189 0
8259 2 2.76142 4.60236 0
8295 2 0 5.52283 0
8296 2 1.84094 5.52283 0
8297 2 2.76142 6.44331 0
8298 2 2.76142 5.52283 0.920472
8790 2 0 3.68189 1.84094
8791 2 0.920472 3.68189 2.76142
8792 2 0 4.60236 2.76142
8793 2 1.84094 3.68189 1.84094
8794 2 2.76142 4.60236 1.84094
8795 2 1.84094 4.60236 2.76142
8824 2 0 5.52283 1.84094
8825 2 0.920472 6.44331 1.84094
8826 2 1.84094 5.52283 1.84094
76 4 5.52283 3.68189 0
77 4 6.44331 3.68189 0.920472
104 4 3.68189 5.52283 0
105 4 4.60236 5.52283 0.920472
106 4 6.44331 6.44331 0
107 4 6.44331 5.52283 0.920472
613 4 3.68189 5.52283 1.84094
614 4 4.60236 6.44331 1.84094
615 4 3.68189 6.44331 2.76142
616 4 6.44331 6.44331 1.84094
617 4 5.52283 6.44331 2.76142
8260 2 3.68189 3.68189 0
8261 2 4.60236 3.68189 0.920472
8262 2 3.68189 4.60236 0.920472
8263 2 5.52283 3.68189 0
8264 2 5.52283 4.60236 0.920472
8299 2 3.68189 5.52283 0
8300 2 4.60236 6.44331 0
8301 2 5.52283 5.52283 0
8302 2 6.44331 6.44331 0
8303 2 5.52283 6.44331 0.920472
8796 2 4.60236 3.68189 2.76142
8797 2 3.68189 4.60236 2.76142
8798 2 6.44331 4.60236 1.84094
8799 2 5.52283 4.60236 2.76142
8827 2 3.68189 5.52283 1.84094
8828 2 4.60236 6.44331 1.84094
8829 2 6.44331 6.44331 1.84094
8830 2 5.52283 6.44331 2.76142
78 4 8.28425 3.68189 0.920472
79 4 10.1252 4.60236 0
80 4 10.1252 3.68189 0.920472
108 4 9.20472 5.52283 0
109 4 10.1252 6.44331 0
110 4 10.1252 5.52283 0.920472
592 4 7.36378 3.68189 1.84094
593 4 8.28425 3.68189 2.76142
594 4 9.20472 3.68189 1.84094
595 4 10.1252 4.60236 1.84094
618 4 9.20472 5.52283 1.84094
619 4 10.1252 5.52283 2.76142
8265 2 7.36378 3.68189 0
8266 2 8.28425 4.60236 0
8267 2 8.28425 3.68189 0.920472
8268 2 9.20472 3.68189 0
8269 2 10.1252 4.60236 0
8270 2 10.1252 3.68189 0.920472
8304 2 8.28425 6.44331 0
8305 2 8.28425 5.52283 0.920472
8306 2 10.1252 6.44331 0
8800 2 7.36378 4.60236 2.76142
8801 2 10.1252 4.60236 1.84094
8802 2 10.1252 3.68189 2.76142
8831 2 7.36378 5.52283 1.84094
8832 2 7.36378 6.44331 2.76142
81 4 11.0457 3.68189 0
82 4 11.9661 3.68189 0.920472
83 4 12.8866 4.60236 0.920472
111 4 11.0457 5.52283 0
112 4 11.9661 5.52283 0.920472
113 4 11.0457 6.44331 0.920472
114 4 12.8866 5.52283 0
115 4 13.8071 6.44331 0
116 4 13.8071 5.52283 0.920472
117 4 12.8866 6.44331 0.920472
596 4 11.0457 3.68189 1.84094
597 4 11.9661 3.68189 2.76142
598 4 12.8866 3.68189 1.84094
599 4 13.8071 4.60236 1.84094
600 4 13.8071 3.68189 2.76142
620 4 11.9661 6.44331 1.84094
621 4 13.8071 6.44331 1.84094
622 4 12.8866 6.44331 2.76142
8271 2 11.9661 4.60236 0
8272 2 11.0457 4.60236 0.920472
8273 2 12.8866 4.60236 0.920472
8307 2 11.9661 6.44331 0
8308 2 11.0457 6.44331 0.920472
8309 2 12.8866 5.52283 0
8310 2 13.8071 5.52283 0.920472
8311 2 12.8866 6.44331 0.920472
8803 2 11.0457 4.60236 2.76142
8804 2 12.8866 3.68189 1.84094
8833 2 11.9661 6.44331 1.84094
8834 2 13.8071 6.44331 1.84094
84 4 15.648 3.68189 0.920472
85 4 17.489 4.60236 0
86 4 16.5685 4.60236 0.920472
118 4 14.7276 6.44331 0.920472
119 4 16.5685 5.52283 0
120 4 17.489 6.44331 0
121 4 17.489 5.52283 0.920472
122 4 16.5685 6.44331 0.920472
601 4 15.648 4.60236 1.84094
602 4 14.7276 4.60236 2.76142
603 4 16.5685 3.68189 1.84094
623 4 14.7276 5.52283 1.84094
624 4 15.648 6.44331 1.84094
625 4 14.7276 6.44331 2.76142
626 4 16.5685 5.52283 1.84094
627 4 17.489 5.52283 2.76142
8274 2 14.7276 3.68189 0
8275 2 15.648 4.60236 0
8276 2 14.7276 4.60236 0.920472
8277 2 16.5685 3.68189 0
8278 2 17.489 4.60236 0
8279 2 17.489 3.68189 0.920472
8280 2 16.5685 4.60236 0.920472
8312 2 14.7276 5.52283 0
8313 2 15.648 6.44331 0
8314 2 16.5685 5.52283 0
8315 2 17.489 5.52283 0.920472
8805 2 15.648 4.60236 1.84094
8806 2 15.648 3.68189 2.76142
8807 2 14.7276 4.60236 2.76142
8808 2 16.5685 4.60236 2.76142
8835 2 14.7276 5.52283 1.84094
8836 2 15.648 6.44331 1.84094
8837 2 14.7276 6.44331 2.76142
8838 2 17.489 6.44331 1.84094
87 4 19.3299 3.68189 0.920472
88 4 18.4094 4.60236 0.920472
89 4 21.1709 3.68189 0.920472
90 4 20.2504 4.60236 0.920472
123 4 18.4094 5.52283 0
124 4 19.3299 5.52283 0.920472
604 4 20.2504 3.68189 1.84094
628 4 18.4094 5.52283 1.84094
629 4 19.3299 6.44331 1.84094
630 4 18.4094 6.44331 2.76142
631 4 21.1709 5.52283 2.76142
632 4 20.2504 6.44331 2.76142
8281 2 18.4094 3.68189 0
8282 2 19.3299 4.60236 0
8283 2 19.3299 3.68189 0.920472
8284 2 21.1709 4.60236 0
8316 2 18.4094 5.52283 0
8317 2 20.2504 5.52283 0
8318 2 20.2504 6.44331 0.920472
8809 2 19.3299 4.60236 1.84094
8810 2 19.3299 3.68189 2.76142
8811 2 18.4094 4.60236 2.76142
8812 2 20.2504 3.68189 1.84094
8813 2 21.1709 4.60236 1.84094
8814 2 21.1709 3.68189 2.76142
8815 2 20.2504 4.60236 2.76142
8839 2 18.4094 5.52283 1.84094
8840 2 19.3299 6.44331 1.84094
8841 2 19.3299 5.52283 2.76142
8842 2 18.4094 6.44331 2.76142
8843 2 21.1709 6.44331 1.84094
8844 2 20.2504 6.44331 2.76142
91 4 23.0118 4.60236 0
92 4 22.0913 4.60236 0.920472
93 4 23.9323 4.60236 0.920472
125 4 23.0118 6.44331 0
126 4 23.0118 5.52283 0.920472
127 4 22.0913 6.44331 0.920472
128 4 23.9323 5.52283 0
129 4 24.8528 5.52283 0.920472
605 4 22.0913 4.60236 2.76142
606 4 24.8528 3.68189 2.76142
607 4 23.9323 4.60236 2.76142
633 4 22.0913 5.52283 1.84094
634 4 23.9323 6.44331 2.76142
8285 2 22.0913 3.68189 0
8286 2 24.8528 4.60236 0
8287 2 24.8528 3.68189 0.920472
8288 2 23.9323 4.60236 0.920472
8319 2 24.8528 5.52283 0.920472
8320 2 23.9323 6.44331 0.920472
8816 2 22.0913 3.68189 1.84094
8817 2 23.0118 4.60236 1.84094
8818 2 23.0118 3.68189 2.76142
8819 2 22.0913 4.60236 2.76142
8820 2 24.8528 3.68189 2.76142
8845 2 22.0913 6.44331 2.76142
8846 2 23.9323 6.44331 2.76142
94 4 25.7732 3.68189 0
95 4 27.6142 3.68189 0
96 4 28.5346 4.60236 0
97 4 27.6142 4.60236 0.920472
130 4 25.7732 5.52283 0
131 4 28.5346 6.44331 0
608 4 25.7732 4.60236 2.76142
609 4 27.6142 3.68189 1.84094
610 4 28.5346 4.60236 1.84094
635 4 26.6937 6.44331 1.84094
636 4 25.7732 6.44331 2.76142
637 4 27.6142 5.52283 1.84094
638 4 28.5346 5.52283 2.76142
639 4 27.6142 6.44331 2.76142
8289 2 25.7732 3.68189 0
8290 2 26.6937 4.60236 0
8291 2 25.7732 4.60236 0.920472
8292 2 27.6142 3.68189 0
8293 2 28.5346 4.60236 0
8294 2 27.6142 4.60236 0.920472
8321 2 25.7732 5.52283 0
8322 2 25.7732 6.44331 0.920472
8323 2 27.6142 5.52283 0
8324 2 28.5346 6.44331 0
8325 2 27.6142 6.44331 0.920472
8821 2 25.7732 4.60236 2.76142
8822 2 28.5346 4.60236 1.84094
8823 2 28.5346 3.68189 2.76142
8847 2 25.7732 5.52283 1.84094
8848 2 26.6937 6.44331 1.84094
8849 2 26.6937 5.52283 2.76142
8850 2 25.7732 6.44331 2.76142
8851 2 28.5346 6.44331 1.84094
132 4 0.920472 8.28425 0
133 4 2.76142 8.28425 0
160 4 0 9.20472 0
161 4 0.920472 10.1252 0
162 4 0.920472 9.20472 0.920472
163 4 0 10.1252 0.920472
164 4 1.84094 9.20472 0
165 4 2.76142 9.20472 0.920472
640 4 0.920472 8.28425 1.84094
641 4 0.920472 7.36378 2.76142
642 4 0 8.28425 2.76142
643 4 2.76142 7.36378 2.76142
672 4 0 9.20472 1.84094
673 4 0.920472 9.20472 2.76142
674 4 0 10.1252 2.76142
675 4 1.84094 9.20472 1.84094
676 4 2.76142 10.1252 1.84094
677 4 2.76142 9.20472 2.76142
678 4 1.84094 10.1252 2.76142
8326 2 0.920472 8.28425 0
8327 2 0.920472 7.36378 0.920472
8328 2 0 8.28425 0.920472
8329 2 1.84094 7.36378 0
8330 2 2.76142 8.28425 0
8331 2 2.76142 7.36378 0.920472
8332 2 1.84094 8.28425 0.920472
8366 2 0 9.20472 0
8367 2 0.920472 10.1252 0
8368 2 0.920472 9.20472 0.920472
8369 2 0 10.1252 0.920472
8370 2 1.84094 9.20472 0
8371 2 2.76142 10.1252 0
8372 2 2.76142 9.20472 0.920472
8373 2 1.84094 10.1252 0.920472
8852 2 0 7.36378 1.84094
8853 2 0.920472 8.28425 1.84094
8854 2 0.920472 7.36378 2.76142
8855 2 0 8.28425 2.76142
8856 2 1.84094 7.36378 1.84094
8857 2 2.76142 8.28425 1.84094
8858 2 2.76142 7.36378 2.76142
8859 2 1.84094 8.28425 2.76142
8880 2 0 9.20472 1.84094
8881 2 0.920472 9.20472 2.76142
8882 2 0 10.1252 2.76142
8883 2 1.84094 9.20472 1.84094
8884 2 2.76142 10.1252 1.84094
8885 2 2.76142 9.20472 2.76142
134 4 4.60236 7.36378 0.920472
135 4 5.52283 8.28425 0.920472
166 4 4.60236 10.1252 0
167 4 4.60236 9.20472 0.920472
168 4 3.68189 10.1252 0.920472
169 4 6.44331 9.20472 0.920472
170 4 5.52283 10.1252 0.920472
644 4 6.44331 7.36378 2.76142
645 4 5.52283 8.28425 2.76142
679 4 3.68189 9.20472 1.84094
680 4 4.60236 10.1252 1.84094
681 4 4.60236 9.20472 2.76142
682 4 5.52283 9.20472 1.84094
683 4 6.44331 10.1252 1.84094
684 4 5.52283 10.1252 2.76142
8333 2 3.68189 7.36378 0
8334 2 4.60236 8.28425 0
8335 2 3.68189 8.28425 0.920472
8336 2 6.44331 8.28425 0
8374 2 3.68189 9.20472 0
8375 2 4.60236 10.1252 0
8376 2 6.44331 10.1252 0
8377 2 6.44331 9.20472 0.920472
8860 2 4.60236 8.28425 1.84094
8861 2 3.68189 8.28425 2.76142
8862 2 5.52283 8.28425 2.76142
8886 2 3.68189 9.20472 1.84094
8887 2 4.60236 10.1252 1.84094
8888 2 6.44331 10.1252 1.84094
8889 2 5.52283 10.1252 2.76142
136 4 7.36378 8.28425 0.920472
137 4 9.20472 7.36378 0
138 4 10.1252 8.28425 0
171 4 7.36378 9.20472 0
172 4 8.28425 10.1252 0
173 4 8.28425 9.20472 0.920472
174 4 7.36378 10.1252 0.920472
175 4 9.20472 9.20472 0
176 4 9.20472 10.1252 0.920472
646 4 8.28425 7.36378 2.76142
647 4 7.36378 8.28425 2.76142
648 4 10.1252 7.36378 2.76142
649 4 9.20472 8.28425 2.76142
685 4 7.36378 9.20472 1.84094
686 4 8.28425 10.1252 1.84094
687 4 8.28425 9.20472 2.76142
688 4 9.20472 9.20472 1.84094
689 4 10.1252 10.1252 1.84094
690 4 10.1252 9.20472 2.76142
8337 2 8.28425 8.28425 0
8338 2 8.28425 7.36378 0.920472
8339 2 7.36378 8.28425 0.920472
8340 2 9.20472 7.36378 0
8341 2 10.1252 7.36378 0.920472
8342 2 9.20472 8.28425 0.920472
8378 2 7.36378 9.20472 0
8379 2 8.28425 10.1252 0
8380 2 8.28425 9.20472 0.920472
8381 2 7.36378 10.1252 0.920472
8382 2 10.1252 10.1252 0
8383 2 10.1252 9.20472 0.920472
8863 2 8.28425 8.28425 1.84094
8864 2 9.20472 7.36378 1.84094
8865 2 10.1252 7.36378 2.76142
8890 2 7.36378 9.20472 1.84094
8891 2 8.28425 10.1252 1.84094
8892 2 10.1252 10.1252 1.84094
8893 2 10.1252 9.20472 2.76142
139 4 11.0457 7.36378 0
140 4 11.9661 8.28425 0
141 4 13.8071 8.28425 0
142 4 12.8866 8.28425 0.920472
177 4 11.0457 9.20472 0
178 4 11.9661 10.1252 0
179 4 13.8071 10.1252 0
650 4 11.9661 7.36378 2.76142
651 4 11.0457 8.28425 2.76142
652 4 13.8071 8.28425 1.84094
653 4 12.8866 8.28425 2.76142
691 4 11.9661 10.1252 1.84094
692 4 11.9661 9.20472 2.76142
693 4 11.0457 10.1252 2.76142
8343 2 11.9661 8.28425 0
8344 2 11.9661 7.36378 0.920472
8345 2 11.0457 8.28425 0.920472
8346 2 12.8866 8.28425 0.920472
8384 2 11.9661 10.1252 0
8385 2 11.9661 9.20472 0.920472
8386 2 12.8866 9.20472 0
8387 2 13.8071 10.1252 0
8866 2 11.0457 7.36378 1.84094
8867 2 11.9661 8.28425 1.84094
8868 2 12.8866 7.36378 1.84094
8869 2 13.8071 8.28425 1.84094
8894 2 11.0457 9.20472 1.84094
8895 2 11.9661 10.1252 1.84094
8896 2 11.0457 10.1252 2.76142
8897 2 12.8866 9.20472 1.84094
143 4 15.648 7.36378 0.920472
144 4 14.7276 8.28425 0.920472
145 4 17.489 8.28425 0
146 4 17.489 7.36378 0.920472
147 4 16.5685 8.28425 0.920472
180 4 16.5685 9.20472 0
181 4 17.489 10.1252 0
182 4 16.5685 10.1252 0.920472
654 4 14.7276 7.36378 1.84094
655 4 15.648 8.28425 1.84094
656 4 15.648 7.36378 2.76142
657 4 16.5685 7.36378 1.84094
658 4 17.489 8.28425 1.84094
694 4 15.648 9.20472 2.76142
695 4 14.7276 10.1252 2.76142
696 4 17.489 9.20472 2.76142
8347 2 15.648 8.28425 0
8348 2 14.7276 8.28425 0.920472
8349 2 17.489 7.36378 0.920472
8350 2 16.5685 8.28425 0.920472
8388 2 14.7276 10.1252 0.920472
8389 2 17.489 10.1252 0
8390 2 17.489 9.20472 0.920472
8870 2 15.648 8.28425 1.84094
8871 2 17.489 8.28425 1.84094
8872 2 17.489 7.36378 2.76142
8873 2 16.5685 8.28425 2.76142
8898 2 15.648 10.1252 1.84094
8899 2 17.489 10.1252 1.84094
8900 2 17.489 9.20472 2.76142
8901 2 16.5685 10.1252 2.76142
148 4 18.4094 7.36378 0
149 4 19.3299 8.28425 0
150 4 18.4094 8.28425 0.920472
151 4 21.1709 8.28425 0
183 4 18.4094 9.20472 0
184 4 20.2504 9.20472 0
185 4 20.2504 10.1252 0.920472
659 4 19.3299 8.28425 1.84094
660 4 20.2504 7.36378 1.84094
661 4 21.1709 8.28425 1.84094
697 4 18.4094 10.1252 2.76142
698 4 20.2504 9.20472 1.84094
699 4 21.1709 10.1252 1.84094
700 4 20.2504 10.1252 2.76142
8351 2 19.3299 8.28425 0
8352 2 18.4094 8.28425 0.920472
8353 2 20.2504 7.36378 0
8354 2 21.1709 7.36378 0.920472
8355 2 20.2504 8.28425 0.920472
8391 2 18.4094 9.20472 0
8392 2 19.3299 10.1252 0
8393 2 19.3299 9.20472 0.920472
8394 2 20.2504 10.1252 0.920472
8874 2 19.3299 8.28425 1.84094
8875 2 19.3299 7.36378 2.76142
8876 2 18.4094 8.28425 2.76142
8902 2 18.4094 9.20472 1.84094
8903 2 19.3299 10.1252 1.84094
8904 2 18.4094 10.1252 2.76142
8905 2 21.1709 9.20472 2.76142
152 4 22.0913 7.36378 0
153 4 23.0118 8.28425 0
154 4 22.0913 8.28425 0.920472
155 4 23.9323 7.36378 0
156 4 24.8528 7.36378 0.920472
157 4 23.9323 8.28425 0.920472
186 4 23.0118 9.20472 0.920472
187 4 24.8528 10.1252 0
188 4 24.8528 9.20472 0.920472
189 4 23.9323 10.1252 0.920472
662 4 22.0913 7.36378 1.84094
663 4 23.0118 8.28425 1.84094
664 4 23.9323 7.36378 1.84094
665 4 24.8528 7.36378 2.76142
666 4 23.9323 8.28425 2.76142
701 4 22.0913 9.20472 1.84094
702 4 23.9323 9.20472 1.84094
703 4 24.8528 10.1252 1.84094
704 4 24.8528 9.20472 2.76142
8356 2 22.0913 7.36378 0
8357 2 23.0118 7.36378 0.920472
8358 2 22.0913 8.28425 0.920472
8359 2 24.8528 7.36378 0.920472
8360 2 23.9323 8.28425 0.920472
8395 2 22.0913 9.20472 0
8396 2 23.0118 9.20472 0.920472
8397 2 22.0913 10.1252 0.920472
8398 2 23.9323 9.20472 0
8399 2 24.8528 9.20472 0.920472
8400 2 23.9323 10.1252 0.920472
8877 2 23.0118 7.36378 2.76142
8878 2 23.9323 7.36378 1.84094
8906 2 22.0913 9.20472 1.84094
8907 2 23.0118 10.1252 1.84094
8908 2 23.0118 9.20472 2.76142
8909 2 23.9323 9.20472 1.84094
8910 2 24.8528 10.1252 1.84094
8911 2 24.8528 9.20472 2.76142
8912 2 23.9323 10.1252 2.76142
158 4 25.7732 7.36378 0
159 4 27.6142 8.28425 0.920472
190 4 26.6937 10.1252 0
191 4 28.5346 10.1252 0
192 4 28.5346 9.20472 0.920472
667 4 25.7732 7.36378 1.84094
668 4 26.6937 8.28425 1.84094
669 4 26.6937 7.36378 2.76142
670 4 28.5346 7.36378 2.76142
671 4 27.6142 8.28425 2.76142
705 4 25.7732 9.20472 1.84094
706 4 26.6937 10.1252 1.84094
707 4 26.6937 9.20472 2.76142
708 4 25.7732 10.1252 2.76142
709 4 27.6142 9.20472 1.84094
710 4 28.5346 10.1252 1.84094
8361 2 26.6937 8.28425 0
8362 2 27.6142 7.36378 0
8363 2 28.5346 8.28425 0
8364 2 28.5346 7.36378 0.920472
8365 2 27.6142 8.28425 0.920472
8401 2 25.7732 9.20472 0
8402 2 26.6937 10.1252 0
8403 2 28.5346 10.1252 0
8879 2 28.5346 7.36378 2.76142
8913 2 26.6937 10.1252 1.84094
8914 2 26.6937 9.20472 2.76142
8915 2 25.7732 10.1252 2.76142
8916 2 27.6142 9.20472 1.84094
8917 2 28.5346 9.20472 2.76142
193 4 0.920472 11.9661 0
194 4 0.920472 11.0457 0.920472
195 4 0 11.9661 0.920472
196 4 1.84094 11.0457 0
197 4 2.76142 11.9661 0
230 4 0 12.8866 0
231 4 0.920472 13.8071 0
232 4 0.920472 12.8866 0.920472
233 4 0 13.8071 0.920472
234 4 2.76142 13.8071 0
235 4 2.76142 12.8866 0.920472
236 4 1.84094 13.8071 0.920472
711 4 0 11.0457 1.84094
712 4 0.920472 11.9661 1.84094
713 4 1.84094 11.0457 1.84094
714 4 1.84094 11.9661 2.76142
747 4 0 12.8866 1.84094
748 4 0.920472 13.8071 1.84094
749 4 0.920472 12.8866 2.76142
750 4 1.84094 12.8866 1.84094
751 4 2.76142 12.8866 2.76142
8404 2 1.84094 11.0457 0
8405 2 1.84094 11.9661 0.920472
8431 2 0 12.8866 0
8432 2 0.920472 13.8071 0
8433 2 0.920472 12.8866 0.920472
8434 2 0 13.8071 0.920472
8435 2 2.76142 13.8071 0
8436 2 2.76142 12.8866 0.920472
8918 2 0 11.0457 1.84094
8919 2 0.920472 11.9661 1.84094
8920 2 1.84094 11.0457 1.84094
8921 2 2.76142 11.9661 1.84094
8922 2 2.76142 11.0457 2.76142
8952 2 0 12.8866 1.84094
8953 2 0.920472 13.8071 1.84094
8954 2 2.76142 13.8071 1.84094
8955 2 2.76142 12.8866 2.76142
198 4 3.68189 11.0457 0
199 4 4.60236 11.9661 0
200 4 4.60236 11.0457 0.920472
201 4 3.68189 11.9661 0.920472
202 4 5.52283 11.0457 0
203 4 6.44331 11.9661 0
204 4 6.44331 11.0457 0.920472
237 4 4.60236 12.8866 0.920472
238 4 3.68189 13.8071 0.920472
239 4 5.52283 12.8866 0
240 4 6.44331 12.8866 0.920472
241 4 5.52283 13.8071 0.920472
715 4 4.60236 11.9661 1.84094
716 4 4.60236 11.0457 2.76142
717 4 3.68189 11.9661 2.76142
718 4 5.52283 11.0457 1.84094
719 4 6.44331 11.9661 1.84094
720 4 5.52283 11.9661 2.76142
752 4 4.60236 13.8071 1.84094
753 4 6.44331 13.8071 1.84094
754 4 6.44331 12.8866 2.76142
8406 2 3.68189 11.0457 0
8407 2 4.60236 11.9661 0
8408 2 5.52283 11.0457 0
8409 2 5.52283 11.9661 0.920472
8437 2 3.68189 12.8866 0
8438 2 4.60236 13.8071 0
8439 2 4.60236 12.8866 0.920472
8440 2 3.68189 13.8071 0.920472
8923 2 3.68189 11.0457 1.84094
8924 2 4.60236 11.9661 1.84094
8925 2 4.60236 11.0457 2.76142
8926 2 5.52283 11.0457 1.84094
8927 2 6.44331 11.9661 1.84094
8956 2 3.68189 12.8866 1.84094
8957 2 4.60236 12.8866 2.76142
8958 2 6.44331 13.8071 1.84094
8959 2 6.44331 12.8866 2.76142
8960 2 5.52283 13.8071 2.76142
205 4 8.28425 11.9661 0
206 4 8.28425 11.0457 0.920472
207 4 10.1252 11.9661 0
208 4 9.20472 11.9661 0.920472
242 4 8.28425 13.8071 0
243 4 8.28425 12.8866 0.920472
244 4 7.36378 13.8071 0.920472
721 4 7.36378 11.0457 1.84094
722 4 7.36378 11.9661 2.76142
723 4 10.1252 11.9661 1.84094
724 4 10.1252 11.0457 2.76142
755 4 7.36378 12.8866 1.84094
756 4 8.28425 13.8071 1.84094
757 4 7.36378 13.8071 2.76142
758 4 9.20472 13.8071 2.76142
8410 2 7.36378 11.0457 0
8411 2 8.28425 11.9661 0
8412 2 7.36378 11.9661 0.920472
8413 2 9.20472 11.0457 0
8414 2 10.1252 11.0457 0.920472
8441 2 8.28425 12.8866 0.920472
8442 2 10.1252 13.8071 0
8443 2 10.1252 12.8866 0.920472
8928 2 7.36378 11.0457 1.84094
8929 2 8.28425 11.0457 2.76142
8930 2 10.1252 11.9661 1.84094
8931 2 10.1252 11.0457 2.76142
8961 2 7.36378 13.8071 2.76142
8962 2 9.20472 12.8866 1.84094
8963 2 10.1252 13.8071 1.84094
8964 2 9.20472 13.8071 2.76142
209 4 11.0457 11.0457 0
210 4 11.9661 11.9661 0
211 4 13.8071 11.9661 0
245 4 11.0457 12.8866 0
246 4 11.9661 12.8866 0.920472
247 4 13.8071 13.8071 0
248 4 13.8071 12.8866 0.920472
249 4 12.8866 13.8071 0.920472
725 4 11.9661 11.0457 2.76142
726 4 11.0457 11.9661 2.76142
727 4 13.8071 11.9661 1.84094
759 4 11.0457 12.8866 1.84094
760 4 11.0457 13.8071 2.76142
761 4 13.8071 12.8866 2.76142
762 4 12.8866 13.8071 2.76142
8415 2 11.9661 11.9661 0
8416 2 11.9661 11.0457 0.920472
8417 2 12.8866 11.0457 0
8418 2 13.8071 11.0457 0.920472
8444 2 11.9661 13.8071 0
8445 2 11.9661 12.8866 0.920472
8446 2 12.8866 12.8866 0
8932 2 11.0457 11.9661 2.76142
8933 2 12.8866 11.0457 1.84094
8934 2 13.8071 11.9661 1.84094
8935 2 12.8866 11.9661 2.76142
8965 2 12.8866 12.8866 1.84094
212 4 14.7276 11.0457 0
213 4 15.648 11.9661 0
214 4 15.648 11.0457 0.920472
215 4 14.7276 11.9661 0.920472
216 4 17.489 11.9661 0
217 4 17.489 11.0457 0.920472
250 4 14.7276 13.8071 0.920472
251 4 16.5685 12.8866 0
728 4 14.7276 11.0457 1.84094
729 4 15.648 11.9661 1.84094
730 4 15.648 11.0457 2.76142
731 4 16.5685 11.0457 1.84094
732 4 17.489 11.0457 2.76142
733 4 16.5685 11.9661 2.76142
763 4 15.648 12.8866 2.76142
764 4 14.7276 13.8071 2.76142
765 4 16.5685 12.8866 1.84094
766 4 17.489 12.8866 2.76142
8419 2 14.7276 11.0457 0
8420 2 15.648 11.0457 0.920472
8421 2 16.5685 11.0457 0
8422 2 17.489 11.9661 0
8423 2 17.489 11.0457 0.920472
8447 2 14.7276 12.8866 0
8448 2 15.648 13.8071 0
8449 2 16.5685 12.8866 0
8450 2 17.489 12.8866 0.920472
8936 2 15.648 11.9661 1.84094
8937 2 16.5685 11.0457 1.84094
8938 2 17.489 11.9661 1.84094
8939 2 17.489 11.0457 2.76142
8940 2 16.5685 11.9661 2.76142
8966 2 14.7276 12.8866 1.84094
8967 2 15.648 12.8866 2.76142
8968 2 16.5685 12.8866 1.84094
8969 2 17.489 13.8071 1.84094
8970 2 16.5685 13.8071 2.76142
218 4 18.4094 11.0457 0
219 4 19.3299 11.0457 0.920472
220 4 20.2504 11.0457 0
221 4 21.1709 11.9661 0
252 4 18.4094 12.8866 0
253 4 19.3299 12.8866 0.920472
254 4 21.1709 13.8071 0
734 4 18.4094 11.0457 1.84094
735 4 19.3299 11.9661 1.84094
736 4 21.1709 11.9661 1.84094
737 4 21.1709 11.0457 2.76142
738 4 20.2504 11.9661 2.76142
767 4 19.3299 13.8071 1.84094
768 4 18.4094 13.8071 2.76142
769 4 20.2504 12.8866 1.84094
8424 2 18.4094 11.0457 0
8425 2 19.3299 11.9661 0
8426 2 21.1709 11.9661 0
8427 2 20.2504 11.9661 0.920472
8451 2 18.4094 12.8866 0
8452 2 19.3299 13.8071 0
8453 2 19.3299 12.8866 0.920472
8454 2 20.2504 12.8866 0
8455 2 20.2504 13.8071 0.920472
8941 2 19.3299 11.9661 1.84094
8942 2 19.3299 11.0457 2.76142
8943 2 20.2504 11.0457 1.84094
8971 2 19.3299 13.8071 1.84094
8972 2 19.3299 12.8866 2.76142
8973 2 18.4094 13.8071 2.76142
8974 2 21.1709 13.8071 1.84094
222 4 23.0118 11.9661 0
223 4 23.0118 11.0457 0.920472
224 4 23.9323 11.0457 0
225 4 23.9323 11.9661 0.920472
255 4 23.0118 13.8071 0
256 4 23.0118 12.8866 0.920472
257 4 23.9323 13.8071 0.920472
739 4 22.0913 11.0457 1.84094
740 4 23.0118 11.9661 1.84094
741 4 24.8528 11.0457 2.76142
742 4 23.9323 11.9661 2.76142
770 4 23.0118 12.8866 2.76142
771 4 22.0913 13.8071 2.76142
772 4 23.9323 12.8866 1.84094
773 4 24.8528 13.8071 1.84094
774 4 23.9323 13.8071 2.76142
8428 2 22.0913 11.9661 0.920472
8429 2 24.8528 11.0457 0.920472
8456 2 22.0913 12.8866 0
8457 2 23.0118 13.8071 0
8458 2 22.0913 13.8071 0.920472
8459 2 24.8528 13.8071 0
8944 2 23.0118 11.9661 1.84094
8945 2 23.0118 11.0457 2.76142
8946 2 22.0913 11.9661 2.76142
8947 2 23.9323 11.0457 1.84094
8948 2 24.8528 11.0457 2.76142
8975 2 22.0913 13.8071 2.76142
8976 2 24.8528 13.8071 1.84094
8977 2 24.8528 12.8866 2.76142
226 4 25.7732 11.0457 0
227 4 26.6937 11.9661 0
228 4 25.7732 11.9661 0.920472
229 4 28.5346 11.9661 0
258 4 26.6937 13.8071 0
259 4 28.5346 12.8866 0.920472
743 4 26.6937 11.9661 1.84094
744 4 26.6937 11.0457 2.76142
745 4 28.5346 11.9661 1.84094
746 4 28.5346 11.0457 2.76142
775 4 26.6937 12.8866 2.76142
776 4 27.6142 12.8866 1.84094
777 4 28.5346 13.8071 1.84094
8430 2 26.6937 11.9661 0
8460 2 26.6937 13.8071 0
8461 2 25.7732 13.8071 0.920472
8462 2 28.5346 13.8071 0
8949 2 25.7732 11.0457 1.84094
8950 2 25.7732 11.9661 2.76142
8951 2 28.5346 11.0457 2.76142
8978 2 26.6937 12.8866 2.76142
8979 2 25.7732 13.8071 2.76142
8980 2 28.5346 13.8071 1.84094
260 4 0 14.7276 0
261 4 0.920472 15.648 0
262 4 0 15.648 0.920472
263 4 1.84094 14.7276 0
264 4 2.76142 15.648 0
265 4 2.76142 14.7276 0.920472
266 4 1.84094 15.648 0.920472
294 4 0.920472 17.489 0