ITEM: TIMESTEP
0
ITEM: NUMBER OF ATOMS
16384
ITEM: BOX BOUNDS pp pp pp
0.0000000000000000e+00 4.7422044024939801e+01
0.0000000000000000e+00 4.7422044024939801e+01
0.0000000000000000e+00 4.7422044024939801e+01
ITEM: ATOMS id type x y z
1 4 0 0 0
2 4 1.4937 1.4937 0
5 4 2.9874 1.4937 1.4937
32 4 1.4937 2.9874 1.4937
8193 2 0 0 0
8194 2 1.4937 1.4937 0
8195 2 1.4937 0 1.4937
8196 2 0 1.4937 1.4937
8226 2 0 2.9874 0
8730 2 1.4937 1.4937 2.9874
8760 2 2.9874 2.9874 2.9874
3 4 4.4811 1.4937 0
4 4 4.4811 0 1.4937
7 4 5.9748 1.4937 1.4937
34 4 4.4811 2.9874 1.4937
36 4 5.9748 2.9874 0
558 4 5.9748 2.9874 2.9874
8197 2 4.4811 0 1.4937
8198 2 5.9748 0 0
8228 2 4.4811 2.9874 1.4937
8229 2 5.9748 2.9874 0
8732 2 4.4811 1.4937 2.9874
8735 2 5.9748 0 2.9874
6 4 7.4685 0 1.4937
10 4 8.9622 1.4937 1.4937
38 4 7.4685 2.9874 1.4937
561 4 8.9622 2.9874 2.9874
8199 2 7.4685 1.4937 0
8 4 10.4559 1.4937 0
9 4 10.4559 0 1.4937
11 4 11.9496 0 0
12 4 11.9496 1.4937 1.4937
41 4 10.4559 2.9874 1.4937
43 4 11.9496 2.9874 0
525 4 10.4559 1.4937 2.9874
528 4 11.9496 0 2.9874
8200 2 10.4559 1.4937 0
8201 2 13.4433 0 1.4937
8231 2 11.9496 2.9874 0
8232 2 13.4433 2.9874 1.4937
8740 2 11.9496 0 2.9874
46 4 16.4307 2.9874 1.4937
565 4 14.937 2.9874 2.9874
8202 2 16.4307 0 1.4937
8203 2 14.937 1.4937 1.4937
13 4 17.9244 0 0
48 4 17.9244 2.9874 0
50 4 19.4181 2.9874 1.4937
532 4 19.4181 1.4937 2.9874
568 4 17.9244 2.9874 2.9874
8204 2 17.9244 0 0
8205 2 19.4181 1.4937 0
8206 2 17.9244 1.4937 1.4937
8235 2 19.4181 2.9874 1.4937
8743 2 17.9244 0 2.9874
8744 2 19.4181 1.4937 2.9874
8770 2 17.9244 2.9874 2.9874
14 4 20.9118 0 0
15 4 22.4055 0 1.4937
16 4 20.9118 1.4937 1.4937
534 4 20.9118 0 2.9874
8207 2 20.9118 0 0
8208 2 22.4055 0 1.4937
8236 2 20.9118 2.9874 0
8746 2 20.9118 0 2.9874
8773 2 20.9118 2.9874 2.9874
17 4 23.8992 0 0
18 4 25.3929 1.4937 0
19 4 25.3929 0 1.4937
53 4 23.8992 2.9874 0
55 4 25.3929 2.9874 1.4937
57 4 26.8866 2.9874 0
536 4 23.8992 0 2.9874
537 4 25.3929 1.4937 2.9874
571 4 23.8992 2.9874 2.9874
575 4 26.8866 2.9874 2.9874
8209 2 25.3929 1.4937 0
8212 2 26.8866 1.4937 1.4937
8238 2 23.8992 2.9874 0
8748 2 23.8992 0 2.9874
8778 2 26.8866 2.9874 2.9874
20 4 28.3803 1.4937 0
21 4 28.3803 0 1.4937
540 4 29.874 0 2.9874
8210 2 28.3803 1.4937 0
8211 2 28.3803 0 1.4937
8213 2 29.874 0 0
8215 2 29.874 1.4937 1.4937
8240 2 28.3803 2.9874 1.4937
8750 2 28.3803 1.4937 2.9874
22 4 31.3677 1.4937 0
23 4 32.8614 0 0
60 4 31.3677 2.9874 1.4937
541 4 32.8614 0 2.9874
8214 2 31.3677 0 1.4937
8217 2 32.8614 1.4937 1.4937
8242 2 31.3677 2.9874 1.4937
8243 2 32.8614 2.9874 0
24 4 34.3551 1.4937 0
62 4 34.3551 2.9874 1.4937
63 4 35.8488 2.9874 0
542 4 34.3551 1.4937 2.9874
8216 2 34.3551 1.4937 0
8218 2 35.8488 0 0
8220 2 35.8488 1.4937 1.4937
8245 2 35.8488 2.9874 0
8754 2 34.3551 1.4937 2.9874
8783 2 35.8488 2.9874 2.9874
25 4 37.3425 1.4937 0
26 4 40.3299 1.4937 0
65 4 37.3425 2.9874 1.4937
67 4 40.3299 2.9874 1.4937
543 4 37.3425 1.4937 2.9874
546 4 38.8362 0 2.9874
547 4 40.3299 1.4937 2.9874
583 4 38.8362 2.9874 2.9874
8219 2 37.3425 1.4937 0
8221 2 38.8362 0 0
8222 2 40.3299 0 1.4937
8223 2 38.8362 1.4937 1.4937
8246 2 37.3425 2.9874 1.4937
8247 2 38.8362 2.9874 0
8249 2 40.3299 2.9874 1.4937
8757 2 38.8362 0 2.9874
27 4 41.8236 0 0
28 4 43.3173 0 1.4937
29 4 41.8236 1.4937 1.4937
68 4 41.8236 2.9874 0
8224 2 43.3173 0 1.4937
8251 2 41.8236 2.9874 0
8787 2 41.8236 2.9874 2.9874
30 4 44.811 0 0
31 4 46.3047 1.4937 0
70 4 44.811 2.9874 0
551 4 44.811 0 2.9874
8225 2 44.811 0 0
8252 2 44.811 2.9874 0
8254 2 46.3047 2.9874 1.4937
8759 2 46.3047 1.4937 2.9874
33 4 0 4.4811 1.4937
35 4 2.9874 4.4811 1.4937
73 4 1.4937 5.9748 1.4937
553 4 1.4937 4.4811 2.9874
587 4 0 5.9748 2.9874
8227 2 1.4937 4.4811 0
8256 2 1.4937 5.9748 1.4937
8258 2 2.9874 5.9748 0
8790 2 0 5.9748 2.9874
8793 2 2.9874 5.9748 2.9874
39 4 5.9748 4.4811 1.4937
74 4 4.4811 5.9748 1.4937
555 4 4.4811 4.4811 2.9874
8260 2 5.9748 5.9748 0
8761 2 4.4811 4.4811 2.9874
37 4 7.4685 4.4811 0
42 4 8.9622 4.4811 1.4937
76 4 8.9622 5.9748 0
8230 2 7.4685 4.4811 0
8261 2 7.4685 5.9748 1.4937
8263 2 8.9622 5.9748 0
8762 2 7.4685 4.4811 2.9874
40 4 10.4559 4.4811 0
44 4 13.4433 4.4811 0
45 4 11.9496 4.4811 1.4937
77 4 10.4559 5.9748 1.4937
78 4 13.4433 5.9748 1.4937
562 4 10.4559 4.4811 2.9874
563 4 13.4433 4.4811 2.9874
592 4 11.9496 5.9748 2.9874
8265 2 11.9496 5.9748 0
8267 2 13.4433 5.9748 1.4937
8765 2 13.4433 4.4811 2.9874
47 4 14.937 4.4811 1.4937
80 4 16.4307 5.9748 1.4937
566 4 16.4307 4.4811 2.9874
594 4 14.937 5.9748 2.9874
8233 2 16.4307 4.4811 0
8268 2 14.937 5.9748 0
8270 2 16.4307 5.9748 1.4937
8768 2 16.4307 4.4811 2.9874
49 4 19.4181 4.4811 0
51 4 17.9244 4.4811 1.4937
81 4 17.9244 5.9748 0
82 4 19.4181 5.9748 1.4937
569 4 19.4181 4.4811 2.9874
596 4 17.9244 5.9748 2.9874
8234 2 19.4181 4.4811 0
8771 2 19.4181 4.4811 2.9874
52 4 20.9118 4.4811 1.4937
598 4 20.9118 5.9748 2.9874
8237 2 20.9118 4.4811 1.4937
8804 2 20.9118 5.9748 2.9874
54 4 25.3929 4.4811 0
56 4 23.8992 4.4811 1.4937
59 4 26.8866 4.4811 1.4937
84 4 25.3929 5.9748 1.4937
572 4 25.3929 4.4811 2.9874
603 4 26.8866 5.9748 2.9874
8239 2 25.3929 4.4811 0
8241 2 26.8866 4.4811 1.4937
8274 2 23.8992 5.9748 0
8277 2 26.8866 5.9748 0
8776 2 25.3929 4.4811 2.9874
58 4 28.3803 4.4811 0
61 4 29.874 4.4811 1.4937
576 4 28.3803 4.4811 2.9874
8279 2 28.3803 5.9748 1.4937
8281 2 29.874 5.9748 0
87 4 31.3677 5.9748 1.4937
604 4 32.8614 5.9748 2.9874
8283 2 31.3677 5.9748 1.4937
8812 2 32.8614 5.9748 2.9874
89 4 34.3551 5.9748 1.4937
579 4 34.3551 4.4811 2.9874
8244 2 34.3551 4.4811 0
8285 2 35.8488 5.9748 0
8816 2 35.8488 5.9748 2.9874
64 4 37.3425 4.4811 0
66 4 40.3299 4.4811 0
582 4 37.3425 4.4811 2.9874
584 4 40.3299 4.4811 2.9874
8248 2 40.3299 4.4811 0
8250 2 38.8362 4.4811 1.4937
8287 2 40.3299 5.9748 1.4937
8784 2 37.3425 4.4811 2.9874
69 4 43.3173 4.4811 0
94 4 41.8236 5.9748 0
8289 2 41.8236 5.9748 0
71 4 46.3047 4.4811 0
72 4 44.811 4.4811 1.4937
95 4 44.811 5.9748 0
586 4 46.3047 4.4811 2.9874
609 4 44.811 5.9748 2.9874
8253 2 46.3047 4.4811 0
8255 2 44.811 4.4811 1.4937
8292 2 44.811 5.9748 0
8789 2 46.3047 4.4811 2.9874
75 4 2.9874 7.4685 1.4937
99 4 1.4937 8.9622 1.4937
101 4 2.9874 8.9622 0
588 4 1.4937 7.4685 2.9874
8257 2 0 7.4685 1.4937
8295 2 0 8.9622 0
8296 2 2.9874 8.9622 0
8824 2 0 8.9622 2.9874
8826 2 2.9874 8.9622 2.9874
103 4 4.4811 8.9622 1.4937
104 4 5.9748 8.9622 0
590 4 4.4811 7.4685 2.9874
613 4 5.9748 8.9622 2.9874
8259 2 4.4811 7.4685 0
8262 2 5.9748 7.4685 1.4937
8298 2 4.4811 8.9622 1.4937
8299 2 5.9748 8.9622 0
8794 2 4.4811 7.4685 2.9874
8827 2 5.9748 8.9622 2.9874
105 4 7.4685 8.9622 1.4937
8264 2 8.9622 7.4685 1.4937
8301 2 8.9622 8.9622 0
107 4 10.4559 8.9622 1.4937
8266 2 13.4433 7.4685 0
8305 2 13.4433 8.9622 1.4937
8798 2 10.4559 7.4685 2.9874
8831 2 11.9496 8.9622 2.9874
79 4 16.4307 7.4685 0
108 4 14.937 8.9622 0
110 4 16.4307 8.9622 1.4937
595 4 16.4307 7.4685 2.9874
618 4 14.937 8.9622 2.9874
8269 2 16.4307 7.4685 0
8801 2 16.4307 7.4685 2.9874
111 4 17.9244 8.9622 0
112 4 19.4181 8.9622 1.4937
8271 2 19.4181 7.4685 0
8272 2 17.9244 7.4685 1.4937
83 4 20.9118 7.4685 1.4937
114 4 20.9118 8.9622 0
116 4 22.4055 8.9622 1.4937
599 4 22.4055 7.4685 2.9874
8273 2 20.9118 7.4685 1.4937
8309 2 20.9118 8.9622 0
8310 2 22.4055 8.9622 1.4937
86 4 26.8866 7.4685 1.4937
119 4 26.8866 8.9622 0
601 4 25.3929 7.4685 2.9874
623 4 23.8992 8.9622 2.9874
626 4 26.8866 8.9622 2.9874
8275 2 25.3929 7.4685 0
8276 2 23.8992 7.4685 1.4937
8280 2 26.8866 7.4685 1.4937
8312 2 23.8992 8.9622 0
8314 2 26.8866 8.9622 0
8805 2 25.3929 7.4685 2.9874
8835 2 23.8992 8.9622 2.9874
85 4 28.3803 7.4685 0
88 4 29.874 7.4685 1.4937
121 4 28.3803 8.9622 1.4937
123 4 29.874 8.9622 0
628 4 29.874 8.9622 2.9874
8278 2 28.3803 7.4685 0
8315 2 28.3803 8.9622 1.4937
8316 2 29.874 8.9622 0
8839 2 29.874 8.9622 2.9874
90 4 32.8614 7.4685 1.4937
124 4 31.3677 8.9622 1.4937
8282 2 31.3677 7.4685 0
8317 2 32.8614 8.9622 0
8809 2 31.3677 7.4685 2.9874
92 4 35.8488 7.4685 1.4937
633 4 35.8488 8.9622 2.9874
8284 2 34.3551 7.4685 0
8813 2 34.3551 7.4685 2.9874
91 4 37.3425 7.4685 0
93 4 38.8362 7.4685 1.4937
126 4 37.3425 8.9622 1.4937
128 4 38.8362 8.9622 0
129 4 40.3299 8.9622 1.4937
8286 2 40.3299 7.4685 0
8288 2 38.8362 7.4685 1.4937
8319 2 40.3299 8.9622 1.4937
8817 2 37.3425 7.4685 2.9874
130 4 41.8236 8.9622 0
8290 2 43.3173 7.4685 0
8291 2 41.8236 7.4685 1.4937
8321 2 41.8236 8.9622 0
8847 2 41.8236 8.9622 2.9874
96 4 46.3047 7.4685 0
97 4 44.811 7.4685 1.4937
610 4 46.3047 7.4685 2.9874
637 4 44.811 8.9622 2.9874
8293 2 46.3047 7.4685 0
8294 2 44.811 7.4685 1.4937
8323 2 44.811 8.9622 0
8822 2 46.3047 7.4685 2.9874
98 4 1.4937 10.4559 0
100 4 0 10.4559 1.4937
132 4 1.4937 13.4433 0
640 4 1.4937 13.4433 2.9874
8326 2 1.4937 13.4433 0
8327 2 1.4937 11.9496 1.4937
8328 2 0 13.4433 1.4937
8329 2 2.9874 11.9496 0
8332 2 2.9874 13.4433 1.4937
8825 2 1.4937 10.4559 2.9874
8852 2 0 11.9496 2.9874
8853 2 1.4937 13.4433 2.9874
8856 2 2.9874 11.9496 2.9874
102 4 4.4811 10.4559 0
133 4 4.4811 13.4433 0
612 4 4.4811 10.4559 2.9874
8297 2 4.4811 10.4559 0
8330 2 4.4811 13.4433 0
8331 2 4.4811 11.9496 1.4937
8333 2 5.9748 11.9496 0
8335 2 5.9748 13.4433 1.4937
8857 2 4.4811 13.4433 2.9874
134 4 7.4685 11.9496 1.4937
135 4 8.9622 13.4433 1.4937
614 4 7.4685 10.4559 2.9874
8300 2 7.4685 10.4559 0
8303 2 8.9622 10.4559 1.4937
8334 2 7.4685 13.4433 0
8828 2 7.4685 10.4559 2.9874
8860 2 7.4685 13.4433 2.9874
106 4 10.4559 10.4559 0
136 4 11.9496 13.4433 1.4937
616 4 10.4559 10.4559 2.9874
8302 2 10.4559 10.4559 0
8304 2 13.4433 10.4559 0
8336 2 10.4559 13.4433 0
8337 2 13.4433 13.4433 0
8338 2 13.4433 11.9496 1.4937
8339 2 11.9496 13.4433 1.4937
8829 2 10.4559 10.4559 2.9874
8863 2 13.4433 13.4433 2.9874
109 4 16.4307 10.4559 0
137 4 14.937 11.9496 0
138 4 16.4307 13.4433 0
8306 2 16.4307 10.4559 0
8340 2 14.937 11.9496 0
8341 2 16.4307 11.9496 1.4937
8342 2 14.937 13.4433 1.4937
8864 2 14.937 11.9496 2.9874
113 4 17.9244 10.4559 1.4937
139 4 17.9244 11.9496 0
140 4 19.4181 13.4433 0
620 4 19.4181 10.4559 2.9874
8307 2 19.4181 10.4559 0
8308 2 17.9244 10.4559 1.4937
8343 2 19.4181 13.4433 0
8344 2 19.4181 11.9496 1.4937
8345 2 17.9244 13.4433 1.4937
8833 2 19.4181 10.4559 2.9874
8866 2 17.9244 11.9496 2.9874
8867 2 19.4181 13.4433 2.9874
115 4 22.4055 10.4559 0
117 4 20.9118 10.4559 1.4937
141 4 22.4055 13.4433 0
142 4 20.9118 13.4433 1.4937
621 4 22.4055 10.4559 2.9874
652 4 22.4055 13.4433 2.9874
8311 2 20.9118 10.4559 1.4937
8346 2 20.9118 13.4433 1.4937
8834 2 22.4055 10.4559 2.9874
8868 2 20.9118 11.9496 2.9874
8869 2 22.4055 13.4433 2.9874
118 4 23.8992 10.4559 1.4937
122 4 26.8866 10.4559 1.4937
143 4 25.3929 11.9496 1.4937
144 4 23.8992 13.4433 1.4937
147 4 26.8866 13.4433 1.4937
624 4 25.3929 10.4559 2.9874
654 4 23.8992 11.9496 2.9874
655 4 25.3929 13.4433 2.9874
657 4 26.8866 11.9496 2.9874
8313 2 25.3929 10.4559 0
8347 2 25.3929 13.4433 0
8348 2 23.8992 13.4433 1.4937
8350 2 26.8866 13.4433 1.4937
8836 2 25.3929 10.4559 2.9874
8870 2 25.3929 13.4433 2.9874
120 4 28.3803 10.4559 0
145 4 28.3803 13.4433 0
146 4 28.3803 11.9496 1.4937
148 4 29.874 11.9496 0
150 4 29.874 13.4433 1.4937
658 4 28.3803 13.4433 2.9874
8349 2 28.3803 11.9496 1.4937
8352 2 29.874 13.4433 1.4937
8838 2 28.3803 10.4559 2.9874
8871 2 28.3803 13.4433 2.9874
149 4 31.3677 13.4433 0
629 4 31.3677 10.4559 2.9874
659 4 31.3677 13.4433 2.9874
660 4 32.8614 11.9496 2.9874
8318 2 32.8614 10.4559 1.4937
8351 2 31.3677 13.4433 0
8353 2 32.8614 11.9496 0
8355 2 32.8614 13.4433 1.4937
8840 2 31.3677 10.4559 2.9874
8874 2 31.3677 13.4433 2.9874
127 4 35.8488 10.4559 1.4937
151 4 34.3551 13.4433 0
152 4 35.8488 11.9496 0
154 4 35.8488 13.4433 1.4937
661 4 34.3551 13.4433 2.9874
662 4 35.8488 11.9496 2.9874
8354 2 34.3551 11.9496 1.4937
8356 2 35.8488 11.9496 0
8358 2 35.8488 13.4433 1.4937
8843 2 34.3551 10.4559 2.9874
125 4 37.3425 10.4559 0
153 4 37.3425 13.4433 0
155 4 38.8362 11.9496 0
156 4 40.3299 11.9496 1.4937
157 4 38.8362 13.4433 1.4937
663 4 37.3425 13.4433 2.9874
664 4 38.8362 11.9496 2.9874
8320 2 38.8362 10.4559 1.4937
8357 2 37.3425 11.9496 1.4937
8359 2 40.3299 11.9496 1.4937
8360 2 38.8362 13.4433 1.4937
8878 2 38.8362 11.9496 2.9874
158 4 41.8236 11.9496 0
635 4 43.3173 10.4559 2.9874
667 4 41.8236 11.9496 2.9874
668 4 43.3173 13.4433 2.9874
8322 2 41.8236 10.4559 1.4937
8361 2 43.3173 13.4433 0
8848 2 43.3173 10.4559 2.9874
131 4 46.3047 10.4559 0
159 4 44.811 13.4433 1.4937
8324 2 46.3047 10.4559 0
8325 2 44.811 10.4559 1.4937
8362 2 44.811 11.9496 0
8363 2 46.3047 13.4433 0
8364 2 46.3047 11.9496 1.4937
8365 2 44.811 13.4433 1.4937
8851 2 46.3047 10.4559 2.9874
160 4 0 14.937 0
161 4 1.4937 16.4307 0
162 4 1.4937 14.937 1.4937
163 4 0 16.4307 1.4937
164 4 2.9874 14.937 0
672 4 0 14.937 2.9874
675 4 2.9874 14.937 2.9874
8366 2 0 14.937 0
8367 2 1.4937 16.4307 0
8368 2 1.4937 14.937 1.4937
8369 2 0 16.4307 1.4937
8370 2 2.9874 14.937 0
8373 2 2.9874 16.4307 1.4937
8880 2 0 14.937 2.9874
8883 2 2.9874 14.937 2.9874
165 4 4.4811 14.937 1.4937
168 4 5.9748 16.4307 1.4937
676 4 4.4811 16.4307 2.9874
679 4 5.9748 14.937 2.9874
8371 2 4.4811 16.4307 0
8372 2 4.4811 14.937 1.4937
8374 2 5.9748 14.937 0
8884 2 4.4811 16.4307 2.9874
8886 2 5.9748 14.937 2.9874
166 4 7.4685 16.4307 0
167 4 7.4685 14.937 1.4937
170 4 8.9622 16.4307 1.4937
680 4 7.4685 16.4307 2.9874
682 4 8.9622 14.937 2.9874
8375 2 7.4685 16.4307 0
8887 2 7.4685 16.4307 2.9874
169 4 10.4559 14.937 1.4937
171 4 11.9496 14.937 0
172 4 13.4433 16.4307 0
173 4 13.4433 14.937 1.4937
174 4 11.9496 16.4307 1.4937
683 4 10.4559 16.4307 2.9874
685 4 11.9496 14.937 2.9874
686 4 13.4433 16.4307 2.9874
8376 2 10.4559 16.4307 0
8377 2 10.4559 14.937 1.4937
8378 2 11.9496 14.937 0
8379 2 13.4433 16.4307 0
8380 2 13.4433 14.937 1.4937
8381 2 11.9496 16.4307 1.4937
8888 2 10.4559 16.4307 2.9874
8890 2 11.9496 14.937 2.9874
8891 2 13.4433 16.4307 2.9874
175 4 14.937 14.937 0
176 4 14.937 16.4307 1.4937
688 4 14.937 14.937 2.9874
689 4 16.4307 16.4307 2.9874
8382 2 16.4307 16.4307 0
8383 2 16.4307 14.937 1.4937
8892 2 16.4307 16.4307 2.9874
177 4 17.9244 14.937 0
178 4 19.4181 16.4307 0
691 4 19.4181 16.4307 2.9874
8384 2 19.4181 16.4307 0
8385 2 19.4181 14.937 1.4937
8894 2 17.9244 14.937 2.9874
8895 2 19.4181 16.4307 2.9874
179 4 22.4055 16.4307 0
8386 2 20.9118 14.937 0
8387 2 22.4055 16.4307 0
8897 2 20.9118 14.937 2.9874
180 4 26.8866 14.937 0
182 4 26.8866 16.4307 1.4937
8388 2 23.8992 16.4307 1.4937
8898 2 25.3929 16.4307 2.9874
181 4 28.3803 16.4307 0
183 4 29.874 14.937 0
8389 2 28.3803 16.4307 0
8390 2 28.3803 14.937 1.4937
8391 2 29.874 14.937 0
8899 2 28.3803 16.4307 2.9874
8902 2 29.874 14.937 2.9874
184 4 32.8614 14.937 0
185 4 32.8614 16.4307 1.4937
698 4 32.8614 14.937 2.9874
8392 2 31.3677 16.4307 0
8393 2 31.3677 14.937 1.4937
8394 2 32.8614 16.4307 1.4937
8903 2 31.3677 16.4307 2.9874
699 4 34.3551 16.4307 2.9874
701 4 35.8488 14.937 2.9874
8395 2 35.8488 14.937 0
8397 2 35.8488 16.4307 1.4937
8906 2 35.8488 14.937 2.9874
186 4 37.3425 14.937 1.4937
187 4 40.3299 16.4307 0
188 4 40.3299 14.937 1.4937
189 4 38.8362 16.4307 1.4937
702 4 38.8362 14.937 2.9874
703 4 40.3299 16.4307 2.9874
8396 2 37.3425 14.937 1.4937
8398 2 38.8362 14.937 0
8399 2 40.3299 14.937 1.4937
8400 2 38.8362 16.4307 1.4937
8907 2 37.3425 16.4307 2.9874
8909 2 38.8362 14.937 2.9874
8910 2 40.3299 16.4307 2.9874
190 4 43.3173 16.4307 0
705 4 41.8236 14.937 2.9874
706 4 43.3173 16.4307 2.9874
8401 2 41.8236 14.937 0
8402 2 43.3173 16.4307 0
8913 2 43.3173 16.4307 2.9874
191 4 46.3047 16.4307 0
192 4 46.3047 14.937 1.4937
709 4 44.811 14.937 2.9874
710 4 46.3047 16.4307 2.9874
8403 2 46.3047 16.4307 0
8916 2 44.811 14.937 2.9874
193 4 1.4937 19.4181 0
194 4 1.4937 17.9244 1.4937
195 4 0 19.4181 1.4937
196 4 2.9874 17.9244 0
711 4 0 17.9244 2.9874
712 4 1.4937 19.4181 2.9874
713 4 2.9874 17.9244 2.9874
8404 2 2.9874 17.9244 0
8405 2 2.9874 19.4181 1.4937
8918 2 0 17.9244 2.9874
8919 2 1.4937 19.4181 2.9874
8920 2 2.9874 17.9244 2.9874
197 4 4.4811 19.4181 0
198 4 5.9748 17.9244 0
201 4 5.9748 19.4181 1.4937
8406 2 5.9748 17.9244 0
8921 2 4.4811 19.4181 2.9874
8923 2 5.9748 17.9244 2.9874
199 4 7.4685 19.4181 0
200 4 7.4685 17.9244 1.4937
202 4 8.9622 17.9244 0
715 4 7.4685 19.4181 2.9874
718 4 8.9622 17.9244 2.9874
8407 2 7.4685 19.4181 0
8408 2 8.9622 17.9244 0
8409 2 8.9622 19.4181 1.4937
8924 2 7.4685 19.4181 2.9874
8926 2 8.9622 17.9244 2.9874
203 4 10.4559 19.4181 0
204 4 10.4559 17.9244 1.4937
205 4 13.4433 19.4181 0
206 4 13.4433 17.9244 1.4937
719 4 10.4559 19.4181 2.9874
721 4 11.9496 17.9244 2.9874
8410 2 11.9496 17.9244 0
8411 2 13.4433 19.4181 0
8412 2 11.9496 19.4181 1.4937
8927 2 10.4559 19.4181 2.9874
8928 2 11.9496 17.9244 2.9874
207 4 16.4307 19.4181 0
208 4 14.937 19.4181 1.4937
723 4 16.4307 19.4181 2.9874
8413 2 14.937 17.9244 0
8414 2 16.4307 17.9244 1.4937
8930 2 16.4307 19.4181 2.9874
209 4 17.9244 17.9244 0
210 4 19.4181 19.4181 0
8415 2 19.4181 19.4181 0
8416 2 19.4181 17.9244 1.4937
211 4 22.4055 19.4181 0
727 4 22.4055 19.4181 2.9874
8417 2 20.9118 17.9244 0
8418 2 22.4055 17.9244 1.4937
8933 2 20.9118 17.9244 2.9874
8934 2 22.4055 19.4181 2.9874
212 4 23.8992 17.9244 0
213 4 25.3929 19.4181 0
214 4 25.3929 17.9244 1.4937
215 4 23.8992 19.4181 1.4937
728 4 23.8992 17.9244 2.9874
729 4 25.3929 19.4181 2.9874
731 4 26.8866 17.9244 2.9874
8419 2 23.8992 17.9244 0
8420 2 25.3929 17.9244 1.4937
8421 2 26.8866 17.9244 0
8936 2 25.3929 19.4181 2.9874
8937 2 26.8866 17.9244 2.9874
216 4 28.3803 19.4181 0
217 4 28.3803 17.9244 1.4937
218 4 29.874 17.9244 0
734 4 29.874 17.9244 2.9874
8422 2 28.3803 19.4181 0
8423 2 28.3803 17.9244 1.4937
8424 2 29.874 17.9244 0
8938 2 28.3803 19.4181 2.9874
219 4 31.3677 17.9244 1.4937
220 4 32.8614 17.9244 0
735 4 31.3677 19.4181 2.9874
8425 2 31.3677 19.4181 0
8427 2 32.8614 19.4181 1.4937
8941 2 31.3677 19.4181 2.9874
8943 2 32.8614 17.9244 2.9874
221 4 34.3551 19.4181 0
736 4 34.3551 19.4181 2.9874
739 4 35.8488 17.9244 2.9874
8426 2 34.3551 19.4181 0
8428 2 35.8488 19.4181 1.4937
222 4 37.3425 19.4181 0
223 4 37.3425 17.9244 1.4937
224 4 38.8362 17.9244 0
225 4 38.8362 19.4181 1.4937
740 4 37.3425 19.4181 2.9874
8429 2 40.3299 17.9244 1.4937
8944 2 37.3425 19.4181 2.9874
8947 2 38.8362 17.9244 2.9874
226 4 41.8236 17.9244 0
227 4 43.3173 19.4181 0
228 4 41.8236 19.4181 1.4937
743 4 43.3173 19.4181 2.9874
8430 2 43.3173 19.4181 0
8949 2 41.8236 17.9244 2.9874
229 4 46.3047 19.4181 0
745 4 46.3047 19.4181 2.9874
230 4 0 20.9118 0
231 4 1.4937 22.4055 0
232 4 1.4937 20.9118 1.4937
233 4 0 22.4055 1.4937
236 4 2.9874 22.4055 1.4937
747 4 0 20.9118 2.9874
748 4 1.4937 22.4055 2.9874
750 4 2.9874 20.9118 2.9874
8431 2 0 20.9118 0
8432 2 1.4937 22.4055 0
8433 2 1.4937 20.9118 1.4937
8434 2 0 22.4055 1.4937
8952 2 0 20.9118 2.9874
8953 2 1.4937 22.4055 2.9874
234 4 4.4811 22.4055 0
235 4 4.4811 20.9118 1.4937
238 4 5.9748 22.4055 1.4937
8435 2 4.4811 22.4055 0
8436 2 4.4811 20.9118 1.4937
8437 2 5.9748 20.9118 0
8440 2 5.9748 22.4055 1.4937
8954 2 4.4811 22.4055 2.9874
8956 2 5.9748 20.9118 2.9874
237 4 7.4685 20.9118 1.4937
239 4 8.9622 20.9118 0
241 4 8.9622 22.4055 1.4937
752 4 7.4685 22.4055 2.9874
8438 2 7.4685 22.4055 0
8439 2 7.4685 20.9118 1.4937
240 4 10.4559 20.9118 1.4937
242 4 13.4433 22.4055 0
243 4 13.4433 20.9118 1.4937
244 4 11.9496 22.4055 1.4937
753 4 10.4559 22.4055 2.9874
755 4 11.9496 20.9118 2.9874
756 4 13.4433 22.4055 2.9874
8441 2 13.4433 20.9118 1.4937
8958 2 10.4559 22.4055 2.9874
8442 2 16.4307 22.4055 0
8443 2 16.4307 20.9118 1.4937
8962 2 14.937 20.9118 2.9874
8963 2 16.4307 22.4055 2.9874
245 4 17.9244 20.9118 0
246 4 19.4181 20.9118 1.4937
759 4 17.9244 20.9118 2.9874
8444 2 19.4181 22.4055 0
8445 2 19.4181 20.9118 1.4937
247 4 22.4055 22.4055 0
248 4 22.4055 20.9118 1.4937
249 4 20.9118 22.4055 1.4937
8446 2 20.9118 20.9118 0
8965 2 20.9118 20.9118 2.9874
250 4 23.8992 22.4055 1.4937
251 4 26.8866 20.9118 0
765 4 26.8866 20.9118 2.9874
8447 2 23.8992 20.9118 0
8448 2 25.3929 22.4055 0
8449 2 26.8866 20.9118 0
8966 2 23.8992 20.9118 2.9874
8968 2 26.8866 20.9118 2.9874
252 4 29.874 20.9118 0
8450 2 28.3803 20.9118 1.4937
8451 2 29.874 20.9118 0
8969 2 28.3803 22.4055 2.9874
253 4 31.3677 20.9118 1.4937
767 4 31.3677 22.4055 2.9874
769 4 32.8614 20.9118 2.9874
8452 2 31.3677 22.4055 0
8453 2 31.3677 20.9118 1.4937
8454 2 32.8614 20.9118 0
8455 2 32.8614 22.4055 1.4937
8971 2 31.3677 22.4055 2.9874
254 4 34.3551 22.4055 0
8456 2 35.8488 20.9118 0
8458 2 35.8488 22.4055 1.4937
8974 2 34.3551 22.4055 2.9874
255 4 37.3425 22.4055 0
256 4 37.3425 20.9118 1.4937
257 4 38.8362 22.4055 1.4937
772 4 38.8362 20.9118 2.9874
773 4 40.3299 22.4055 2.9874
8457 2 37.3425 22.4055 0
8459 2 40.3299 22.4055 0
8976 2 40.3299 22.4055 2.9874
258 4 43.3173 22.4055 0
8460 2 43.3173 22.4055 0
8461 2 41.8236 22.4055 1.4937
259 4 46.3047 20.9118 1.4937
776 4 44.811 20.9118 2.9874
777 4 46.3047 22.4055 2.9874
8462 2 46.3047 22.4055 0
8980 2 46.3047 22.4055 2.9874
260 4 0 23.8992 0
261 4 1.4937 25.3929 0
262 4 0 25.3929 1.4937
263 4 2.9874 23.8992 0
266 4 2.9874 25.3929 1.4937
295 4 2.9874 26.8866 0
778 4 0 23.8992 2.9874
779 4 1.4937 25.3929 2.9874
781 4 2.9874 23.8992 2.9874
811 4 2.9874 26.8866 2.9874
8463 2 1.4937 25.3929 0
8464 2 1.4937 23.8992 1.4937
8465 2 0 25.3929 1.4937
8466 2 2.9874 23.8992 0
8495 2 0 26.8866 0
8981 2 0 23.8992 2.9874
8984 2 2.9874 23.8992 2.9874
9014 2 0 26.8866 2.9874
264 4 4.4811 25.3929 0
265 4 4.4811 23.8992 1.4937
267 4 5.9748 23.8992 0
814 4 5.9748 26.8866 2.9874
8467 2 5.9748 23.8992 0
8498 2 4.4811 26.8866 1.4937
8499 2 5.9748 26.8866 0
8985 2 4.4811 25.3929 2.9874
8986 2 5.9748 23.8992 2.9874
268 4 7.4685 23.8992 1.4937
269 4 8.9622 23.8992 0
271 4 8.9622 25.3929 1.4937
297 4 7.4685 26.8866 1.4937
817 4 8.9622 26.8866 2.9874
8468 2 7.4685 25.3929 0
8469 2 7.4685 23.8992 1.4937
8470 2 8.9622 23.8992 0
8987 2 7.4685 25.3929 2.9874
270 4 10.4559 25.3929 0
272 4 11.9496 25.3929 1.4937
299 4 10.4559 26.8866 1.4937
301 4 11.9496 26.8866 0
302 4 13.4433 26.8866 1.4937
785 4 11.9496 23.8992 2.9874
786 4 13.4433 25.3929 2.9874
8471 2 13.4433 23.8992 1.4937
8472 2 11.9496 25.3929 1.4937
8502 2 10.4559 26.8866 1.4937
8504 2 11.9496 26.8866 0
8506 2 13.4433 26.8866 1.4937
8990 2 10.4559 25.3929 2.9874
8992 2 11.9496 23.8992 2.9874
9019 2 11.9496 26.8866 2.9874
273 4 16.4307 25.3929 0
274 4 16.4307 23.8992 1.4937
275 4 14.937 25.3929 1.4937
788 4 14.937 23.8992 2.9874
819 4 14.937 26.8866 2.9874
8473 2 16.4307 25.3929 0
8508 2 14.937 26.8866 0
8994 2 16.4307 25.3929 2.9874
276 4 19.4181 23.8992 1.4937
277 4 17.9244 25.3929 1.4937
306 4 19.4181 26.8866 1.4937
789 4 19.4181 25.3929 2.9874
823 4 17.9244 26.8866 2.9874
8474 2 17.9244 23.8992 0
8510 2 17.9244 26.8866 0
278 4 20.9118 23.8992 0
279 4 20.9118 25.3929 1.4937
792 4 20.9118 23.8992 2.9874
825 4 20.9118 26.8866 2.9874
8513 2 20.9118 26.8866 0
8997 2 20.9118 23.8992 2.9874
8998 2 22.4055 25.3929 2.9874
9023 2 20.9118 26.8866 2.9874
280 4 23.8992 23.8992 0
281 4 25.3929 23.8992 1.4937
282 4 26.8866 23.8992 0
308 4 23.8992 26.8866 0
793 4 23.8992 23.8992 2.9874
828 4 26.8866 26.8866 2.9874
8475 2 23.8992 23.8992 0
8476 2 25.3929 25.3929 0
8477 2 25.3929 23.8992 1.4937
8478 2 26.8866 23.8992 0
8515 2 25.3929 26.8866 1.4937
9000 2 26.8866 23.8992 2.9874
9027 2 23.8992 26.8866 2.9874
283 4 28.3803 25.3929 0
284 4 28.3803 23.8992 1.4937
285 4 29.874 25.3929 1.4937
797 4 29.874 23.8992 2.9874
830 4 29.874 26.8866 2.9874
8479 2 28.3803 25.3929 0
8480 2 29.874 23.8992 0
8483 2 29.874 25.3929 1.4937
8519 2 29.874 26.8866 0
9003 2 29.874 23.8992 2.9874
9030 2 29.874 26.8866 2.9874
286 4 32.8614 23.8992 0
311 4 31.3677 26.8866 1.4937
798 4 32.8614 23.8992 2.9874
832 4 32.8614 26.8866 2.9874
8481 2 31.3677 25.3929 0
8482 2 31.3677 23.8992 1.4937
8485 2 32.8614 25.3929 1.4937
8520 2 31.3677 26.8866 1.4937
287 4 34.3551 25.3929 0
290 4 35.8488 25.3929 1.4937
314 4 35.8488 26.8866 0
799 4 34.3551 25.3929 2.9874
8484 2 34.3551 23.8992 1.4937
8523 2 35.8488 26.8866 0
9005 2 34.3551 25.3929 2.9874
9007 2 35.8488 23.8992 2.9874
9035 2 35.8488 26.8866 2.9874
288 4 37.3425 25.3929 0
289 4 37.3425 23.8992 1.4937
316 4 38.8362 26.8866 0
318 4 40.3299 26.8866 1.4937
801 4 37.3425 25.3929 2.9874
803 4 40.3299 25.3929 2.9874
837 4 38.8362 26.8866 2.9874
8486 2 37.3425 25.3929 0
8487 2 37.3425 23.8992 1.4937
8488 2 40.3299 25.3929 0
8489 2 40.3299 23.8992 1.4937
8490 2 38.8362 25.3929 1.4937
9008 2 37.3425 25.3929 2.9874
9009 2 40.3299 25.3929 2.9874
9038 2 38.8362 26.8866 2.9874
291 4 43.3173 23.8992 1.4937
320 4 41.8236 26.8866 0
806 4 43.3173 25.3929 2.9874
8491 2 41.8236 23.8992 0
8492 2 43.3173 25.3929 0
8525 2 41.8236 26.8866 0
8526 2 43.3173 26.8866 1.4937
9011 2 41.8236 23.8992 2.9874
292 4 46.3047 23.8992 1.4937
293 4 44.811 25.3929 1.4937
808 4 44.811 23.8992 2.9874
809 4 46.3047 25.3929 2.9874
8493 2 46.3047 23.8992 1.4937
8494 2 44.811 25.3929 1.4937
9042 2 44.811 26.8866 2.9874
294 4 1.4937 28.3803 0
323 4 1.4937 29.874 1.4937
324 4 2.9874 29.874 0
843 4 0 29.874 2.9874
846 4 2.9874 29.874 2.9874
8496 2 1.4937 28.3803 0
8528 2 0 29.874 0
296 4 4.4811 28.3803 0
325 4 4.4811 29.874 1.4937
812 4 4.4811 28.3803 2.9874
8497 2 4.4811 28.3803 0
8500 2 5.9748 28.3803 1.4937
8532 2 5.9748 29.874 0
9015 2 4.4811 28.3803 2.9874
9049 2 5.9748 29.874 2.9874
300 4 8.9622 28.3803 1.4937
326 4 7.4685 29.874 1.4937
8503 2 8.9622 28.3803 1.4937
9053 2 8.9622 29.874 2.9874
298 4 10.4559 28.3803 0
328 4 10.4559 29.874 1.4937
329 4 11.9496 29.874 0
852 4 11.9496 29.874 2.9874
8501 2 10.4559 28.3803 0
8505 2 13.4433 28.3803 0
8507 2 11.9496 28.3803 1.4937
8536 2 13.4433 29.874 1.4937
9018 2 10.4559 28.3803 2.9874
9020 2 13.4433 28.3803 2.9874
9055 2 11.9496 29.874 2.9874
303 4 16.4307 28.3803 0
304 4 14.937 28.3803 1.4937
332 4 14.937 29.874 0
820 4 16.4307 28.3803 2.9874
856 4 14.937 29.874 2.9874
8509 2 16.4307 28.3803 0
8537 2 14.937 29.874 0
8538 2 16.4307 29.874 1.4937
305 4 19.4181 28.3803 0
334 4 17.9244 29.874 0
8511 2 19.4181 28.3803 0
8512 2 17.9244 28.3803 1.4937
8540 2 17.9244 29.874 0
8542 2 19.4181 29.874 1.4937
307 4 22.4055 28.3803 0
338 4 22.4055 29.874 1.4937
826 4 22.4055 28.3803 2.9874
860 4 20.9118 29.874 2.9874
8545 2 22.4055 29.874 1.4937
9024 2 22.4055 28.3803 2.9874
9063 2 20.9118 29.874 2.9874
309 4 25.3929 28.3803 0
339 4 23.8992 29.874 0
341 4 25.3929 29.874 1.4937
343 4 26.8866 29.874 0
8514 2 25.3929 28.3803 0
8516 2 23.8992 28.3803 1.4937
8518 2 26.8866 28.3803 1.4937
8546 2 23.8992 29.874 0
8548 2 25.3929 29.874 1.4937
9028 2 25.3929 28.3803 2.9874
312 4 29.874 28.3803 1.4937
345 4 28.3803 29.874 1.4937
346 4 29.874 29.874 0
866 4 29.874 29.874 2.9874
8517 2 28.3803 28.3803 0
8521 2 29.874 28.3803 1.4937
8550 2 28.3803 29.874 1.4937
310 4 31.3677 28.3803 0
347 4 32.8614 29.874 0
870 4 32.8614 29.874 2.9874
8552 2 31.3677 29.874 1.4937
9031 2 31.3677 28.3803 2.9874
9069 2 32.8614 29.874 2.9874
313 4 34.3551 28.3803 0
348 4 35.8488 29.874 0
833 4 34.3551 28.3803 2.9874
8522 2 34.3551 28.3803 0
315 4 37.3425 28.3803 0
317 4 40.3299 28.3803 0
319 4 38.8362 28.3803 1.4937
349 4 37.3425 29.874 1.4937
834 4 37.3425 28.3803 2.9874
838 4 40.3299 28.3803 2.9874
8524 2 40.3299 28.3803 0
8556 2 38.8362 29.874 0
8557 2 40.3299 29.874 1.4937
9076 2 38.8362 29.874 2.9874
352 4 41.8236 29.874 0
354 4 43.3173 29.874 1.4937
9040 2 43.3173 28.3803 2.9874
321 4 46.3047 28.3803 0
841 4 46.3047 28.3803 2.9874
874 4 44.811 29.874 2.9874
8527 2 46.3047 28.3803 0
9043 2 46.3047 28.3803 2.9874
9080 2 44.811 29.874 2.9874
322 4 1.4937 31.3677 0
357 4 0 32.8614 0
359 4 1.4937 32.8614 1.4937
361 4 2.9874 32.8614 0
844 4 1.4937 31.3677 2.9874
876 4 0 32.8614 2.9874
879 4 2.9874 32.8614 2.9874
8529 2 0 31.3677 1.4937
8531 2 2.9874 31.3677 1.4937
8561 2 0 32.8614 0
8562 2 1.4937 32.8614 1.4937
8563 2 2.9874 32.8614 0
9045 2 1.4937 31.3677 2.9874
327 4 5.9748 31.3677 1.4937
363 4 5.9748 32.8614 0
8530 2 4.4811 31.3677 0
8564 2 4.4811 32.8614 1.4937
8565 2 5.9748 32.8614 0
9046 2 4.4811 31.3677 2.9874
9085 2 5.9748 32.8614 2.9874
364 4 7.4685 32.8614 1.4937
365 4 8.9622 32.8614 0
849 4 7.4685 31.3677 2.9874
882 4 8.9622 32.8614 2.9874
8533 2 7.4685 31.3677 0
8566 2 7.4685 32.8614 1.4937
9050 2 7.4685 31.3677 2.9874
330 4 13.4433 31.3677 0
331 4 11.9496 31.3677 1.4937
366 4 10.4559 32.8614 1.4937
368 4 13.4433 32.8614 1.4937
851 4 10.4559 31.3677 2.9874
853 4 13.4433 31.3677 2.9874
8534 2 10.4559 31.3677 0
8535 2 13.4433 31.3677 0
8569 2 10.4559 32.8614 1.4937
8570 2 13.4433 32.8614 1.4937
9056 2 13.4433 31.3677 2.9874
333 4 16.4307 31.3677 0
370 4 16.4307 32.8614 1.4937
857 4 16.4307 31.3677 2.9874
8539 2 14.937 31.3677 1.4937
9057 2 16.4307 31.3677 2.9874
335 4 19.4181 31.3677 0
336 4 17.9244 31.3677 1.4937
372 4 19.4181 32.8614 1.4937
8541 2 19.4181 31.3677 0
8543 2 17.9244 31.3677 1.4937
8573 2 19.4181 32.8614 1.4937
9060 2 19.4181 31.3677 2.9874
337 4 22.4055 31.3677 0
374 4 20.9118 32.8614 0
376 4 22.4055 32.8614 1.4937
861 4 22.4055 31.3677 2.9874
893 4 20.9118 32.8614 2.9874
8544 2 22.4055 31.3677 0
8575 2 20.9118 32.8614 0
8576 2 22.4055 32.8614 1.4937
340 4 25.3929 31.3677 0
342 4 23.8992 31.3677 1.4937
378 4 23.8992 32.8614 0
379 4 25.3929 32.8614 1.4937
380 4 26.8866 32.8614 0
896 4 26.8866 32.8614 2.9874
8547 2 25.3929 31.3677 0
8549 2 23.8992 31.3677 1.4937
8551 2 26.8866 31.3677 1.4937
8578 2 26.8866 32.8614 0
9096 2 23.8992 32.8614 2.9874
9098 2 26.8866 32.8614 2.9874
344 4 28.3803 31.3677 0
381 4 28.3803 32.8614 1.4937
865 4 28.3803 31.3677 2.9874
899 4 29.874 32.8614 2.9874
8553 2 29.874 31.3677 1.4937
9066 2 28.3803 31.3677 2.9874
9099 2 29.874 32.8614 2.9874
383 4 31.3677 32.8614 1.4937
867 4 31.3677 31.3677 2.9874
9101 2 32.8614 32.8614 2.9874
350 4 35.8488 31.3677 1.4937
385 4 34.3551 32.8614 1.4937
871 4 34.3551 31.3677 2.9874
8555 2 35.8488 31.3677 1.4937
8581 2 34.3551 32.8614 1.4937
9070 2 34.3551 31.3677 2.9874
9105 2 35.8488 32.8614 2.9874
351 4 40.3299 31.3677 0
387 4 38.8362 32.8614 0
906 4 38.8362 32.8614 2.9874