ITEM: TIMESTEP
0
ITEM: NUMBER OF ATOMS
50688
ITEM: BOX BOUNDS xy xz yz pp pp pp
-40.1340523 46.4416847 6.3076329
-43.8030052 43.8030052 0.0
-43.7915344 43.7915344 0.0
ITEM: ATOMS id type x y z VoronoiIndex1 VoronoiIndex2 VoronoiIndex3 VoronoiIndex4 VoronoiIndex5 VoronoiIndex6 VoronoiIndex7 VoronoiIndex8 VoronoiIndex9 AtomicVolume
4 2 -29.0 -20.8199997 -19.7199993 0 0 0 0 12 0 0 0 0 11.2067719
32 5 -36.3899994 -22.3500004 -35.4599991 0 0 0 4 4 6 0 0 0 12.6000366
39 4 -21.0900002 -34.1699982 -41.7999993 0 0 0 0 12 3 0 0 0 12.9001056
46 4 -28.5 -11.7700005 -42.8600006 0 0 0 1 10 2 0 0 0 11.8650818
88 5 -30.7299996 -30.75 -0.358 0 0 0 0 12 0 0 0 0 11.4652071
93 2 -33.1699982 -19.3999996 -25.7900009 0 0 0 2 8 4 0 0 0 11.9615966
97 5 -21.9200002 -8.8620006 -0.4517 0 0 0 2 8 4 0 0 0 11.9976416
109 4 -32.1800003 -10.0200005 -26.2000008 0 0 0 1 10 4 0 0 0 12.7314587
119 4 -33.0499992 -22.3099995 -19.4099999 0 0 0 0 12 2 0 0 0 13.1098805
141 4 -19.9200002 -10.9300004 -40.0900002 0 0 0 1 10 4 0 0 0 12.878581
211 2 -35.4799996 -24.4200001 -37.4700012 0 0 1 2 7 3 0 0 0 11.7332773
227 4 -16.6599999 -6.5679999 -28.7099991 0 0 0 1 10 4 0 0 0 13.5475712
265 5 -33.4300003 -21.9099998 -25.4599991 0 0 0 3 6 6 0 0 0 13.0183334
275 5 -33.1699982 -21.3799992 -32.3899994 0 0 0 3 8 3 0 0 0 12.7254582
281 4 -30.4599991 -43.7400017 -41.5600014 0 0 1 1 9 1 2 0 0 12.1210318
290 4 -37.6699982 -42.5299988 -3.1070001 0 0 0 4 6 4 0 0 0 11.9842788
293 5 -19.3899994 -8.606 -43.5299988 0 0 0 4 6 3 0 0 0 12.1426907
297 5 -19.0200005 -8.3979998 -20.5200005 0 0 0 2 8 3 0 0 0 11.9460994
321 2 -38.1500015 -20.0400009 -21.9500008 0 0 0 0 12 0 0 0 0 11.0360794
326 4 -23.2700005 -23.25 -10.0900002 0 0 1 2 7 4 0 0 0 12.9367524
329 2 -37.9799996 -25.5400009 -8.0059996 0 0 0 2 8 4 0 0 0 12.1433487
338 5 -24.0 -33.7700005 -30.2199993 0 0 0 3 6 4 0 0 0 12.3590117
349 4 -22.5200005 -42.0900002 -16.4699993 0 0 0 1 10 4 0 0 0 13.08957
350 4 -33.1599999 -14.2799997 -37.4099999 0 0 0 1 10 3 0 0 0 12.4222718
403 4 -33.3600006 -33.2400017 -15.1000004 0 0 1 4 3 2 2 0 0 11.8749924
423 2 -28.3700009 -13.1000004 -26.1800003 0 0 0 0 12 0 0 0 0 11.6733704
424 3 -20.1299992 -37.6100006 -30.2600002 0 0 0 2 9 2 0 0 0 12.1398268
458 1 -34.3499985 -27.8400002 -38.9799996 0 0 0 0 12 0 0 0 0 10.4256764
461 2 -20.8299999 -0.7207001 -6.5739999 0 0 0 2 8 2 0 0 0 11.287199
463 3 -36.6100006 -3.9170002 -14.2799997 0 0 1 2 7 6 0 0 0 12.9653016
477 2 -18.1100006 -18.8199997 -26.3600006 0 0 0 2 8 4 0 0 0 11.9588624
495 4 -32.0 -25.3099995 -1.902 0 0 0 1 10 3 0 0 0 12.4308405
508 4 -21.0100002 -23.3099995 -14.2399998 0 0 0 2 10 4 0 0 0 13.039999
511 4 -19.6200009 -24.3999996 -36.2400017 0 0 0 3 6 5 0 0 0 12.5130635
537 5 -19.3500004 -19.3600006 -13.8999996 0 0 0 3 8 3 0 0 0 11.8149691
544 3 -30.6000004 -12.7100001 -39.2799988 0 0 1 2 7 3 0 0 0 12.5754204
553 4 -31.2199993 -27.5200005 -5.7030001 0 0 0 1 10 2 0 0 0 11.9726896
574 4 -29.7700005 -23.5200005 -16.3700009 0 0 0 1 10 4 0 0 0 13.0158405
579 5 -18.1299992 -26.5699997 -25.2700005 0 0 0 3 5 3 1 0 0 11.6644507
621 2 -27.3700009 -32.4700012 -6.9499998 0 0 0 2 8 2 0 0 0 11.7102537
639 5 -36.2000008 -11.7100001 -28.7700005 0 0 0 2 8 5 0 0 0 12.8024922
670 4 -25.0100002 -19.2600002 -40.6599999 0 0 1 2 7 4 0 0 0 11.7685929
691 5 -37.2099991 -9.8269997 -40.7700005 0 0 1 3 6 3 1 0 0 12.2231598
718 4 -20.6000004 -14.04 -30.8799992 0 0 0 2 10 3 0 0 0 12.822093
740 2 -32.7900009 -37.2000008 -42.0699997 0 0 0 0 12 0 0 0 0 11.3928156
766 4 -28.5100003 -11.8800002 -12.8299999 0 0 0 2 10 2 0 0 0 12.4995899
800 2 -35.5699997 -37.1599999 -19.6000004 0 0 0 1 10 2 0 0 0 11.6032191
824 5 -25.1599999 -22.3799992 -2.2650001 0 0 0 3 8 3 0 0 0 11.7898712
833 4 -37.4199982 -18.75 -36.1899986 0 0 0 2 8 2 0 0 0 11.8751078
839 2 -23.6200009 -41.25 -2.464 0 0 0 2 10 2 0 0 0 12.1134844
853 4 -31.7299996 -8.7080002 -28.6100006 0 0 0 2 8 4 0 0 0 12.9185238
857 5 -27.7399998 -14.5699997 -17.4400006 0 0 0 2 8 5 0 0 0 12.6117687
858 4 -23.6800003 -9.7299996 -4.3439999 0 0 0 2 10 3 0 0 0 12.9980222
862 2 -38.5299988 -23.6000004 -35.0499992 0 0 0 0 12 0 0 0 0 11.4921055
907 5 -23.2000008 -27.1800003 -43.7099991 0 0 0 1 10 4 0 0 0 12.9350166
912 5 -20.5499993 -43.0800018 -39.3300018 0 0 2 0 8 2 2 0 0 11.974123
934 4 -21.0799999 -7.9840002 -26.9300004 0 0 0 0 12 0 0 0 0 11.7973748
935 2 -26.7000008 -5.6989999 -25.9899998 0 0 0 2 8 1 0 0 0 11.408845
939 2 -37.4900017 -36.5200005 -30.9099998 0 0 0 2 8 3 0 0 0 12.0413475
949 2 -23.7099991 -5.342 -32.3300018 0 0 0 2 9 1 1 0 0 12.3596411
959 4 -19.8600006 -24.8199997 -9.25 0 0 0 0 12 3 0 0 0 13.12393
969 2 -31.8400002 -9.5760002 -12.2299996 0 0 1 3 5 4 0 0 0 11.2735834
990 5 -23.3700009 -24.25 -42.5999985 0 0 0 2 8 4 0 0 0 12.6809836
1015 5 -37.5999985 -39.2000008 -14.1000004 0 0 1 3 5 6 0 0 0 12.6943407
1033 2 -22.1900005 -34.1599999 -11.0299997 0 0 0 0 12 0 0 0 0 11.7097006
1075 4 -34.3899994 -1.869 -35.2000008 0 0 1 3 5 3 0 0 0 11.8393402
1089 3 -26.2999992 -33.1500015 -38.0499992 0 0 1 2 9 3 0 0 0 12.6736841
1110 2 -22.8700008 -21.2900009 -5.514 0 0 0 2 8 4 0 0 0 12.4937353
1111 5 -34.8100014 -5.7529998 -6.0240002 0 0 0 1 10 2 0 0 0 12.056139
1122 4 -18.2600002 -23.7900009 -15.3500004 0 0 0 1 10 2 0 0 0 12.1354027
1138 4 -32.1300011 -28.9799996 -0.5008 0 0 0 2 10 1 0 0 0 11.55229
1152 1 -29.9300004 -32.9500008 -0.09864 0 0 0 0 12 0 0 0 0 10.920332
1163 2 -33.1300011 -19.0900002 -12.1199999 0 0 0 3 8 3 0 0 0 12.4747153
1166 5 -22.5499993 -28.6399994 -9.6549998 0 0 0 0 12 0 0 0 0 12.3702116
1178 1 -23.6900006 -34.0999985 -6.1750002 0 0 3 2 3 4 2 0 0 11.7716904
1211 5 -26.4699993 -23.1499996 -20.9400006 0 0 0 0 12 0 0 0 0 11.1715336
1219 5 -24.4599991 -33.0400009 -39.4900017 0 0 0 2 8 2 0 0 0 11.9408818
1237 2 -38.6899987 -41.8499986 -8.6289997 0 0 0 2 8 1 0 0 0 10.4217596
1238 4 -35.6599999 -31.8799992 -39.1599999 0 0 0 1 10 5 0 0 0 13.3430348
1239 2 -18.7600003 -10.6599999 -19.5699997 0 0 0 0 12 0 0 0 0 11.1890507
1251 4 -36.7599983 -31.5599995 -7.4720001 0 0 0 0 12 3 0 0 0 13.2633782
1259 2 -34.6399994 -43.4199982 -15.87 0 0 0 0 12 0 0 0 0 11.0707111
1262 4 -28.1200008 -22.0400009 -14.8800002 0 0 0 3 6 3 0 0 0 11.4477511
1280 4 -35.5 -27.6599999 -32.2099991 0 0 0 0 12 2 0 0 0 12.1835127
1298 4 -37.9399986 -19.7900009 -42.4700012 0 0 0 3 8 4 0 0 0 12.6830588
1315 2 -36.3199997 -34.0699997 -42.8899994 0 0 0 0 12 0 0 0 0 11.2608976
1319 2 -19.3500004 -28.3799992 -1.331 0 0 0 3 6 4 0 0 0 11.930812
1340 2 -26.1100006 -23.9599992 -39.0299988 0 0 0 3 6 4 0 0 0 11.975958
1342 2 -35.7799988 -32.0400009 -32.7200012 0 0 0 3 8 4 0 0 0 12.8574706
1343 2 -23.0499992 -4.6290002 -34.9300004 0 0 0 2 8 4 0 0 0 11.976905
1399 4 -36.3300018 -17.4099999 -2.266 0 0 0 3 6 4 0 0 0 11.3984223
1407 5 -34.0400009 -6.7620001 -24.8700008 0 0 0 0 12 0 0 0 0 11.0800219
1408 1 -19.3299999 -34.7400017 -8.0649996 0 0 0 3 8 2 0 0 0 11.2572746
1414 2 -29.8700008 -19.3199997 -31.0499992 0 0 0 2 8 2 0 0 0 11.4424153
1419 2 -32.3100014 -43.5900002 -15.5600004 0 0 1 0 9 3 0 0 0 11.0085907
1437 4 -36.6300011 -19.6100006 -20.1100006 0 0 0 1 10 4 0 0 0 12.4394427
1505 2 -25.1700001 -19.0799999 -43.1199989 0 0 0 2 8 2 0 0 0 11.0733748
1539 5 -29.5499993 -1.564 -30.3999996 0 0 0 2 8 3 0 0 0 12.2521534
1552 4 -32.9500008 -40.4000015 -29.75 0 0 0 2 8 4 0 0 0 12.3804112
1585 4 -33.8400002 -27.8299999 -6.5240002 0 0 0 1 10 3 0 0 0 12.681056
1593 2 -22.7900009 -3.796 -29.2000008 0 0 0 0 12 0 0 0 0 11.5863276
1595 4 -36.2799988 -16.9599992 -28.9500008 0 0 0 2 8 4 0 0 0 12.1010819
1617 4 -17.7900009 -2.753 -38.2799988 0 0 1 2 7 4 0 0 0 12.4750271
1625 2 -36.2999992 -34.9799996 -29.2999992 0 0 0 2 8 2 0 0 0 11.255434
1658 4 -35.9000016 -14.8400002 -6.2480002 0 0 0 0 12 2 0 0 0 11.4996205
1660 4 -31.8899994 -5.6750002 -25.7099991 0 0 0 0 12 2 0 0 0 11.9433528
1670 2 -22.3700009 -23.0200005 -24.4099999 0 0 1 4 6 3 1 0 0 12.6360188
1683 4 -26.4799996 -15.7700005 -38.7999993 0 0 0 1 10 2 0 0 0 11.5228405
1687 2 -20.5300007 -29.25 -30.3899994 0 0 0 3 6 4 0 0 0 10.9966508
1727 5 -17.7999993 -9.6239996 -15.6800003 0 0 0 1 10 2 0 0 0 11.8406268
1741 3 -21.4099999 -36.9199982 -37.0699997 0 0 0 4 6 5 0 0 0 12.607112
1749 5 -33.5999985 -24.3799992 -30.1499996 0 0 0 4 7 3 0 0 0 13.2365608
1755 2 -35.6500016 -9.0740004 -21.0 0 0 0 3 6 4 0 0 0 11.3963919
1771 5 -16.8299999 -13.5100003 -14.25 0 0 0 1 10 2 0 0 0 12.1854048
1772 2 -16.7399998 -10.4499998 -4.8309999 0 0 0 2 8 1 0 0 0 11.5733929
1796 4 -25.1399994 -4.3260002 -36.5800019 0 0 0 1 10 3 0 0 0 12.3617773
1798 5 -26.4099999 -21.3099995 -28.1000004 0 0 2 3 2 5 0 1 0 11.8855954
1804 5 -33.6699982 -14.8400002 -32.7299996 0 0 0 1 10 4 0 0 0 12.5539522
1810 2 -24.3500004 -39.7900009 -31.5300007 0 0 0 0 12 0 0 0 0 11.3744087
1826 4 -39.2599983 -39.1800003 -12.1199999 0 0 0 2 8 4 0 0 0 12.6851959
1844 2 -26.9899998 -42.1899986 -29.6299992 0 0 0 3 6 3 0 0 0 11.8113566
1850 4 -25.9799996 -27.4500008 -19.5499993 0 0 0 2 8 4 0 0 0 12.6746683
1876 4 -31.0100002 -29.0400009 -35.8499986 0 0 0 0 12 3 0 0 0 12.5833731
1893 4 -26.7700005 -7.2230001 -20.0699997 0 0 0 0 12 4 0 0 0 13.5504341
1908 2 -34.1500015 -9.0170002 -24.9400006 0 0 0 0 12 0 0 0 0 10.920497
1914 2 -26.5499993 -6.5840001 -36.0800018 0 0 0 0 12 0 0 0 0 10.9801722
1927 2 -35.8800012 -27.8400002 -35.2700005 0 0 0 1 10 3 0 0 0 11.8818914
1928 2 -30.9799996 -11.8299999 -11.9799996 0 0 0 4 4 6 0 0 0 11.9425306
1934 3 -25.5400009 -20.4099999 -21.8600006 0 0 0 0 12 2 0 0 0 12.6687565
1937 4 -32.7299996 -41.2000008 -24.6800003 0 0 1 2 8 2 1 0 0 12.6819945
1955 5 -20.2299996 -7.7119999 -8.6459999 0 0 1 3 7 3 0 0 0 12.2221651
1958 5 -28.4899998 -1.069 -11.0799999 0 0 0 0 12 0 0 0 0 11.0408516
1960 4 -25.3700009 -35.2400017 -16.0799999 0 0 0 2 10 1 0 0 0 12.3068009
2006 4 -19.5200005 -40.7000008 -38.4000015 0 0 0 3 10 2 0 0 0 13.3378067
2021 5 -35.2200012 -20.2800007 -42.0900002 0 0 0 3 8 4 0 0 0 13.3121596
2034 4 -27.1800003 -30.5499993 -39.6899987 0 0 0 3 6 5 0 0 0 12.1748476
2062 4 -27.9300004 -33.5499993 -21.4500008 0 0 1 1 8 3 1 0 0 12.1932602
2108 1 -22.8899994 -15.8500004 -0.313 0 0 0 2 10 0 0 0 0 11.1537857
2113 1 -35.6800003 -3.7049999 -31.2900009 0 0 0 0 12 0 0 0 0 11.5009957
2147 4 -36.7700005 -14.1599999 -20.0200005 0 0 0 1 11 2 0 0 0 12.1722584
2195 2 -21.4099999 -35.8800012 -15.3000002 0 0 0 3 6 3 1 0 0 11.7264738
2208 4 -36.9500008 -27.7800007 -39.3400002 0 0 0 2 10 3 0 0 0 12.6869936
2229 4 -27.5400009 -36.0200005 -25.6599999 0 0 0 2 8 4 0 0 0 12.9547988
2232 5 -37.0099983 -26.75 -10.3199997 0 0 0 0 12 2 0 0 0 12.4106674
2234 5 -29.5699997 -22.9400006 -33.1800003 0 0 0 1 10 3 0 0 0 12.3185969
2238 4 -26.3199997 -11.9899998 -14.3599997 0 0 0 0 12 0 0 0 0 11.0977755
2246 4 -27.3299999 -7.4959998 -4.8610002 0 0 0 0 12 2 0 0 0 12.1419945
2270 5 -22.1000004 -20.7199993 -35.1800003 0 0 1 2 8 3 1 0 0 12.8844814
2272 4 -21.2399998 -24.1499996 -39.25 0 0 0 1 10 2 0 0 0 12.7063723
2278 4 -38.4000015 -35.7200012 -37.5699997 0 0 0 2 10 1 0 0 0 12.7552223
2282 4 -29.1499996 -37.2200012 -5.8020001 0 0 0 2 8 4 0 0 0 11.7842007
2287 4 -27.1700001 -7.0890002 -15.7799998 0 0 0 2 8 5 0 0 0 13.2554779
2288 4 -17.8299999 -2.2049999 -22.2999992 0 0 0 1 10 2 0 0 0 13.4218416
2294 4 -27.5300007 -5.1919999 -37.9399986 0 0 0 2 10 2 0 0 0 11.8908024
2295 5 -21.1399994 -26.7299996 -39.7299996 0 0 0 0 12 3 0 0 0 12.7101956
2298 4 -19.3199997 -21.6200009 -15.1000004 0 0 0 2 8 4 0 0 0 12.5278368
2315 2 -36.4799996 -38.7200012 -21.0699997 0 0 0 2 10 0 0 0 0 11.6906863
2322 1 -24.9699994 -13.8000002 -11.3999996 0 0 2 1 6 2 0 1 0 11.1380739
2347 4 -30.1700001 -1.857 -1.101 0 0 0 1 10 2 0 0 0 12.1651077
2388 4 -21.1900005 -30.2700005 -8.2130003 0 0 0 1 12 2 0 0 0 13.2089977
2394 2 -20.7399998 -6.1090002 -6.8709998 0 0 0 2 10 1 0 0 0 11.6604424
2412 5 -31.4899998 -37.4599991 -9.6190005 0 0 0 1 10 3 0 0 0 12.3261099
2457 1 -33.9599992 -40.5900002 -12.8800002 0 0 0 1 10 2 0 0 0 11.6253071
2507 2 -26.4300003 -40.1599999 -32.9199982 0 0 1 1 9 3 0 0 0 11.9811774
2509 4 -17.8400002 -11.3800001 -41.3800011 0 0 1 4 3 6 0 0 0 12.1837196
2515 4 -17.5799999 -0.5293 -10.2299996 0 0 1 1 8 5 1 0 0 12.8214417
2529 4 -35.2299996 -15.6999998 -37.7299996 0 0 2 0 8 4 0 0 0 11.9261552
2536 5 -18.7399998 -3.8239999 -26.2299996 0 0 0 1 10 2 0 0 0 12.1640034
2545 2 -17.8700008 -20.9599992 -37.5800019 0 0 0 0 12 0 0 0 0 11.128582
2570 2 -19.6800003 -28.7700005 -38.3600006 0 0 0 0 12 0 0 0 0 10.9464512
2574 4 -29.0499992 -1.041 -26.6499996 0 0 0 2 8 6 0 0 0 12.6148739
2585 3 -31.6200009 -5.1420002 -3.3080001 0 0 2 2 6 6 0 0 0 12.6958008
2597 5 -36.6500016 -32.9199982 -21.2399998 0 0 0 0 12 0 0 0 0 10.8560972
2614 4 -27.9599992 -15.0699997 -3.003 0 0 1 3 5 5 0 0 0 12.584384
2634 2 -21.7399998 -32.2200012 -9.6009999 0 0 0 4 4 5 0 0 0 12.0107822
2635 2 -28.2900009 -19.2399998 -4.2820001 0 0 0 2 10 0 0 0 0 11.061554
2649 4 -37.7099991 -40.7099991 -4.5500002 0 0 0 1 10 2 0 0 0 12.648551
2659 2 -28.2000008 -22.9799996 -24.9099998 0 0 1 4 2 5 1 0 0 11.6560183
2665 5 -20.7299996 -19.8400002 -41.3400002 0 0 0 2 10 3 0 0 0 13.6122151
2667 4 -34.2999992 -22.9099998 -13.3299999 0 0 0 4 6 5 0 0 0 12.8916168
2690 4 -19.7999993 -2.211 -4.8280001 0 0 0 3 6 3 0 0 0 11.5378742
2694 4 -18.1299992 -32.9199982 -32.7099991 0 0 0 1 10 3 0 0 0 12.5474749
2713 2 -26.75 -20.3400002 -41.9300004 0 0 1 3 7 3 0 0 0 12.585536
2717 2 -23.4699993 -25.1399994 -39.9900018 0 0 0 2 8 4 0 0 0 12.4892454
2731 4 -34.1199989 -35.0999985 -18.25 0 0 1 2 7 6 0 0 0 13.8505096
2764 2 -24.2999992 -34.7400017 -2.017 0 0 0 0 12 0 0 0 0 10.9706498
2766 4 -23.4699993 -24.0100002 -26.5100003 0 0 0 3 6 4 0 0 0 11.877966
2769 4 -18.7800007 -30.6000004 -15.1199999 0 0 1 1 8 4 1 0 0 13.021719
2800 5 -29.5 -43.1300011 -8.4099999 0 0 0 4 6 3 0 0 0 11.0501299
2802 5 -28.6499996 -26.6800003 -13.3999996 0 0 0 5 6 3 0 0 0 12.4041405
2818 4 -31.0799999 -15.1400003 -17.9200002 0 0 0 3 8 3 0 0 0 12.9482204
2823 2 -19.4099999 -30.0300007 -17.4599991 0 0 1 2 6 2 1 0 0 11.1966162
2825 5 -16.7900009 -9.5319996 -20.1800003 0 0 0 1 10 2 0 0 0 10.9951898
2832 4 -25.7800007 -1.742 -1.405 0 0 0 2 8 5 0 0 0 12.678277
2834 5 -21.5400009 -31.9599992 -12.0900002 0 0 0 3 6 4 0 0 0 12.6749687
2836 4 -21.1000004 -14.2600002 -26.6800003 0 0 1 1 9 3 0 0 0 12.718668
2839 5 -28.2299996 -16.3999996 -0.8824 0 0 0 2 8 4 0 0 0 12.4454832
2863 5 -24.3500004 -35.1899986 -38.1100006 0 0 0 1 10 5 0 0 0 13.0480757
2910 4 -25.0799999 -0.9754 -23.7600003 0 0 1 2 8 3 1 0 0 13.0517349
2954 5 -19.8199997 -35.5 -38.7599983 0 0 0 0 12 2 0 0 0 12.7536955
2956 2 -17.9799996 -32.1500015 -28.5900002 0 0 2 2 6 3 2 0 0 11.7007675
2963 4 -31.5300007 -6.7750001 -41.0600014 0 0 0 1 10 4 0 0 0 12.6031924
2973 4 -36.75 -19.2600002 -29.2600002 0 0 0 4 4 7 0 0 0 12.0237198
2979 4 -25.6800003 -32.8100014 -0.9933 0 0 0 0 12 3 0 0 0 13.0859709
2992 4 -34.6800003 -2.5750001 -37.75 0 0 1 2 7 5 0 0 0 12.9446508
2998 2 -33.8499986 -37.6599999 -9.1999998 0 0 0 2 8 2 0 0 0 11.6460247
3012 4 -37.5499993 -29.0100002 -3.972 0 0 0 1 10 5 0 0 0 13.3171272
3032 4 -36.5400009 -34.8800012 -17.75 0 0 0 1 10 2 0 0 0 12.4729147
3049 4 -30.9400006 -13.4600001 -36.7599983 0 0 1 2 7 5 0 0 0 12.9718704
3059 4 -25.3299999 -30.1900005 -15.3400002 0 0 0 2 8 5 0 0 0 12.6795912
3072 4 -20.2299996 -13.7799998 -33.4300003 0 0 0 1 10 4 0 0 0 12.4148865
3076 2 -30.5900002 -10.3400002 -43.3499985 0 0 0 0 12 3 0 0 0 13.0177965
3095 4 -25.5699997 -16.2800007 -21.2199993 0 0 0 4 6 4 0 0 0 11.7955218
3096 2 -33.5699997 -31.2399998 -41.0499992 0 0 1 1 9 3 0 0 0 12.1943407
3104 1 -19.8500004 -9.882 -37.5999985 0 0 0 1 10 2 0 0 0 11.8905258
3117 2 -26.6800003 -3.02 -18.0200005 0 0 0 1 10 2 0 0 0 11.8365526
3134 5 -32.6899987 -16.7000008 -41.5099983 0 0 0 4 7 2 1 0 0 12.250288
3159 5 -32.0600014 -34.4900017 -21.5699997 0 0 1 3 5 4 0 0 0 12.1461735
3193 5 -32.0200005 -35.3300018 -3.6110001 0 0 0 0 12 0 0 0 0 10.6729336
3202 5 -22.8799992 -35.9300004 -12.3999996 0 0 0 2 8 4 0 0 0 11.6536808
3218 2 -27.9599992 -3.0220001 -9.7989998 0 0 0 3 6 4 0 0 0 12.0944424
3234 4 -22.1700001 -25.3600006 -0.9941 0 0 0 1 10 2 0 0 0 11.6712971
3240 5 -27.0100002 -20.5799999 -39.1899986 0 0 0 2 8 4 0 0 0 12.2937145
3247 5 -32.7700005 -7.671 -6.4949999 0 0 1 3 6 5 1 0 0 13.0313425
3268 4 -23.1800003 -3.5850001 -15.6499996 0 0 0 4 7 2 1 0 0 12.3340931
3320 2 -24.5300007 -36.9000016 -40.4199982 0 0 0 0 12 0 0 0 0 10.9893542
3321 4 -27.7900009 -42.6300011 -20.1499996 0 0 0 1 10 2 0 0 0 12.1168356
3334 4 -38.6399994 -27.8999996 -28.4300003 0 0 1 3 4 7 1 0 0 13.141922
3336 4 -22.1399994 -13.87 -28.7800007 0 0 1 0 9 3 0 0 0 11.9424696
3340 4 -26.4200001 -28.8099995 -41.0699997 0 0 1 2 7 2 2 0 0 12.2484398
3376 5 -19.4300003 -38.5900002 -25.3299999 0 0 0 2 10 1 0 0 0 12.584857
3378 1 -16.6100006 -2.661 -40.3899994 0 0 0 2 8 0 0 0 0 10.5894556
3403 2 -33.9500008 -41.5099983 -9.0609999 0 0 0 0 12 0 0 0 0 11.1204948
3405 5 -34.6599999 -1.979 -17.8400002 0 0 1 2 6 5 1 0 0 12.7392025
3415 2 -25.5200005 -39.2799988 -19.0 0 0 0 0 12 0 0 0 0 11.1248074
3466 2 -30.1800003 -22.6200009 -35.8499986 0 0 0 1 10 2 0 0 0 12.3097172
3511 5 -24.8400002 -16.7299996 -36.4700012 0 0 0 0 16 1 0 0 0 14.3720312
3524 5 -26.8700008 -27.8899994 -31.0 0 0 0 4 4 4 2 0 0 12.0626698
3565 4 -29.5400009 -36.4500008 -18.9200002 0 0 0 0 12 0 0 0 0 11.1263647
3645 4 -17.9500008 -7.2140002 -16.3999996 0 0 2 2 5 5 1 0 0 12.0699921
3647 4 -20.2099991 -26.8099995 -24.4699993 0 0 0 0 12 0 0 0 0 11.6699744
3691 4 -32.9199982 -23.1100006 -6.31 0 0 0 1 12 1 0 0 0 12.4683209
3726 2 -31.4500008 -19.5400009 -6.4510002 0 0 1 5 3 4 0 0 0 11.6431723
3729 2 -18.5100003 -17.0900002 -6.4720001 0 0 0 0 12 2 0 0 0 12.0417194
3747 2 -36.4799996 -18.7299996 -9.606 0 0 0 0 12 0 0 0 0 11.2394552
3750 5 -25.8099995 -26.8999996 -13.0 0 0 1 2 7 4 2 0 0 12.1398335
3761 4 -18.0799999 -7.0 -9.5679999 0 0 0 1 12 1 0 0 0 11.9884072
3771 4 -25.5799999 -31.75 -13.0699997 0 0 0 2 8 5 0 0 0 13.2380362
3779 2 -24.4799996 -15.8000002 -8.3979998 0 0 1 2 7 3 0 0 0 11.2943554
3789 5 -34.6699982 -29.2299996 -13.5600004 0 0 1 3 5 6 0 0 0 12.2877092
3825 1 -24.1299992 -32.5699997 -10.8500004 0 0 0 2 8 2 0 0 0 11.3204851
3829 2 -25.2000008 -24.0 -41.1199989 0 0 0 2 8 2 0 0 0 11.8888322
3838 5 -38.8199997 -34.9799996 -42.5699997 0 0 0 2 8 5 0 0 0 12.9371758
3843 2 -35.5699997 -16.4200001 -13.3500004 0 0 0 0 12 0 0 0 0 11.5337668
3850 5 -38.6800003 -40.0600014 -26.9099998 0 0 0 2 8 4 0 0 0 11.8213005
3865 5 -20.0799999 -39.5299988 -31.5200005 0 0 0 1 10 2 0 0 0 11.6250181
3881 2 -30.3700009 -28.0699997 -11.7799998 0 0 0 4 4 4 0 0 0 11.53963
3898 4 -19.6599999 -32.4799996 -16.8400002 0 0 0 4 8 2 0 0 0 12.928997
3902 4 -29.9799996 -19.5499993 -17.4500008 0 0 0 0 12 2 0 0 0 11.8272372
3923 5 -32.2000008 -2.968 -12.3999996 0 0 3 1 6 3 1 0 0 12.3026772
3945 5 -18.4300003 -36.4500008 -22.3799992 0 0 1 4 3 6 0 0 0 12.1271172
3953 4 -37.1399994 -12.6499996 -33.6699982 0 0 0 3 6 4 0 0 0 11.461915
3975 2 -36.4799996 -21.0300007 -13.6000004 0 0 0 3 6 4 0 0 0 11.6833382
4008 4 -33.4599991 -34.1500015 -12.5799999 0 0 2 0 11 2 1 0 0 12.999137
4021 2 -24.0100002 -42.9500008 -22.8899994 0 0 0 2 8 2 0 0 0 11.5700951
4052 3 -19.4200001 -7.5190001 -36.3600006 0 0 0 3 8 3 0 0 0 12.431366
4094 3 -24.3600006 -21.0300007 -15.3100004 0 0 0 2 8 4 0 0 0 12.5543003
4121 4 -30.4099999 -27.7000008 -40.1300011 0 0 0 0 12 3 0 0 0 13.0842905
4123 5 -19.8799992 -35.5900002 -11.0600004 0 0 0 3 7 3 1 0 0 13.0258493
4132 2 -32.5299988 -9.9090004 -23.3400002 0 0 0 0 10 2 0 0 0 11.4686852
4158 5 -27.2900009 -29.2900009 -20.9200002 0 0 0 3 6 2 0 0 0 11.1349373
4175 2 -31.5599995 -28.3700009 -29.5799999 0 0 0 1 10 2 0 0 0 11.1905832
4185 4 -19.0100002 -31.0300007 -36.7900009 0 0 0 0 12 4 0 0 0 12.2719803
4218 4 -34.75 -24.0799999 -27.2600002 0 0 0 3 8 1 0 0 0 12.3872376
4233 4 -24.1299992 -15.2799997 -13.0699997 0 0 0 3 6 3 0 0 0 12.7226296
4234 4 -21.7900009 -34.8300019 -1.016 0 0 0 0 12 4 0 0 0 13.1483889
4240 4 -37.6300011 -30.6399994 -21.8299999 0 0 0 1 10 4 0 0 0 11.9475146
4256 5 -25.3899994 -41.75 -20.4099999 0 0 0 2 8 6 0 0 0 13.5182791
4279 4 -28.4799996 -37.7999993 -15.0500002 0 0 0 2 10 3 0 0 0 13.6307259
4288 4 -34.9500008 -35.2200012 -35.1100006 0 0 0 3 6 4 0 0 0 11.7421856
4291 2 -20.4200001 -40.5900002 -42.8100014 0 0 0 1 10 2 0 0 0 11.6135674
4309 2 -30.0799999 -4.1799998 -5.4580002 0 0 0 0 12 0 0 0 0 11.2539911
4329 5 -33.2799988 -16.9200002 -37.0499992 0 0 0 4 6 3 0 0 0 12.0108175
4363 4 -34.25 -18.0400009 -21.9699994 0 0 1 2 7 5 0 0 0 12.2755356
4375 5 -19.3600006 -43.1300011 -11.7799998 0 0 0 1 10 2 0 0 0 12.125514
4409 4 -33.7900009 -19.1800003 -33.9599992 0 0 0 3 8 4 0 0 0 12.5871849
4429 4 -31.3700009 -21.5599995 -40.8400002 0 0 0 3 6 4 0 0 0 11.9974966
4437 4 -19.7600003 -20.6000004 -34.2299996 0 0 0 1 10 2 0 0 0 12.2940979
4438 4 -15.7200003 -0.5079 -15.4600001 0 0 0 0 12 0 0 0 0 11.1913986
4441 2 -32.1599999 -21.7199993 -21.9400006 0 0 1 3 7 3 0 0 0 12.6928902
4458 4 -20.7099991 -31.2900009 -41.5800019 0 0 0 0 12 4 0 0 0 14.1012001
4461 2 -21.6000004 -17.3099995 -16.8700008 0 0 0 0 12 0 0 0 0 11.2798767
4527 4 -20.6399994 -32.7999993 -2.3940001 0 0 0 1 10 4 0 0 0 12.7432547
4545 4 -21.0699997 -24.6900006 -22.9699994 0 0 0 1 10 3 0 0 0 12.5734711
4564 2 -35.4199982 -4.1420002 -35.6100006 0 0 0 3 8 0 0 0 0 11.2461701
4573 2 -21.1599999 -5.8979998 -35.7299996 0 0 0 3 8 2 0 0 0 12.0098047
4579 4 -30.7399998 -20.4300003 -37.1899986 0 0 0 3 6 6 0 0 0 12.5769158
4600 4 -22.1100006 -18.5599995 -26.8299999 0 0 0 0 12 2 0 0 0 12.2921753
4601 2 -26.1800003 -37.7599983 -0.06653 0 0 0 3 8 1 0 0 0 11.4618101
4606 2 -25.2099991 -1.906 -37.9000016 0 0 1 3 5 4 0 0 0 11.7084713
4615 2 -35.6699982 -20.1499996 -35.7799988 0 0 1 3 5 4 0 0 0 11.7013455
4624 4 -27.4899998 -36.3300018 -17.1800003 0 0 0 1 10 4 0 0 0 12.5043173
4645 2 -24.5 -2.8269999 -28.0799999 0 0 0 0 12 0 0 0 0 11.4272299
4649 1 -24.8999996 -39.4399987 -3.2290001 0 0 0 2 8 2 0 0 0 11.2564478
4655 4 -26.3899994 -6.1570001 -40.3899994 0 0 0 0 12 2 0 0 0 11.9304658
4657 4 -29.4400006 -12.8500004 -17.1399994 0 0 0 1 10 4 0 0 0 13.133811
4665 5 -31.2600002 -27.0200005 -33.2400017 0 0 1 1 9 3 2 0 0 12.8963672
4670 4 -29.7800007 -21.9799996 -11.7799998 0 0 0 1 10 2 0 0 0 12.074111
4693 2 -24.8600006 -37.3199997 -20.3099995 0 0 0 2 8 2 0 0 0 11.8283005
4720 1 -22.9699994 -38.1300011 -6.6079998 0 0 0 0 12 0 0 0 0 11.2811985
4761 5 -36.5299988 -26.1000004 -24.6399994 0 0 0 0 12 2 0 0 0 12.7055874
4798 2 -20.9400006 -12.8999996 -11.79 0 0 0 0 12 0 0 0 0 10.9343034
4808 2 -33.9700012 -6.1009998 -3.704 0 0 0 1 10 2 0 0 0 12.270998
4821 4 -33.3600006 -41.2700005 -37.2999992 0 0 0 2 8 4 0 0 0 12.4392987
4833 5 -31.6599999 -4.7779999 -20.5900002 0 0 1 0 11 1 0 0 0 12.2264509
4856 2 -18.3799992 -36.9599992 -1.199 0 0 0 0 12 0 0 0 0 10.5481005
4860 2 -26.1000004 -37.5800019 -15.2700005 0 0 0 1 10 2 0 0 0 12.3649035
4862 5 -21.5799999 -29.2999992 -43.6599999 0 0 1 1 8 3 1 0 0 12.3457146
4874 5 -28.5599995 -4.7189999 -16.3799992 0 0 0 1 10 3 0 0 0 12.8111649
4879 4 -25.6900006 -11.9799996 -9.87 0 0 2 1 7 4 1 0 0 12.2955561
4898 5 -22.9599992 -40.7599983 -41.6500016 0 0 0 0 12 3 0 0 0 12.7721062
4904 5 -21.9099998 -11.2700005 -0.3273 0 0 3 1 6 4 1 0 0 12.0798063
4905 2 -33.8499986 -30.5499993 -26.8600006 0 0 0 2 10 3 0 0 0 12.880846
4915 4 -25.7099991 -20.5499993 -12.4600001 0 0 0 2 9 3 1 0 0 12.965539
4932 4 -20.6399994 -23.8400002 -11.4499998 0 0 0 1 10 3 0 0 0 13.019331
4956 5 -23.6700001 -6.0219998 -29.9899998 0 0 0 2 10 1 0 0 0 12.6491738
4965 2 -34.5299988 -39.9199982 -38.9399986 0 0 0 2 8 2 0 0 0 10.5133868
4973 4 -22.2600002 -40.0 -12.8800002 0 0 1 1 9 4 0 0 0 12.825162
5017 2 -29.4099999 -20.1399994 -2.1960001 0 0 0 1 10 2 0 0 0 11.3464575
5023 4 -24.5599995 -40.8300019 -29.1299992 0 0 0 1 10 2 0 0 0 12.2934456
5036 2 -30.2099991 -29.7600003 -6.0289998 0 0 0 1 10 2 0 0 0 11.137599
5062 4 -28.6800003 -31.2800007 -4.8189998 0 0 0 3 6 4 0 0 0 11.4159308
5066 5 -25.4099999 -17.8600006 -12.8599998 0 0 1 4 4 4 1 0 0 12.8369046
5081 4 -32.3600006 -24.4699993 -21.0200005 0 0 0 2 8 4 0 1 0 13.1039686
5083 2 -20.2900009 -24.2199993 -28.8700008 0 0 0 0 12 0 0 0 0 10.734582
5089 2 -26.2099991 -32.7900009 -30.6399994 0 0 0 0 12 0 0 0 0 11.1051331
5102 1 -38.9900018 -37.4199982 -10.1499996 0 0 1 3 5 5 0 0 0 12.0338755
5116 2 -36.9599992 -33.5200005 -40.7000008 0 0 0 0 12 0 0 0 0 11.4253741
5124 3 -28.8899994 -36.1100006 -31.0300007 0 0 0 1 12 2 0 0 0 12.7858382
5128 2 -36.7599983 -31.6599999 -36.7200012 0 0 0 2 8 1 0 0 0 10.7225962
5162 5 -21.7700005 -38.1500015 -8.8330002 0 0 0 1 10 5 0 0 0 13.7670756
5171 2 -34.5699997 -36.6699982 -40.7000008 0 0 0 1 10 2 0 0 0 12.2775393
5191 2 -26.5599995 -25.4200001 -9.4989996 0 0 1 1 9 2 0 0 0 10.9525548
5271 5 -39.8300019 -42.1199989 -1.3580001 0 0 0 1 10 3 0 0 0 12.7217465
5275 2 -18.2999992 -32.5099983 -1.526 0 0 1 2 7 2 0 0 0 11.8156195
5312 1 -38.0900002 -24.2600002 -24.7600003 0 0 0 2 10 0 0 0 0 11.4661618
5316 4 -18.6200009 -17.1599999 -2.0769999 0 0 0 2 8 4 0 0 0 12.5378704
5343 5 -20.1900005 -20.7299996 -36.8499986 0 0 0 1 10 3 0 0 0 12.4734459
5347 5 -32.5099983 -1.795 -33.2700005 0 0 1 1 9 5 0 0 0 13.0641737
5360 1 -28.3700009 -31.8700008 -31.0400009 0 0 0 0 12 0 0 0 0 10.9742842
5373 4 -26.9200002 -33.2099991 -11.4300003 0 0 0 1 10 4 0 0 0 12.9310084
5375 2 -29.3500004 -35.6699982 -3.8710002 0 0 0 1 10 3 0 0 0 12.2203798
5401 1 -23.1900005 -0.7265 -20.0599995 0 0 0 1 10 2 0 0 0 11.7173968
5403 5 -21.6399994 -42.0699997 -11.6999998 0 0 0 3 6 5 0 0 0 12.0927973
5423 4 -22.4500008 -3.78 -12.7299996 0 0 1 0 11 4 0 0 0 12.6118288
5445 2 -26.1399994 -34.5999985 -6.5960002 0 0 1 2 7 2 2 0 0 12.6615353
5450 4 -27.2199993 -21.2000008 -10.6300001 0 0 0 1 12 2 0 0 0 12.6633683
5476 2 -26.8299999 -11.87 -24.5400009 0 0 0 0 12 0 0 0 0 11.3361483
5480 5 -27.8700008 -6.7340002 -34.0 0 0 0 1 10 3 0 0 0 12.8514052
5484 5 -36.3300018 -12.0100002 -19.2299996 0 0 0 3 6 4 0 0 0 11.6701393
5493 2 -32.7299996 -32.4500008 -23.2000008 0 0 0 0 12 0 0 0 0 11.360837
5506 1 -20.0200005 -31.3099995 -29.0 0 0 0 2 8 2 0 0 0 10.971777
5529 5 -30.2700005 -7.2919998 -12.1400003 0 0 0 4 7 2 1 0 0 12.8224154
5531 4 -30.2199993 -9.7790003 -24.6000004 0 0 1 0 11 3 0 0 0 12.8273459
5568 4 -29.0799999 -16.7900009 -17.8400002 0 0 0 2 10 2 0 0 0 12.7427178
5582 4 -36.0200005 -40.4900017 -2.524 0 0 0 4 6 3 0 0 0 11.9761058
5592 2 -17.0699997 -4.7989998 -39.2999992 0 0 0 4 6 2 0 0 0 12.0537758
5606 5 -22.1399994 -42.1399994 -9.2329998 0 0 1 0 11 1 0 0 0 11.4623928
5610 4 -32.3699989 -35.0 -41.3499985 0 0 0 3 6 4 0 0 0 12.2907696
5668 5 -37.0099983 -12.1599999 -15.4099999 0 0 1 2 7 4 0 0 0 11.7998724
5683 4 -28.9099998 -9.2019997 -19.0100002 0 0 0 0 12 0 0 0 0 11.1463165
5689 5 -30.6299992 -1.805 -9.3800001 0 0 1 2 8 2 3 0 0 13.6194744
5709 2 -18.6299992 -9.0120001 -41.2299996 0 0 0 3 6 4 0 0 0 11.8329077
5716 2 -23.5499993 -2.5810001 -36.3300018 0 0 1 3 5 4 0 0 0 11.2520037
5721 2 -19.2700005 -26.75 -41.5900002 0 0 0 0 12 0 0 0 0 11.0096312
5722 2 -36.6599999 -11.7799998 -41.9099998 0 0 0 0 12 0 0 0 0 11.3517666
5730 2 -38.4099999 -28.9099998 -43.7400017 0 0 0 0 12 0 0 0 0 10.7497463
5741 2 -31.7299996 -34.4199982 -37.2700005 0 0 1 0 9 3 0 0 0 11.7040663
5746 5 -25.4300003 -41.4599991 -4.1220002 0 0 0 2 8 3 0 0 0 11.9726086
5760 2 -27.6599999 -43.0 -25.7199993 0 0 0 2 8 5 0 0 0 12.6763668
5771 5 -24.2900009 -7.8249998 -0.6597 0 0 0 2 8 3 0 0 0 12.2207632
5777 2 -21.25 -5.8779998 -2.5220001 0 0 1 2 6 3 1 0 0 11.910655
5780 1 -19.9099998 -41.75 -10.0299997 0 0 0 0 12 0 0 0 0 10.4299526
5815 4 -34.8800012 -3.132 -10.3100004 0 0 1 1 9 3 0 0 0 12.4703369
5836 5 -20.9200002 -1.777 -2.7090001 0 0 0 2 9 2 1 0 0 13.0433369
5838 5 -28.0100002 -5.184 -5.9829998 0 0 0 0 12 0 0 0 0 11.4137335
5858 5 -30.2399998 -22.7900009 -20.7299996 0 0 0 0 12 2 0 0 0 12.4869528
5867 2 -37.9700012 -25.5300007 -29.5499993 0 0 2 0 9 2 1 0 0 11.7470083
5871 2 -19.4300003 -15.29 -20.1700001 0 0 0 1 10 2 0 0 0 12.181222
5881 5 -32.5600014 -37.0200005 -22.6000004 0 0 0 1 10 2 0 0 0 12.0374365
5911 5 -26.1299992 -10.4099999 -34.4399987 0 0 0 0 12 0 0 0 0 11.5966978
5938 1 -19.3400002 -28.9599992 -42.9500008 0 0 0 1 10 2 0 0 0 11.422493
5957 2 -17.8299999 -8.8549996 -18.1299992 0 0 1 3 6 3 1 0 0 11.994732
5959 5 -27.7299996 -40.0999985 -8.7229996 0 0 0 4 6 2 0 0 0 11.7719488
5960 2 -22.4699993 -20.2999992 -24.5200005 0 0 0 1 10 2 0 0 0 12.2689352
5961 2 -37.5900002 -41.1800003 -24.9400006 0 0 0 2 8 2 0 0 0 11.1329861
5992 1 -29.4200001 -17.3199997 -9.8070002 0 0 0 1 10 2 0 0 0 11.642293
6002 2 -18.5499993 -35.1699982 -26.8700008 0 0 1 0 10 3 1 0 0 12.503664
6022 4 -24.0100002 -26.9799996 -31.5599995 0 0 2 3 4 8 0 0 0 12.8269196
6051 2 -31.6700001 -18.3899994 -35.5600014 0 0 0 4 4 3 2 0 0 11.7477312
6058 5 -23.4699993 -41.6699982 -26.5900002 0 0 0 2 8 5 0 0 0 12.9666452
6059 3 -22.0499992 -21.7999993 -16.7900009 0 0 0 0 12 4 0 0 0 13.2253418
6060 4 -26.5699997 -43.25 -22.1599999 0 0 0 2 8 5 0 0 0 13.0679054
6067 1 -38.0699997 -43.75 -14.3299999 0 0 0 0 12 0 0 0 0 12.0397673
6084 5 -31.7000008 -40.0 -13.3500004 0 0 0 0 12 0 0 0 0 10.9531946
6089 4 -19.9200002 -39.2799988 -33.9799996 0 0 0 1 10 4 0 0 0 12.0477905
6105 4 -32.7400017 -8.0570002 -34.7900009 0 0 1 3 4 5 1 0 0 11.8823844
6116 2 -30.2900009 -6.3790002 -32.7200012 0 0 0 2 8 3 0 0 0 11.4484959
6135 2 -36.7900009 -24.4799996 -20.3600006 0 0 0 3 6 4 0 0 0 11.7839356
6137 5 -34.1699982 -17.7999993 -9.9449998 0 0 0 1 10 2 0 0 0 12.7273426
6145 2 -30.7800007 -19.6000004 -39.7900009 0 0 0 2 8 2 0 0 0 11.4551697
6200 5 -20.9699994 -10.2299996 -20.7099991 0 0 0 1 10 3 0 0 0 13.5072012
6209 4 -31.2700005 -1.434 -42.4799996 0 0 1 1 9 3 0 0 0 11.8075762
6239 1 -37.0 -13.5900002 -4.526 0 0 1 3 5 3 0 0 0 10.525692
6245 5 -30.2600002 -24.9300004 -34.2999992 0 0 0 0 12 3 0 0 0 12.8395692
6250 2 -33.7099991 -31.6599999 -13.2299996 0 0 0 2 10 0 0 0 0 12.364995
6261 4 -34.869999 -39.7599983 -7.5960002 0 0 0 1 10 2 0 0 0 12.3591213
6265 5 -29.4400006 -25.5100003 -6.3000002 0 0 0 1 10 2 0 0 0 11.7993164
6278 1 -18.6000004 -16.0499992 -38.7999993 0 0 0 0 12 0 0 0 0 11.0927019
6293 5 -39.2700005 -43.4399987 -16.9400006 0 0 0 1 12 2 0 0 0 13.5659476