ITEM: TIMESTEP
0
ITEM: NUMBER OF ATOMS
50688
ITEM: BOX BOUNDS xy xz yz pp pp pp
-20.3679009 72.3480988 12.4352103
-22.2159996 65.355896 0.0
-22.2159996 65.355896 0.0
ITEM: ATOMS id type x y z VoronoiIndex1 VoronoiIndex2 VoronoiIndex3 VoronoiIndex4 VoronoiIndex5 VoronoiIndex6 VoronoiIndex7 VoronoiIndex8 VoronoiIndex9 AtomicVolume
9 1 -11.25 -11.8100004 4.059 0 0 0 2 8 4 0 0 0 11.8240757
23 4 15.4300003 21.3099995 -0.4061 0 0 0 6 1 6 3 0 0 14.2159176
25 2 7.3109999 19.2299996 18.1499996 0 0 0 0 12 0 0 0 0 11.6335888
35 2 21.0799999 15.1199999 -13.0600004 0 0 0 3 10 1 0 0 0 12.2520056
42 2 21.8299999 15.5900002 -9.2399998 0 0 0 2 8 1 1 0 0 11.3616562
57 5 5.5 -4.0500002 -19.5200005 0 0 0 1 10 2 0 0 0 12.0313931
71 2 2.961 17.7700005 -14.2200003 0 0 0 1 10 2 0 0 0 11.9574022
80 5 -1.4910001 21.5400009 -16.0799999 0 0 0 2 10 0 0 0 0 11.5353432
81 4 14.0500002 -3.2149999 -9.1870003 0 0 0 0 12 0 0 0 0 11.5006905
82 5 -13.5799999 -13.9799996 -21.5599995 0 0 0 2 8 4 0 0 0 12.3902912
91 2 2.8139999 18.9599992 -10.1000004 0 0 0 0 12 2 0 0 0 11.847743
101 1 -9.0270004 -18.7600003 -4.2680001 0 0 0 2 8 2 0 0 0 11.131134
105 4 2.1800001 12.8400002 -15.9499998 0 0 0 3 6 5 0 0 0 11.8074894
110 5 -7.8410002 -17.1100006 2.5639999 0 0 0 2 8 5 0 0 0 12.053071
112 2 11.0699997 -4.1719999 14.8900004 0 0 1 2 7 3 0 0 0 11.7336273
128 5 -14.3100004 -13.2799997 7.7220001 0 0 0 3 8 2 0 0 0 12.1832485
141 5 3.7950001 7.9109998 -9.3929997 0 0 1 4 4 6 1 0 0 12.8158331
147 5 11.6400004 -2.4170001 11.1499996 0 0 1 1 9 3 0 0 0 12.0533247
159 4 14.9700004 -3.1659999 15.3500004 0 0 0 2 8 4 0 0 0 11.3648377
168 5 3.934 -7.7940002 -15.0100002 0 0 0 0 12 0 0 0 0 11.5518284
171 2 -1.719 7.5300002 -10.2399998 0 0 0 1 10 2 0 0 0 11.6360312
174 4 -8.1879997 16.2800007 11.8500004 0 0 0 2 8 4 0 0 0 12.6525936
184 2 13.2200003 -1.344 12.8800002 0 0 0 2 8 3 0 0 0 11.8909112
186 5 13.4499998 12.4200001 -15.8100004 0 0 0 3 6 5 0 0 0 12.0055885
196 5 10.4899998 -7.5419998 -2.135 0 0 0 2 10 1 0 0 0 11.7689743
214 2 0.9374 15.96 -17.8700008 0 0 0 1 10 2 0 0 0 11.6596575
217 2 -15.7299996 -7.2849999 19.5799999 0 0 0 2 10 0 0 0 0 11.5298195
220 2 -19.8899994 -19.8999996 -10.0900002 0 0 0 3 7 2 0 0 0 11.222415
243 4 3.1240001 1.924 14.1899996 0 0 0 3 6 5 0 0 0 12.0604029
244 5 11.0200005 -12.1999998 19.1100006 0 0 0 1 10 4 0 0 0 12.7609692
245 1 -8.8909998 4.2230001 -21.7299996 0 0 0 3 6 5 0 0 0 11.4864989
247 2 11.0100002 13.96 -5.0929999 0 0 0 1 10 2 0 0 0 11.9208078
254 2 -7.3829999 19.8400002 -7.3870001 0 0 0 3 8 1 0 0 0 11.6845227
273 4 19.6399994 -11.6499996 -0.3102 0 0 0 3 6 3 2 0 0 12.634594
275 4 15.3999996 -0.4375 12.0299997 0 0 0 4 6 4 0 0 0 11.8624888
288 5 -11.1000004 13.4899998 21.3400002 0 0 0 0 12 0 0 0 0 11.9175434
295 4 -3.379 3.254 -8.7370005 0 0 0 2 8 3 0 0 0 11.8195696
299 5 -0.3939 19.3299999 -19.2900009 0 0 0 1 10 2 0 0 0 11.740778
300 2 18.2199993 -8.3739996 1.688 0 0 0 3 5 3 1 0 0 11.5880041
313 5 -1.107 -13.4499998 3.615 0 0 0 2 9 3 1 0 0 13.2269116
314 5 -17.0400009 -21.2900009 3.619 0 0 1 1 9 4 0 0 0 12.6662607
327 4 -1.637 -2.4719999 14.5500002 0 0 0 3 8 2 0 0 0 11.3367825
335 1 -9.4940005 17.8700008 -14.5699997 0 0 0 3 6 4 0 0 0 11.4799414
348 4 -8.3649998 3.3440001 12.1700001 0 0 0 1 10 2 0 0 0 11.4239855
360 4 9.9989996 -20.8199997 -7.842 0 0 0 3 8 6 0 0 0 14.240345
364 4 -8.3739996 5.3280001 -15.5500002 0 0 0 2 8 2 0 0 0 11.0601053
387 4 15.3000002 -11.5 0.7479 0 0 0 0 12 2 0 0 0 12.8596544
397 1 -7.4200001 1.775 18.8999996 0 0 1 2 8 2 1 0 0 11.5337973
401 4 -14.3999996 12.75 11.3400002 0 0 0 2 8 6 0 0 0 13.0489111
410 4 7.816 -4.033 7.6830001 0 0 0 1 10 3 0 0 0 12.5467949
412 1 -5.9899998 13.87 -6.9439998 0 0 0 2 8 4 0 0 0 12.7963324
415 2 -7.7410002 2.198 -12.8000002 0 0 0 0 12 0 0 0 0 11.7449656
419 2 5.5910001 -10.1099997 -11.2700005 0 0 0 3 6 4 0 0 0 11.6534577
420 5 9.7159996 -10.4200001 -10.79 0 0 0 3 6 5 0 0 0 12.2396336
432 5 4.448 9.6420002 8.2440004 0 0 0 1 10 3 0 0 0 12.4385824
438 4 -13.2100001 -19.3799992 16.3299999 0 0 1 2 7 3 0 0 0 12.5736132
439 4 -7.8270002 18.7000008 -16.25 0 0 0 2 8 3 0 0 0 12.5496922
442 4 5.6640001 17.6000004 -18.3700009 0 0 0 2 10 2 0 0 0 12.819418
453 4 0.7459 1.874 7.954 0 0 0 4 7 3 1 0 0 13.732131
459 4 -10.3699999 1.55 -21.0699997 0 0 0 1 10 3 0 0 0 12.1720238
465 3 19.5200005 -10.04 -15.3900004 0 0 1 0 9 3 0 0 0 11.4742499
477 5 -13.0200005 -4.8150001 -3.457 0 0 0 4 4 6 0 0 0 12.7810011
485 4 7.2600002 5.099 -15.5 0 0 0 1 12 1 0 0 0 12.2076578
515 5 -1.0039999 -13.5799999 16.7900009 0 0 0 0 12 2 0 0 0 12.152029
520 5 4.9629998 -16.2000008 11.2100001 0 0 1 4 3 4 2 0 0 12.955309
533 4 10.8199997 5.4429999 -4.8210001 0 0 0 1 12 3 0 0 0 12.6997242
537 2 16.8899994 8.8030005 -9.2810001 0 0 1 2 7 2 0 0 0 11.0832367
539 2 -7.3740001 7.7140003 -21.4599991 0 0 0 3 6 4 0 0 0 11.4087143
540 5 -9.4399996 -16.8199997 0.8321 0 0 1 0 9 3 0 0 0 11.7094498
550 4 7.882 -9.9709998 12.0299997 0 0 0 1 10 4 0 0 0 12.3957253
557 2 -12.8800002 21.2900009 -9.401 0 0 0 0 12 0 0 0 0 10.8395062
562 2 3.079 -12.3100004 -21.6900006 0 0 2 2 6 3 2 0 0 12.0929375
564 4 13.3400002 -0.5785 18.0599995 0 0 1 2 7 5 0 0 0 12.3809004
567 4 6.5819998 -13.5600004 20.6900006 0 0 0 0 12 0 0 0 0 10.9953194
574 5 16.3999996 -16.3400002 -13.1499996 0 0 0 1 10 3 0 0 0 12.2362366
580 2 16.1499996 -15.6300001 -10.8100004 0 0 1 3 4 4 1 0 0 12.0111952
585 4 11.6400004 -8.757 -11.9300004 0 0 0 3 6 6 0 0 0 12.578475
603 5 -10.6300001 -18.5499993 -0.5033 0 0 0 2 10 1 0 0 0 11.3613701
620 4 2.931 17.1299992 8.0699997 0 0 1 2 7 4 2 0 0 13.1510525
622 5 1.604 -4.0229998 5.4600001 0 0 0 0 12 2 0 0 0 11.6108513
642 4 -5.1459999 3.787 -19.8799992 0 0 2 3 6 5 0 0 0 12.8758384
643 5 15.2399998 0.4118 -17.5100003 0 0 0 4 6 2 0 0 0 11.0504313
650 2 17.2199993 -12.8199997 17.2800007 0 0 0 0 12 0 0 0 0 11.2909165
653 4 -0.6395 -15.9899998 3.411 0 0 1 3 7 5 2 0 0 14.6427107
654 4 1.132 -7.685 -0.4485 0 0 0 0 12 2 0 0 0 12.5813608
656 4 5.9260002 -13.8299999 14.8900004 0 0 0 1 10 3 0 0 0 11.987606
666 4 -10.4399996 -10.6599999 -0.06228 0 0 0 0 12 0 0 0 0 11.3889437
671 2 18.4699993 -0.6749 17.4500008 0 0 0 0 12 0 0 0 0 11.2965803
673 2 10.2299996 6.079 12.3699999 0 0 0 0 12 0 0 0 0 11.2064924
679 4 9.731 14.0699997 17.7299996 0 0 0 0 12 0 0 0 0 11.2566595
683 5 -6.1739998 11.3199997 19.3500004 0 0 1 3 4 4 2 0 0 11.662446
687 5 14.2200003 -10.1499996 19.7600003 0 0 0 2 8 2 0 0 0 11.5569496
716 4 1.4370001 5.2810001 4.4229999 0 0 0 4 6 3 0 0 0 11.9304744
717 4 5.7189999 -19.4500008 1.856 0 0 0 1 10 4 0 0 0 12.2059355
728 5 5.5289998 0.5543 3.868 0 0 0 1 10 4 0 0 0 12.570571
740 2 21.1599999 4.388 17.6599999 0 0 0 3 6 4 0 0 0 11.3293934
745 4 0.5099 -15.1300001 -17.6800003 0 0 0 1 10 2 0 0 0 11.7856779
761 5 -4.23 13.3400002 -11.9700004 0 0 0 0 12 3 0 0 0 13.9090844
775 2 -3.2420001 -12.9300004 21.2999992 0 0 0 2 8 4 0 0 0 12.0126133
776 4 19.4500008 6.8270002 4.916 0 0 0 0 12 0 0 0 0 11.8535796
781 4 -7.777 -19.0499992 -11.2100001 0 0 0 2 8 4 0 0 0 12.6952048
798 5 -6.7459998 21.0400009 -3.7100001 0 0 0 1 10 2 0 0 0 11.7591009
806 4 -7.1409998 5.026 16.8600006 0 0 1 2 8 4 1 0 0 12.6831379
841 5 -9.9069996 21.4799996 -12.6400004 0 0 1 4 5 4 0 0 0 12.4428311
843 2 3.2409999 -2.747 -8.0690002 0 0 1 3 5 3 0 0 0 11.7714691
846 3 18.0699997 -14.75 -14.4499998 0 0 1 1 9 3 0 0 0 12.0543385
864 2 5.7870002 -2.9070002 0.8707 0 0 0 2 8 2 0 0 0 11.440464
897 5 5.8920002 -4.1199999 11.0100002 0 0 0 2 8 2 0 0 0 11.1994467
905 4 19.75 -3.757 -2.9300002 0 0 0 0 12 2 0 0 0 11.6176901
917 5 8.7089997 -13.0699997 20.2399998 0 0 0 0 12 0 0 0 0 11.2326393
949 2 14.4300003 4.276 21.0400009 0 0 1 1 9 3 0 0 0 11.8749828
952 2 11.2799997 0.9929 0.9438 0 0 0 0 12 2 0 0 0 12.0664921
961 2 -1.88 -19.8299999 -5.9899998 0 0 0 3 6 3 0 0 0 11.3782148
980 2 -0.2692 21.4599991 17.0699997 0 0 0 0 12 0 0 0 0 10.9547254
990 4 3.737 -14.0200005 -20.1499996 0 0 0 3 7 4 1 0 0 12.669385
996 5 13.1400003 -9.0120001 16.0100002 0 0 0 1 10 3 0 0 0 11.3091803
999 4 2.112 10.1599999 -10.0699997 0 0 0 2 10 4 0 0 0 13.1272678
1009 5 8.7119999 11.7600003 18.0200005 0 0 0 0 12 0 0 0 0 11.3008375
1018 3 23.5 18.4300003 13.6899996 0 0 0 1 9 2 1 0 0 12.0572109
1023 2 17.4599991 -2.819 -15.87 0 0 0 1 10 2 0 0 0 12.0452309
1027 4 -5.8210001 -10.0900002 18.4200001 0 0 0 0 12 0 0 0 0 11.0815954
1034 4 13.5699997 7.5159998 -14.1199999 0 0 0 1 10 2 0 0 0 11.5112314
1039 5 10.3299999 11.0500002 -21.1200008 0 0 2 3 4 2 2 0 0 12.2477293
1040 1 7.881 -14.5799999 -20.8299999 0 0 0 3 6 4 0 0 0 11.5068369
1053 4 -16.4400006 -1.12 0.09422 0 0 1 3 7 5 0 0 0 13.1626482
1063 5 16.8799992 -19.8500004 -14.87 0 0 0 1 10 2 0 0 0 11.9619676
1067 3 17.9400006 -6.3210001 -19.2099991 0 0 1 2 7 5 0 0 0 12.8699466
1068 5 -3.972 6.1430001 -1.81 0 0 0 2 8 4 0 0 0 11.6187201
1087 4 -13.3400002 16.2399998 -0.7782 0 0 1 2 7 4 0 0 0 11.8329859
1089 4 -3.1960001 -7.158 3.9430002 0 0 0 2 10 5 0 0 0 13.4698916
1091 5 -1.3940001 -15.8000002 8.0740004 0 0 1 2 7 2 2 0 0 12.2998304
1094 5 9.9919996 3.0869999 18.8799992 0 0 0 3 6 4 0 0 0 12.1475782
1101 4 -8.0500002 -15.8900004 9.901 0 0 0 3 7 2 1 0 0 11.4683256
1111 4 -13.7600003 -19.4200001 20.2000008 0 0 0 1 10 2 0 0 0 11.7356768
1113 4 13.8599998 5.125 18.6200009 0 0 2 3 6 3 0 0 0 12.3757
1119 4 17.8799992 -6.8600002 20.0100002 0 0 1 3 5 5 0 0 0 12.2950325
1127 2 -5.3990002 16.0699997 -2.7100001 0 0 0 2 10 1 0 0 0 12.3470469
1129 2 17.9899998 20.0699997 19.9099998 0 0 0 1 10 2 0 0 0 11.6190176
1143 5 -4.513 12.5299998 -0.1495 0 0 0 2 8 4 0 0 0 13.4855128
1147 4 -12.3400002 0.04311 -10.4300003 0 0 0 3 6 4 0 0 0 11.9314986
1152 2 -10.8400002 -12.04 -6.9790002 0 0 0 3 6 5 0 0 0 12.2623453
1158 2 3.4530001 14.3299999 13.3500004 0 0 0 0 12 0 0 0 0 11.9995338
1161 4 10.0299997 -0.8906 -3.027 0 0 0 1 12 2 0 0 0 12.7308426
1167 4 20.3400002 -4.4710002 -0.5146 0 0 0 0 12 0 0 0 0 10.9439832
1171 5 -0.6861 0.03679 14.1899996 0 0 0 3 8 3 0 0 0 12.0985336
1175 4 7.2579999 17.7700005 15.9399996 0 0 0 0 12 3 0 0 0 12.2936325
1185 2 9.2019997 -3.8570002 -21.4200001 0 0 0 0 12 0 0 0 0 11.2110062
1190 2 -9.9530002 -14.6099997 -16.3299999 0 0 0 0 12 0 0 0 0 11.6260586
1191 4 -12.1300001 20.5699997 -11.9099998 0 0 0 0 12 0 0 0 0 11.9411526
1207 5 11.5900002 18.7099991 18.2800007 0 0 0 1 10 2 0 0 0 12.0388193
1208 4 15.6800003 18.1399994 -4.7249999 0 0 0 4 8 2 0 0 0 12.6586066
1212 4 9.2779999 -3.0750001 11.5200005 0 0 0 3 6 5 0 0 0 12.5136633
1214 5 17.8899994 4.6859999 15.75 0 0 0 2 8 3 0 0 0 11.7575579
1217 5 -7.3629999 10.5299998 3.517 0 0 0 0 12 2 0 0 0 12.6598139
1226 4 11.29 19.4400006 -16.2299996 0 0 1 2 9 2 0 0 0 11.8509284
1243 2 0.6337 -22.1700001 18.3799992 0 0 0 3 6 4 0 0 0 11.6143437
1245 5 19.3299999 -13.9700004 1.138 0 0 1 2 7 3 0 0 0 10.953371
1246 4 10.0100002 11.5200005 -10.87 0 0 0 1 10 5 0 0 0 13.3846092
1249 2 -7.8379998 -7.6799999 21.3700009 0 0 0 3 6 6 0 0 0 12.8552114
1250 2 -5.7150002 12.6099997 6.5890003 0 0 0 1 10 3 0 0 0 12.4494868
1252 4 -15.1499996 -16.8500004 -19.2399998 0 0 0 1 10 2 0 0 0 12.2306261
1261 4 6.0560002 -0.753 -0.6144001 0 0 0 2 10 2 0 0 0 11.955452
1269 5 -15.8800002 -18.7299996 -7.3709998 0 0 0 4 6 2 0 0 0 11.986889
1270 2 0.3904 6.936 0.3331 0 0 0 2 8 4 0 0 0 11.7273436
1295 4 -3.3239999 -21.0400009 -4.112 0 0 0 3 8 4 0 0 0 12.7747965
1305 5 -1.364 18.0 14.3800001 0 0 0 5 4 4 2 0 0 13.7139883
1306 5 -4.0240002 16.7399998 -9.1169996 0 0 0 2 8 4 0 0 0 12.6405888
1318 5 -0.8274001 -3.3859999 -13.6599999 0 0 0 2 9 4 1 0 0 13.5024166
1325 4 17.4400006 21.5200005 4.4489999 0 0 1 1 9 3 0 0 0 11.6538105
1328 2 5.9910002 14.79 -5.1479998 0 0 1 2 6 2 1 0 0 11.3767557
1335 5 -3.8610002 0.3417 20.7299996 0 0 0 1 10 2 0 0 0 12.0224371
1337 4 16.1599999 -13.5100003 -7.7329998 0 0 0 3 6 4 0 0 0 11.5849171
1340 4 14.9200002 15.1300001 -0.3052 0 0 1 1 9 4 0 0 0 12.4180431
1352 4 -18.0200005 -20.5599995 17.8899994 0 0 0 2 10 1 0 0 0 11.6915503
1357 5 16.9200002 -9.3020001 -5.1820002 0 0 0 1 10 5 0 0 0 13.5963946
1371 4 17.2999992 9.231 -1.7640001 0 0 0 0 12 0 0 0 0 11.3888064
1374 4 16.5799999 -6.895 1.543 0 0 0 1 8 2 2 0 0 12.5366516
1386 2 7.5409999 1.739 4.6009999 0 0 0 3 6 4 0 0 0 11.4852553
1388 5 12.7399998 -2.731 -7.2709999 0 0 0 2 8 2 0 0 0 11.6701355
1393 4 3.869 -5.671 4.948 0 0 0 1 10 2 0 0 0 11.8441696
1415 4 1.7690001 -12.87 -2.204 0 0 0 1 12 3 0 0 0 13.3483114
1419 4 12.4300003 -17.8400002 -13.8000002 0 0 0 1 10 3 0 0 0 12.4781342
1427 5 19.2900009 -16.2999992 -2.912 0 0 0 0 12 0 0 0 0 10.8322916
1433 5 0.6835 -4.2919998 14.5 0 0 0 5 4 2 4 0 0 13.7202969
1444 4 -4.3119998 2.5510001 11.3299999 0 0 0 2 8 4 0 0 0 12.8563604
1447 4 3.0369999 -19.5 15.0900002 0 0 0 2 8 5 0 0 0 12.9876652
1450 1 18.3799992 5.4840002 -6.1750002 0 0 0 4 4 4 0 0 0 11.2873087
1452 4 -8.6450005 -7.9530002 -19.6299992 0 0 0 1 10 3 0 0 0 13.1019783
1469 2 3.5550001 -16.5499993 -1.674 0 0 0 1 10 2 0 0 0 11.6220722
1471 5 -17.5699997 -19.4200001 -11.1000004 0 0 1 3 6 2 1 0 0 11.2610197
1487 4 2.1099999 -15.3500004 -8.6759997 0 0 1 4 5 5 0 0 0 13.2798739
1504 5 9.9779998 5.6069999 -16.7000008 0 0 1 3 4 5 1 0 0 12.1277523
1516 2 17.25 18.6200009 -2.882 0 0 0 0 10 2 0 0 0 11.3944368
1528 2 19.7399998 -19.8400002 17.0 0 0 0 2 10 0 0 0 0 11.4471588
1533 2 8.7779999 1.836 -5.954 0 0 0 0 10 0 2 0 0 12.1055603
1534 4 8.2679997 16.1000004 0.8584 0 0 0 3 9 2 1 0 0 12.4948035
1543 1 -18.0499992 -16.8799992 5.7839999 0 0 0 1 10 2 0 0 0 11.5424986
1548 4 10.9300004 -15.8000002 16.5699997 0 0 1 2 7 5 0 0 0 12.6379977
1550 4 -3.56 -13.6099997 -13.04 0 0 0 2 10 2 0 0 0 12.6384754
1561 4 -13.04 4.1020002 4.6589999 0 0 0 3 7 3 1 0 0 12.6241741
1566 1 8.2469998 1.918 -8.5530005 0 0 0 1 12 2 0 0 0 13.1679735
1581 2 4.3800001 9.6289997 -3.872 0 0 1 3 7 3 0 0 0 11.6039486
1584 2 19.9200002 18.8999996 19.1599999 0 0 0 0 12 0 0 0 0 10.9223624
1585 3 -8.1920004 -18.5900002 15.0 0 0 0 2 8 3 0 0 0 11.9144106
1595 5 2.9660002 1.873 -12.6199999 0 0 0 4 7 1 1 0 0 12.2463932
1605 5 6.908 -4.8520002 -0.08712 0 0 0 2 10 0 0 0 0 12.0581036
1618 4 -1.831 -5.4489999 21.2800007 0 0 0 1 10 4 0 0 0 12.7758084
1619 5 25.2600002 20.6499996 -12.0200005 0 0 0 2 8 3 2 0 0 12.2313891
1622 4 8.441 15.1400003 -1.829 0 0 0 0 12 3 0 0 0 13.6345396
1625 4 8.1689997 -6.395 8.375 0 0 0 0 12 3 0 0 0 13.4618092
1630 4 0.03429 -15.8999996 12.3900004 0 0 0 2 8 5 0 0 0 12.7599421
1632 4 -0.4038 -5.7979999 -12.96 0 0 1 2 6 5 1 0 0 12.5139923
1644 4 6.0089998 13.4099999 13.9099998 0 0 0 0 12 3 0 0 0 13.6905499
1661 5 20.4799996 2.4300001 -19.7900009 0 0 0 1 10 2 0 0 0 12.6084156
1666 4 -17.7099991 -21.6399994 -12.1499996 0 0 0 3 7 3 0 0 0 11.8021145
1667 4 -4.6609998 9.4659996 -8.4700003 0 0 2 2 7 2 1 0 0 11.4026728
1672 4 7.829 -18.8899994 -20.4099999 0 0 0 1 10 2 0 0 0 11.9229346
1687 5 14.6899996 -0.6856 15.1400003 0 0 0 2 8 5 0 0 0 12.9849282
1694 2 17.0200005 -0.8876 3.356 0 0 0 0 12 0 0 0 0 10.7923069
1699 4 17.5200005 -7.8990002 8.4289999 0 0 0 1 10 3 0 0 0 11.9614764
1700 5 12.0100002 12.2600002 20.4599991 0 0 0 2 8 3 0 0 0 12.2289324
1705 1 -2.4360001 -13.5 -0.5446 0 0 0 1 10 3 0 0 0 11.8723192
1707 4 16.6000004 5.0349998 -12.0799999 0 0 0 2 8 4 0 0 0 12.6044693
1712 2 14.4399996 -14.1099997 -21.4099999 0 0 0 4 6 5 0 0 0 11.3134909
1714 4 16.8500004 0.5315 16.2600002 0 0 0 0 12 0 0 0 0 10.9025184
1724 2 -3.211 0.5167001 -12.5600004 0 0 0 0 10 2 0 0 0 10.9200296
1730 5 -3.7449999 -1.531 18.9699994 0 0 0 3 6 4 0 0 0 11.690382
1733 1 -7.7280002 -14.3199997 19.3500004 0 0 0 3 5 4 1 0 0 11.7279129
1737 4 11.7299996 -19.8299999 -0.8343 0 0 0 0 12 0 0 0 0 11.7938786
1743 4 -6.8920002 -17.2399998 0.3168 0 0 1 1 9 4 0 0 0 11.8947458
1745 4 -15.87 -21.5799999 17.1000004 0 0 1 1 7 2 2 0 0 11.5341912
1750 4 1.026 5.1469998 -1.3200001 0 0 0 3 8 2 0 0 0 11.869688
1751 4 -1.967 -10.2700005 -3.267 0 0 0 4 6 4 0 0 0 12.5063191
1772 2 -6.0300002 21.0699997 -20.3500004 0 0 1 3 6 4 1 0 0 12.6080933
1796 2 11.3800001 -7.902 -20.5 0 0 0 1 10 2 0 0 0 12.1622553
1803 2 14.7200003 -4.158 -6.8639998 0 0 0 4 6 4 0 0 0 12.1909266
1805 4 20.6399994 16.6299992 -18.3099995 0 0 0 0 12 0 0 0 0 11.2202711
1813 4 -15.4899998 -2.543 -7.9050002 0 0 0 4 4 6 0 0 0 11.9023858
1834 4 18.6599999 17.7999993 21.1499996 0 0 0 2 10 2 0 0 0 13.4789839
1837 4 -15.3199997 11.54 -18.5100003 0 0 0 1 10 4 0 0 0 13.3795118
1838 2 6.6459999 18.7600003 -2.888 0 0 0 0 12 0 0 0 0 11.2139769
1847 4 16.7000008 -15.8800002 -18.0599995 0 0 0 4 4 6 0 0 0 12.3375569
1849 5 -2.596 -6.9780002 -12.5900002 0 0 0 1 10 2 0 0 0 11.2396917
1853 2 19.4099999 21.3600006 -12.54 0 0 0 1 10 2 0 0 0 11.8007498
1854 4 15.4600001 -6.8080001 8.2440004 0 0 0 0 12 0 0 0 0 11.3905592
1860 2 -8.5089998 -4.1939998 -16.7000008 0 0 0 2 10 1 0 0 0 11.5638085
1864 5 22.9400006 6.151 21.0 0 0 1 2 9 2 0 0 0 12.2587948
1865 2 -17.3600006 -8.8360005 14.2100001 0 0 0 4 6 3 0 0 0 12.2458878
1868 4 -13.2700005 5.87 7.2579999 0 0 0 1 12 2 0 0 0 12.9484654
1873 4 12.5799999 -19.25 -8.5760002 0 0 1 0 11 1 0 0 0 12.0884657
1880 5 6.1620002 -18.8199997 20.4200001 0 0 0 1 10 2 0 0 0 11.2775526
1890 4 -12.1099997 -19.2000008 8.118 0 0 1 0 11 1 0 0 0 11.8260174
1893 2 9.3929997 -10.3199997 0.9582 0 0 0 0 12 0 0 0 0 11.4538927
1898 5 -13.2799997 17.2700005 21.0300007 0 0 0 2 8 4 0 0 0 12.3728142
1911 4 15.0200005 -13.1400003 5.7430001 0 0 0 3 6 5 0 0 0 12.5518446
1921 4 13.29 16.4799996 4.1960001 0 0 0 2 10 1 0 0 0 11.9035892
1925 2 12.7700005 -19.7199993 -14.96 0 0 0 1 10 2 0 0 0 12.0657311
1926 4 -2.609 8.2480002 -7.7950001 0 0 0 2 10 3 0 0 0 12.8288803
1928 4 -1.901 6.7800002 1.497 0 0 0 2 8 5 0 0 0 12.8287859
1934 4 -3.6659999 18.2099991 -6.8200002 0 0 0 0 12 2 0 0 0 13.0446587
1935 4 5.5040002 -1.312 5.7529998 0 0 0 0 12 0 0 0 0 10.8351612
1938 4 -5.099 -2.684 -9.1820002 0 0 0 2 8 2 0 0 0 10.8694506
1943 5 -6.5749998 20.8400002 -16.9200002 0 0 0 3 6 5 0 0 0 12.8713704
1947 5 -5.995 2.583 17.4099999 0 0 0 3 6 5 0 0 0 11.1979256
1948 4 -4.7069998 -3.3429999 -11.4499998 0 0 0 1 12 3 0 0 0 13.0746746
1954 5 -10.1400003 -9.5299998 14.2799997 0 0 0 2 10 1 0 0 0 12.4959507
1984 5 18.5 -22.1299992 1.187 0 0 0 1 10 3 0 0 0 12.536088
1986 4 -5.086 11.0600004 12.7100001 0 0 0 1 10 4 0 0 0 13.0122023
1993 5 -11.8800002 -6.704 -16.0699997 0 0 0 3 6 4 0 0 0 11.7946701
1996 4 -5.3909998 15.4300003 6.5570002 0 0 0 1 10 4 0 0 0 12.3858633
1998 2 -1.754 5.1009998 7.7410002 0 0 0 2 8 2 0 0 0 11.2570801
2001 4 8.5050001 -5.184 5.5180002 0 0 0 2 8 6 0 0 0 12.8045025
2006 5 -12.8000002 -9.0679998 -21.5400009 0 0 0 1 10 2 0 0 0 11.4200773
2009 4 -12.9300004 -17.4500008 -1.27 0 0 0 1 12 2 0 0 0 12.9538908
2020 2 13.0600004 -2.777 3.915 0 0 0 2 8 2 0 0 0 11.839159
2022 5 16.0100002 -12.0799999 19.2700005 0 0 0 0 12 2 0 0 0 11.9805118
2027 4 -3.994 -2.73 14.1199999 0 0 0 3 6 5 0 0 0 11.764659
2028 2 -8.8970004 7.3969998 1.5160001 0 0 0 1 10 2 0 0 0 11.727993
2050 2 -17.0300007 -19.2800007 -16.4400006 0 0 0 3 8 2 0 0 0 11.7565136
2052 5 -13.3199997 20.4699993 3.2720001 0 0 0 3 8 2 0 0 0 12.1554108
2055 4 7.355 -3.129 -10.3500004 0 0 0 1 10 4 0 0 0 12.7597046
2056 5 16.3700009 11.6999998 9.9849998 0 0 0 3 8 2 0 0 0 11.8575088
2062 2 8.434 16.0499992 -15.2600002 0 0 0 4 4 4 0 0 0 11.1395559
2070 2 -10.9300004 -21.6499996 -14.9399996 0 0 0 0 12 0 0 0 0 11.2991533
2073 4 -5.1279998 -14.1099997 -19.6499996 0 0 0 2 8 2 0 0 0 10.8930074
2081 5 -17.8799992 -14.96 1.6920001 0 0 0 0 12 0 0 0 0 11.405632
2082 2 17.2299996 16.1900005 11.4600001 0 0 0 2 10 0 0 0 0 11.7151194
2083 4 -3.8020001 -18.6700001 -13.7600003 0 0 0 1 10 3 0 0 0 12.231513
2087 5 -12.2100001 -7.855 -7.6539998 0 0 0 2 8 3 0 0 0 12.3353815
2089 1 18.0799999 -13.6899996 -18.6599999 0 0 0 3 6 4 0 0 0 11.8801136
2093 5 -4.6700001 -13.96 11.5 0 0 0 0 11 1 0 0 0 11.7173863
2095 4 -2.1659999 -8.6850004 -20.0100002 0 0 0 1 10 2 0 0 0 11.6564417
2107 5 -14.8100004 14.0 -6.4520002 0 0 0 2 10 1 0 0 0 13.0356398
2112 4 22.4300003 -2.197 10.0799999 0 0 0 1 10 2 0 0 0 12.3563099
2143 2 5.468 3.5580001 17.0300007 0 0 0 2 8 2 2 0 0 12.1732111
2154 4 17.2199993 14.6099997 -1.709 0 0 1 2 7 3 0 0 0 12.9652214
2160 2 11.5 9.8140002 2.612 0 0 0 2 8 2 0 0 0 11.4285841
2167 5 17.0499992 14.3199997 9.2770004 0 0 0 2 10 5 0 0 0 13.916543
2176 5 8.0369997 13.8199997 0.8769 0 0 0 4 5 3 1 0 0 11.545044
2178 4 -12.4600001 -19.2600002 -5.599 0 0 0 2 8 5 0 0 0 13.0918675
2181 4 -9.5369997 8.7139998 16.0599995 0 0 0 0 12 4 0 0 0 13.2761564
2185 2 -16.8299999 -21.1200008 -7.1880002 0 0 1 3 7 3 0 0 0 11.9085122
2187 2 -4.1570001 10.4799996 18.3099995 0 0 0 3 6 4 0 0 0 11.1252728
2197 2 19.7199993 17.2900009 5.8060003 0 0 0 3 8 0 0 0 0 11.1683331
2207 5 12.7299996 -8.2159996 -8.0450001 0 0 0 4 7 2 1 0 0 12.8239165
2212 4 -11.4399996 -4.1500001 -17.2999992 0 0 0 3 8 3 0 0 0 12.3753691
2241 4 3.955 -4.5840001 1.051 0 0 0 1 10 3 0 0 0 12.4901676
2274 1 -8.6239996 -19.0 0.4085 0 0 1 2 7 3 0 0 0 11.4575205
2290 4 -6.1129999 -19.3700009 12.8500004 0 0 0 2 10 4 0 0 0 13.6475296
2291 2 -13.8900004 16.4599991 -14.2399998 0 0 0 0 12 0 0 0 0 11.4437714
2295 1 6.1139998 -0.8688 17.75 0 0 0 3 8 2 0 0 0 12.0366383
2306 4 22.2700005 9.0869999 4.809 0 0 0 1 10 2 0 0 0 11.7490397
2309 5 -5.9569998 -21.75 -6.8509998 0 0 0 3 8 3 0 0 0 12.4663077
2315 4 15.6999998 0.5092 -21.4200001 0 0 0 3 6 4 0 0 0 11.9914094
2324 1 11.6499996 -9.3240004 10.25 0 0 1 3 5 4 0 0 0 11.7065382
2325 4 -17.1800003 -6.7600003 -6.923 0 0 0 1 10 3 0 0 0 12.7714377
2334 5 -1.176 9.6210003 15.3400002 0 0 0 2 8 5 0 0 0 13.0525446
2341 4 20.9099998 9.0419998 -9.8909998 0 0 0 2 8 4 0 0 0 11.7734595
2342 3 1.035 7.4060001 -15.87 0 0 0 0 12 0 0 0 0 11.5468626
2346 4 -16.8199997 -2.362 4.448 0 0 1 5 4 6 1 0 0 13.6189366
2356 3 18.7700005 -2.0799999 -9.4720001 0 0 0 0 12 0 0 0 0 12.0043278
2376 5 23.5400009 11.0900002 -18.7099991 0 0 0 3 6 5 0 0 0 12.2328129
2377 4 3.8570002 -19.5200005 21.1299992 0 0 0 0 12 0 0 0 0 11.0881672
2388 4 -5.264 8.3070002 -1.943 0 0 0 1 10 3 0 0 0 12.3086491
2389 2 -17.1499996 -15.6800003 -17.9799996 0 0 0 0 12 0 0 0 0 11.0801163
2400 2 -13.25 0.2783 21.0400009 0 0 0 4 6 3 0 0 0 11.6794663
2409 5 -7.1370001 20.9099998 19.4400006 0 0 0 4 4 5 0 0 0 12.2750797
2411 4 15.6300001 -17.7999993 -2.6670001 0 0 0 3 8 2 0 0 0 12.0315695
2414 1 0.9919 8.4429999 15.7100001 0 0 0 4 5 3 1 0 0 11.8353091
2428 4 -7.579 14.5200005 13.4099999 0 0 0 0 12 3 0 0 0 12.999569
2430 2 17.7099991 -22.2099991 -22.1499996 0 0 1 2 5 4 0 0 0 11.5276327
2437 2 -12.4300003 10.3299999 18.6499996 0 0 0 2 8 2 0 0 0 11.6784411
2438 1 8.955 -9.4309998 -1.2410001 0 0 0 0 12 0 0 0 0 10.886675
2440 4 10.1700001 -11.5900002 -1.062 0 0 1 1 8 3 1 0 0 12.3985157
2465 5 -3.6410001 -9.2220001 6.8530002 0 0 0 2 8 3 0 0 0 11.3098812
2476 1 9.9200002 -21.5200005 19.5100003 0 0 0 3 6 4 0 0 0 11.5292387
2480 4 12.6899996 12.0200005 -20.3600006 0 0 1 0 11 4 0 0 0 13.0661802
2502 4 -7.3130002 -9.6230002 -2.4419999 0 0 1 2 7 5 0 0 0 12.2583733
2504 2 -10.2100001 -8.4329996 -14.4499998 0 0 0 1 10 2 0 0 0 11.6689854
2509 4 -10.1999998 18.25 -20.7600003 0 0 0 1 10 2 0 0 0 11.5171519
2510 4 22.6599999 -0.1013 6.6350003 0 0 1 2 7 5 0 0 0 12.7865067
2511 5 -6.9439998 7.0279999 -3.7579999 0 0 0 5 2 6 0 0 0 11.8176356
2519 4 6.5689998 -8.4250002 17.25 0 0 0 2 9 2 0 0 0 11.8215504
2520 4 1.295 -18.2900009 -6.1100001 0 0 0 3 6 5 0 0 0 12.5272904
2521 2 4.8540002 6.0929999 13.3999996 0 0 0 2 10 1 0 0 0 12.3238001
2526 2 -6.75 17.2700005 18.2800007 0 0 0 4 8 1 0 0 0 11.9431858
2534 5 -7.5819998 9.8900004 -17.0900002 0 0 0 3 6 6 0 0 0 13.0847034
2535 5 -7.046 -4.1760001 3.977 0 0 0 1 10 4 0 0 0 13.1385269
2565 4 -7.7550001 9.9259996 -22.0 0 0 0 3 8 2 0 0 0 11.5676108
2577 3 -2.0420001 -2.1140001 10.4700003 0 0 0 1 10 5 0 0 0 12.8364048
2582 2 2.415 14.8400002 -11.5799999 0 0 0 2 10 1 0 0 0 11.6996889
2587 4 23.3700009 16.6900006 9.4329996 0 0 0 1 10 4 0 0 0 12.682684
2588 2 21.5799999 13.5100003 -10.2100001 0 0 0 2 8 4 0 0 0 11.4337044
2590 4 -7.6180001 11.9200002 11.6099997 0 0 0 0 12 3 0 0 0 13.1248093
2592 3 -14.2600002 15.5500002 -20.6000004 0 0 0 2 8 5 0 0 0 12.8416128
2594 2 3.885 3.995 -17.2399998 0 0 0 2 8 2 0 0 0 11.911336
2600 1 11.8999996 18.8199997 10.4300003 0 0 0 3 6 5 0 0 0 11.7989693
2608 5 2.5869999 -9.3809996 10.0699997 0 0 0 2 8 5 0 0 0 12.3708344
2613 5 -11.9700004 -10.2200003 20.4899998 0 0 0 1 10 2 0 0 0 12.6429377
2615 2 6.059 -20.2700005 6.4640003 0 0 2 2 5 3 1 0 0 11.3820019
2648 2 1.604 -4.6230002 -14.2299996 0 0 1 0 9 3 0 0 0 11.7061358
2651 4 12.2600002 -19.8600006 9.8690004 0 0 0 0 12 2 0 0 0 12.4507618
2659 4 16.4099999 -2.934 -8.7469998 0 0 0 0 12 2 0 0 0 12.6104527
2672 2 -10.7799998 -13.5900002 11.3400002 0 0 1 2 9 2 0 0 0 12.4569464
2677 4 21.1200008 19.2000008 6.3899999 0 0 0 1 10 2 0 0 0 12.0059729
2680 4 15.9200002 -6.6279998 18.4099999 0 0 0 4 4 6 0 0 0 12.5505724
2692 4 -17.8600006 -8.3879995 -4.2740002 0 0 0 2 10 4 0 0 0 13.4794503
2706 4 13.8199997 4.5180002 -12.5799999 0 0 0 3 8 3 0 0 0 12.4215613
2715 4 5.1760001 -4.5980001 17.9599992 0 0 0 2 8 4 0 0 0 12.5886822
2719 4 1.041 -7.2459998 -11.3000002 0 0 0 1 10 2 0 0 0 12.6338854
2723 4 21.6399994 10.3400002 2.862 0 0 0 0 12 4 0 0 0 13.1703157
2741 5 12.9700004 13.5 1.294 0 0 0 0 12 0 0 0 0 11.3228636
2771 5 6.4050002 -17.3199997 9.6379996 0 0 0 4 8 1 0 0 0 12.1928072
2773 2 8.1610003 -17.6399994 -15.2100001 0 0 0 1 10 2 0 0 0 12.6035652
2784 5 -3.513 -19.4200001 1.934 0 0 0 2 8 0 2 0 0 12.1389399
2803 5 -9.474 -13.9499998 -8.1149998 0 0 0 1 10 2 0 0 0 11.7153216
2805 4 14.2200003 11.79 -2.5880001 0 0 0 3 10 2 0 0 0 13.4769659
2813 4 -8.2930002 -5.7909999 -10.0600004 0 0 3 2 5 5 0 0 0 12.5141382
2823 4 -0.4826 -20.4899998 20.1299992 0 0 0 0 12 2 0 0 0 12.9566822
2830 4 -3.928 21.0799999 11.3100004 0 0 1 2 8 3 1 0 0 12.5449734
2840 2 -5.368 19.7700005 3.81 0 0 0 3 8 1 0 0 0 11.7752848
2848 4 -4.4070001 -6.5630002 6.3330002 0 0 0 4 6 2 0 0 0 12.1173086
2850 4 -3.9260002 5.0760002 11.0600004 0 0 0 2 10 2 0 0 0 13.0020351
2860 1 3.2550001 -0.1456 -18.5599995 0 0 0 2 10 0 0 0 0 11.6597882
2862 3 17.75 -20.3500004 -10.6499996 0 0 0 1 10 3 0 0 0 12.1306543
2864 4 -3.9030002 18.7399998 20.7900009 0 0 1 2 9 2 0 0 0 11.9409904
2871 5 -8.2360001 15.75 -12.6199999 0 0 0 1 10 4 0 0 0 13.1036921
2878 2 0.6362 -6.02 8.8310004 0 0 0 3 8 2 0 0 0 11.258627
2900 4 2.8210001 5.4949999 -21.5400009 0 0 0 2 8 3 0 0 0 11.8133383
2911 4 2.4040001 19.8299999 -12.4799996 0 0 0 0 12 2 0 0 0 11.9309092
2921 5 19.9799996 -14.1000004 3.4040001 0 0 0 2 8 5 0 0 0 12.5212384
2929 4 -14.4499998 -12.6899996 -12.9700004 0 0 0 3 8 3 0 0 0 11.9562836
2942 4 -4.914 -17.5 14.2799997 0 0 0 2 8 2 0 0 0 12.3653727
2961 4 0.9746 -9.7430001 -9.9099998 0 0 0 1 12 2 0 0 0 13.2597885
2994 4 -5.5970001 -8.6090002 -0.8657 0 0 0 2 8 6 0 0 0 13.1070862
2995 2 7.0560002 -1.538 15.2700005 0 0 1 1 8 3 1 0 0 12.0073709
2997 2 -16.9400006 -7.243 -20.7000008 0 0 1 1 9 2 2 0 0 12.0620861
2999 2 19.4400006 21.2999992 0.8799 0 0 1 2 6 3 1 0 0 12.0567799
3019 4 19.7099991 17.2099991 -9.1199999 0 0 0 1 12 3 0 0 0 14.1460314
3020 5 16.2600002 6.5079999 -19.3500004 0 0 0 3 7 3 1 0 0 12.2415342
3021 5 -4.1659999 -8.349 1.267 0 0 0 1 10 3 0 0 0 12.2837172
3024 5 -2.912 8.6590004 -21.1399994 0 0 0 1 10 4 0 0 0 13.2413492
3048 4 3.359 12.0 14.5799999 0 0 0 0 12 3 0 0 0 13.5314322
3056 4 12.5900002 -15.0500002 -7.7750001 0 0 0 1 10 2 0 0 0 12.0738745
3064 2 16.1599999 -14.4700003 -19.9400006 0 0 1 4 5 4 0 0 0 11.3359461
3070 4 13.8800002 5.2069998 14.5200005 0 0 0 3 10 1 0 0 0 12.0874338
3072 4 -13.1199999 -4.217 -19.2600002 0 0 0 1 10 3 0 0 0 12.6656409
3083 4 -12.2299996 -10.4799996 -8.6129999 0 0 0 4 4 8 0 0 0 13.1418152
3101 5 20.7099991 1.675 -6.085 0 0 0 3 6 4 0 0 0 11.9638234
3110 2 6.4720001 17.7600003 1.653 0 0 0 1 10 2 0 0 0 12.0739031
3119 5 14.25 11.6700001 13.75 0 0 0 0 12 2 0 0 0 12.3194819
3126 2 -13.8500004 -1.189 18.1800003 0 0 0 3 7 3 1 0 0 11.5207539
3129 2 2.6070001 16.0699997 -7.4310003 0 0 0 0 12 0 0 0 0 11.4470034
3137 2 3.974 -2.266 -19.2299996 0 0 1 3 7 2 0 0 0 12.2365475
3142 2 -8.3699999 14.4799996 -16.5900002 0 0 0 0 12 2 0 0 0 13.1230526
3145 2 -4.369 -21.0499992 -9.0629997 0 0 0 1 10 2 0 0 0 11.7892552
3164 2 17.2999992 -15.2299996 0.4211 0 0 0 3 8 2 0 0 0 11.0220814
3169 5 -2.2249999 17.9400006 7.4289999 0 0 1 2 6 6 1 0 0 13.1573381
3174 4 -4.4429999 -3.8740002 17.9099998 0 0 0 1 10 2 0 0 0 11.3177691
3190 2 1.017 14.8599998 9.0170002 0 0 0 4 4 5 0 0 0 12.0487413
3193 2 17.1200008 2.698 8.7430001 0 0 1 2 9 1 0 0 0 12.1286345
3219 4 -3.628 8.1639996 19.2800007 0 0 0 2 10 2 0 0 0 12.1535111
3223 4 18.0799999 -15.5299998 -20.7999993 0 0 0 2 8 4 0 0 0 13.009347
3231 5 13.1300001 19.4300003 3.526 0 0 0 1 10 4 0 0 0 13.5478716
3238 5 2.412 -20.8799992 19.1200008 0 0 0 1 10 4 0 0 0 12.847189
3240 1 -13.5500002 20.1900005 -3.4430001 0 0 1 2 7 4 0 0 0 11.7042017
3242 2 -2.303 1.553 13.2100001 0 0 0 3 6 5 0 0 0 12.5666094
3248 4 -17.8199997 -6.0679998 7.0079999 0 0 1 0 11 2 2 0 0 13.2910528
3253 5 8.6499996 5.322 10.5600004 0 0 0 2 10 3 0 0 0 12.7055245
3257 4 1.936 -15.4700003 -21.3099995 0 0 1 0 11 1 0 0 0 11.2285185
3274 2 -1.775 16.4599991 17.3299999 0 0 0 2 8 4 0 0 0 12.1523905
3278 4 15.9799996 -7.6279998 -18.6299992 0 0 0 2 8 3 0 0 0 11.3671818
3282 5 6.4689999 15.6199999 20.3799992 0 0 0 1 10 4 0 0 0 13.5136032
3298 5 -4.934 1.164 9.2030001 0 0 0 4 4 7 0 0 0 12.6882944
3303 5 -5.8839998 -7.2480002 14.4499998 0 0 0 1 10 2 0 0 0 11.4710369
3313 2 -2.244 -7.5900002 6.052 0 0 0 3 6 4 0 0 0 11.3349533
3317 5 14.6599999 4.7870002 1.168 0 0 0 0 12 0 0 0 0 11.5111227
3323 5 12.6999998 14.7299996 -16.3500004 0 0 0 2 8 5 0 0 0 12.6951771
3338 5 0.8555 -4.5209999 -18.8700008 0 0 1 1 9 2 0 0 0 10.9003048
3351 1 -9.5010004 17.8400002 10.6499996 0 0 0 0 12 0 0 0 0 11.4346915
3355 5 -13.1300001 17.6000004 -8.3800001 0 0 0 1 10 4 0 0 0 12.6628046
3361 5 -10.8100004 9.2880001 11.8500004 0 0 0 2 10 2 0 0 0 11.5990334
3366 1 6.0809999 19.7000008 -19.8799992 0 0 1 1 9 3 0 0 0 12.266182
3370 4 9.158 1.097 6.079 0 0 0 4 6 4 0 0 0 12.3151722
3375 4 20.9200002 21.4300003 5.066 0 0 1 2 7 5 0 0 0 12.8685198
3383 4 -11.3199997 2.323 5.3639999 0 0 0 2 8 4 0 0 0 12.6556463
3386 2 -14.1000004 -2.8540002 9.1020002 0 0 0 3 6 4 0 0 0 12.2037039
3387 5 -5.0050001 -6.2659998 -17.0599995 0 0 0 2 8 2 0 0 0 11.632289