ITEM: TIMESTEP
0
ITEM: NUMBER OF ATOMS
50688
ITEM: BOX BOUNDS xy xz yz pp pp pp
-20.3673 64.8168946 4.904592
-22.2210007 65.3610001 0.0
-22.2210007 65.3610001 0.0
ITEM: ATOMS id type x y z VoronoiIndex1 VoronoiIndex2 VoronoiIndex3 VoronoiIndex4 VoronoiIndex5 VoronoiIndex6 VoronoiIndex7 VoronoiIndex8 VoronoiIndex9 AtomicVolume
7 2 -10.1499996 -13.87 -3.346 0 0 0 1 10 2 0 0 0 11.8768312
21 2 -12.9300004 1.879 14.25 0 0 0 2 10 0 0 0 0 11.4209252
26 5 -14.6400004 -17.3299999 -9.1759996 0 0 0 3 8 4 0 0 0 12.8787584
28 2 5.6180001 4.947 -10.1499996 0 0 0 0 12 0 0 0 0 10.6018381
36 2 14.2299996 -15.3000002 -20.9099998 0 0 0 0 12 0 0 0 0 11.3821898
38 5 9.3070002 -11.2200003 17.5300007 0 0 0 0 12 0 0 0 0 12.4053278
42 2 11.9899998 -3.504 -21.3299999 0 0 0 0 12 0 0 0 0 11.2626076
43 5 0.8969 12.6300001 10.2200003 0 0 0 3 6 5 0 0 0 12.10989
50 2 14.3500004 -3.484 -22.0200005 0 0 0 0 12 0 0 0 0 10.9765798
61 4 -10.8999996 -8.698 -3.2579999 0 0 0 2 8 4 0 0 0 12.2998963
66 4 -16.6800003 -5.757 -2.3959999 0 0 0 2 8 5 0 0 0 12.9636022
68 1 -16.25 -0.6467 2.8570002 0 0 1 3 3 4 0 0 0 10.8687202
98 2 3.599 -8.2959995 19.0 0 0 0 0 12 0 0 0 0 10.8972922
119 5 -16.7199993 21.4300003 -4.935 0 0 2 0 8 4 0 0 0 12.4059715
128 5 -10.3699999 6.2940002 -10.96 0 0 0 3 6 6 0 0 0 12.9184714
145 4 -4.0029998 -22.1499996 -19.4599991 0 0 0 0 12 2 0 0 0 12.9046774
146 4 3.2809999 9.2650004 -11.2600002 0 0 0 0 12 2 0 0 0 13.2078781
150 2 -12.6400004 7.7519999 9.2100001 0 0 0 3 6 3 0 0 0 11.2627573
171 2 7.197 -0.5125 -3.0280001 0 0 0 1 10 2 0 0 0 11.8276644
176 5 11.8800002 -20.2299996 11.6099997 0 0 0 1 10 3 0 0 0 12.1133623
177 5 14.1400003 14.4399996 -19.7399998 0 0 0 2 8 4 0 0 0 12.0937891
181 5 -6.0500002 -11.1999998 5.9070002 0 0 0 0 12 0 0 0 0 11.211298
191 5 -10.8500004 5.6810003 -13.4799996 0 0 0 0 12 3 0 0 0 13.0416851
200 4 -15.2700005 -11.2399998 12.0299997 0 0 0 2 7 5 0 0 0 11.63657
216 2 14.2299996 16.7700005 11.9200002 0 0 0 0 12 0 0 0 0 11.4279413
219 4 11.9200002 -2.7839999 15.8900004 0 0 0 0 12 0 0 0 0 11.4221173
220 2 -5.1900001 17.7399998 -5.3350001 0 0 0 1 10 2 0 0 0 11.6889067
231 4 -13.9799996 3.5190001 6.9200002 0 0 1 0 11 1 0 0 0 11.8461066
240 2 2.7420001 10.6899996 6.1240001 0 0 0 2 8 4 0 0 0 11.844225
243 4 7.5799999 18.0499992 -2.2980001 0 0 0 1 10 3 0 0 0 11.9311296
244 5 -6.3410001 -12.6400004 -20.4200001 0 0 0 0 12 0 0 0 0 11.783453
245 1 18.3099995 -17.3400002 5.5710001 0 0 0 4 4 5 0 0 0 11.5938025
249 4 -5.0539999 -6.039 18.8500004 0 0 0 1 10 5 0 0 0 13.0136271
260 2 -16.2900009 6.5240002 -15.6599999 0 0 0 2 8 2 0 0 0 11.2236195
262 2 2.533 2.951 9.3070002 0 0 1 2 8 2 1 0 0 12.6018763
263 1 -6.6149998 -2.7590001 -16.2800007 0 0 0 0 12 0 0 0 0 11.2928085
266 5 19.3799992 -17.8400002 16.5200005 0 0 1 2 7 2 2 0 0 11.8725042
272 4 -18.6000004 -9.1639996 -18.5300007 0 0 0 0 12 2 0 0 0 12.1570587
277 4 -13.6800003 -0.3859 -6.6929999 0 0 0 3 7 3 1 0 0 12.4862423
283 5 -1.744 10.6300001 -10.9499998 0 0 0 1 10 4 0 0 0 12.6445475
298 4 -5.046 17.5200005 3.526 0 0 0 1 10 5 0 0 0 12.8823014
301 1 -12.4200001 18.7199993 20.25 0 0 0 4 6 3 0 0 0 11.9614736
311 5 -10.3599997 14.0600004 -4.8060003 0 0 0 3 8 5 0 0 0 13.9597064
318 5 -1.6390001 -14.2299996 -6.2199998 0 0 0 2 8 2 0 0 0 12.0103941
322 4 -8.2889996 -8.467 3.204 0 0 0 0 12 2 0 0 0 12.9221202
335 1 -16.2399998 -18.5599995 -5.744 0 0 0 2 8 3 0 0 0 11.9992304
336 4 -9.6700001 -16.3799992 -2.3900001 0 0 0 2 8 5 0 0 0 12.5817118
362 5 -8.3789997 -9.7209997 -4.2979999 0 0 0 1 10 4 0 0 0 13.9168168
370 5 -14.4300003 -17.1399994 -11.6099997 0 0 0 1 12 1 0 0 0 12.4425955
372 5 11.3100004 -19.8299999 3.2490001 0 0 0 4 4 5 0 0 0 11.9906636
377 5 -4.204 15.8900004 -0.6827 0 0 1 1 9 4 0 0 0 13.0572252
398 1 -1.357 0.4829 -1.102 0 0 1 1 7 5 0 0 0 11.8639784
416 2 -7.8610002 -21.1399994 -11.4799996 0 0 0 2 8 3 0 0 0 11.6787071
431 2 -4.1009998 19.7299996 -19.5499993 0 0 0 2 8 2 0 0 0 11.4618979
439 4 -15.2299996 -8.3360005 15.4399996 0 0 1 3 7 4 0 0 0 12.6012297
442 4 3.395 -21.0300007 -12.6099997 0 0 0 1 10 4 0 0 0 13.4802199
452 4 -12.3599997 -21.8999996 -20.3700009 0 0 0 0 12 0 0 0 0 11.1971741
482 4 7.355 -0.3256 -19.4599991 0 0 0 3 8 4 0 0 0 12.6925783
506 4 -2.2320001 -0.1244 16.2299996 0 0 0 0 12 3 0 0 0 12.6390391
527 5 11.4300003 -5.145 4.7420001 0 0 0 3 8 3 0 0 0 12.3196068
531 5 21.2000008 6.514 12.8599998 0 0 0 3 6 6 0 0 0 12.7614928
537 2 2.8050001 17.9699994 4.8260002 0 0 1 2 7 2 0 0 0 11.2284088
539 2 1.471 -21.9699994 -16.4099999 0 0 1 3 6 3 1 1 0 12.4407549
548 4 0.8338 -8.1949997 1.458 0 0 1 0 9 3 0 0 0 11.8415432
549 5 -14.3599997 12.5 -17.1399994 0 0 0 1 10 3 0 0 0 11.9764062
553 4 10.0600004 4.8579998 -21.5599995 0 0 0 0 12 0 0 0 0 11.5647021
559 4 16.7399998 5.7350002 -21.5900002 0 0 1 2 7 3 0 0 0 11.5176916
561 4 5.3410001 15.5 -5.684 0 0 0 2 8 3 0 0 0 11.8355656
564 4 -2.6819999 4.316 -11.6000004 0 0 1 1 9 3 0 0 0 12.4915009
569 2 9.8950006 -3.266 4.5019999 0 0 1 2 5 5 0 0 0 11.5505219
570 4 -15.04 -20.5400009 -6.066 0 0 0 3 6 4 0 0 0 11.5194941
571 5 -13.1499996 5.8010001 8.0860004 0 0 1 1 8 3 1 0 0 12.6659203
587 5 19.9599992 16.9300004 16.4899998 0 0 0 1 10 2 0 0 0 11.894207
597 2 0.1786 -17.5599995 -13.6199999 0 0 1 2 7 3 0 0 0 11.5307923
613 5 17.5300007 -5.1110001 -1.7430001 0 0 0 4 6 4 0 0 0 11.8868732
618 2 0.6985 6.6269999 -12.7799998 0 0 0 0 12 0 0 0 0 11.4414635
623 4 17.9400006 17.0799999 4.6370001 0 0 1 3 7 3 0 0 0 12.4897166
638 5 -11.0200005 -8.7189999 9.0129995 0 0 0 2 8 3 0 0 0 11.8604574
643 5 -10.4899998 4.1609998 2.1210001 0 0 0 2 8 2 0 0 0 10.923686
645 5 -11.3199997 16.5799999 5.9829998 0 0 0 2 10 1 0 0 0 11.7135811
654 4 5.0110002 -17.1000004 0.9239 0 0 0 5 2 6 0 0 0 12.0826082
671 2 4.0700002 -9.7159996 9.3100004 0 0 0 0 12 0 0 0 0 11.2012863
681 2 -14.4399996 20.2399998 -8.3219996 0 0 0 3 6 4 0 0 0 11.4365855
699 5 19.5900002 3.5 2.938 0 0 0 3 8 3 0 0 0 13.2297373
718 2 -19.5499993 -19.9200002 -18.0100002 0 0 0 3 6 3 0 0 0 11.83739
727 5 -4.77 -20.8400002 21.2600002 0 0 0 3 7 3 1 0 0 12.7219963
729 1 2.4560001 -22.0400009 9.2530003 0 0 0 2 8 4 0 0 0 11.7846098
741 4 5.2989998 15.6700001 1.842 0 0 0 3 6 5 0 0 0 12.385375
742 4 14.0 2.612 9.441 0 0 0 5 3 4 1 0 0 12.0675545
755 5 16.0 -14.3100004 -17.5400009 0 0 0 2 8 4 0 0 0 11.6500054
758 2 7.5840001 11.9099998 14.9300004 0 0 0 2 10 0 0 0 0 11.7302017
760 1 9.3140001 8.9200002 -17.2800007 0 0 0 0 12 0 0 0 0 11.2355738
762 5 20.3999996 -5.3800001 -8.0970001 0 0 0 3 6 6 0 0 0 12.3499794
765 1 -1.6770001 12.1300001 -21.3500004 0 0 1 0 11 1 0 0 0 11.3898993
818 5 7.777 10.1599999 5.56 0 0 0 3 6 5 0 0 0 12.1995287
842 5 11.9799996 1.143 -6.6620002 0 0 0 1 10 2 0 0 0 12.5360832
849 4 -1.734 3.434 12.0500002 0 0 1 2 7 4 0 0 0 12.5883398
850 5 5.322 18.2900009 -17.9500008 0 0 0 0 12 0 0 0 0 11.1600838
870 2 -18.4300003 9.9960004 -1.5340001 0 0 0 0 12 0 0 0 0 11.5249558
882 3 -7.3600001 16.4699993 16.2800007 0 0 0 2 8 5 0 0 0 14.1392403
899 4 -0.2486 -9.4499998 -0.5677001 0 0 0 0 12 2 0 0 0 11.8417874
901 4 1.561 19.2700005 -1.39 0 0 0 0 12 2 0 0 0 12.3758888
915 5 -4.0380001 -22.1599999 -3.934 0 0 0 2 8 4 0 0 0 12.9628764
926 5 0.6774 7.7410002 9.0389996 0 0 0 0 12 3 0 0 0 13.196497
936 1 2.355 13.3199997 -14.8800002 0 0 0 0 12 0 0 0 0 10.9803792
941 5 2.9030002 5.211 14.0500002 0 0 0 1 10 3 0 0 0 12.908452
946 4 -0.8499 -13.4099999 20.9400006 0 0 0 0 12 2 0 0 0 12.1202126
950 3 -1.08 -1.5060001 6.3979998 0 0 0 1 10 5 0 0 0 13.0591869
951 5 9.9499998 16.9400006 -1.39 0 0 0 2 10 4 0 0 0 13.4261379
958 5 14.25 8.2189999 -2.0969999 0 0 0 2 8 2 0 0 0 11.2309828
961 2 -1.2410001 18.6800003 -17.3999996 0 0 2 1 8 3 0 0 0 12.3074951
962 4 -5.3179999 -14.6899996 -11.4600001 0 0 1 1 9 3 0 0 0 12.0441532
963 5 -7.7280002 -12.5 -15.2299996 0 0 1 3 6 3 1 0 0 11.8259602
978 4 -17.1800003 -19.7000008 13.5 0 0 1 1 9 2 2 0 0 12.4485016
990 4 12.8299999 16.7299996 -1.202 0 0 0 1 10 3 0 0 0 13.4354935
995 1 2.626 -17.1900005 13.1800003 0 0 0 0 12 2 0 0 0 11.8421192
1007 2 4.1799998 -4.9250002 -2.5090001 0 0 0 0 12 0 0 0 0 11.0296145
1010 4 -15.3699999 3.6589999 -20.7199993 0 0 0 1 10 4 0 0 0 12.2564049
1025 1 3.5439999 -12.87 11.8400002 0 0 0 3 6 5 0 0 0 11.3648777
1027 4 19.3899994 -9.5979996 8.4689999 0 0 0 0 12 3 0 0 0 13.1225367
1047 4 -8.5810004 20.9400006 2.7230001 0 0 0 2 8 4 0 0 0 12.611291
1050 1 2.122 -10.1599999 18.2700005 0 0 0 2 8 1 0 0 0 10.7964077
1051 4 6.5580001 16.9099998 -19.6399994 0 0 0 0 12 0 0 0 0 11.6316958
1055 2 11.0799999 5.408 -8.1929998 0 0 1 1 9 3 0 0 0 11.4677935
1057 4 14.3299999 -8.3380003 -11.9799996 0 0 0 2 8 4 0 0 0 12.1336966
1059 4 -4.5939999 13.1999998 2.961 0 0 0 4 4 7 0 0 0 12.5276919
1063 5 -9.7089997 9.4870005 9.6000004 0 0 1 1 7 5 0 0 0 12.6454659
1068 5 -18.1499996 14.9099998 -3.2190001 0 0 0 1 10 3 0 0 0 12.1858244
1072 4 -11.5 21.4200001 9.6199999 0 0 0 2 8 5 0 0 0 12.99961
1089 4 14.0 -20.5100003 -16.3600006 0 0 0 0 12 3 0 0 0 11.8879414
1094 5 -17.3099995 0.7509 11.2700005 0 0 0 1 10 2 0 0 0 12.1335974
1110 5 3.7290001 -2.609 18.7600003 0 0 0 2 10 4 0 0 0 12.3579445
1118 1 15.8100004 -13.9099998 0.9525 0 0 0 0 12 0 0 0 0 11.1679096
1128 2 4.4920001 -19.3199997 0.616 0 0 1 0 9 3 0 0 0 10.9844418
1153 5 7.527 -15.2299996 19.0900002 0 0 0 1 9 2 1 0 0 12.7390557
1159 4 5.27 -9.936 15.2100001 0 0 0 2 8 4 0 0 0 11.85069
1167 4 -5.4959998 20.9300004 -12.3599997 0 0 0 3 6 4 0 0 0 12.1734476
1169 2 17.6800003 2.017 -19.7999993 0 0 0 0 12 0 0 0 0 10.8821058
1178 2 8.9720002 6.0939999 9.8450004 0 0 1 3 4 3 1 1 0 12.1532507
1187 5 -2.1389999 18.3999996 -13.6599999 0 0 1 1 9 4 0 0 0 12.7174435
1188 4 13.4200001 16.0200005 8.0970001 0 0 0 0 12 2 0 0 0 11.9226752
1190 2 7.1760001 -17.8999996 -16.9799996 0 0 0 1 9 2 1 0 0 11.3169546
1194 5 -16.1299992 12.6499996 17.4099999 0 0 0 1 10 2 0 0 0 11.9376764
1199 4 -13.4399996 -10.0799999 -15.1800003 0 0 1 0 11 3 0 0 0 12.4699106
1214 5 -8.25 8.6709996 -21.6399994 0 0 1 4 4 5 1 0 0 12.6079369
1222 1 -6.6659999 16.6299992 -1.772 0 0 0 2 8 3 0 0 0 12.4077339
1244 3 -6.848 -10.7100001 -9.382 0 0 0 0 12 0 0 0 0 11.0866346
1247 1 14.1000004 0.9662 -20.1800003 0 0 0 2 8 2 0 0 0 11.7030211
1261 4 7.0430002 18.5 20.5100003 0 0 1 3 4 5 1 0 0 11.8641358
1264 2 12.3400002 16.9899998 10.4200001 0 0 0 1 10 2 0 0 0 11.3169003
1272 4 19.2700005 18.7000008 -9.2480002 0 0 0 3 6 4 0 0 0 11.6384697
1276 4 -17.6200009 -20.6499996 8.9639998 0 0 0 3 6 5 0 0 0 11.80653
1280 5 -6.3660002 1.324 -11.5500002 0 0 0 1 10 2 0 0 0 12.086113
1283 4 21.0300007 2.563 12.9099998 0 0 0 2 10 2 0 0 0 12.5914669
1288 5 -8.8210001 -9.3179999 15.9399996 0 0 0 5 6 2 0 0 0 12.6058665
1299 4 -1.6260001 -11.0600004 6.4050002 0 0 0 1 10 4 0 0 0 13.4967032
1302 4 9.4289999 -1.579 -18.5799999 0 0 1 3 5 6 0 0 0 12.3976536
1303 2 -2.464 5.3800001 -0.1539 0 0 0 2 8 2 0 0 0 11.7171517
1305 5 10.6000004 13.9700004 4.7140003 0 0 0 0 12 2 0 0 0 12.5114565
1320 2 -9.962 12.7399998 12.1800003 0 0 0 0 12 0 0 0 0 11.4603682
1338 2 -6.329 20.6800003 -19.0 0 0 0 2 8 2 0 0 0 11.4380961
1339 5 7.882 2.326 3.7660001 0 0 0 2 8 5 0 0 0 13.2840233
1342 4 -7.8740002 18.5799999 18.0400009 0 0 0 1 10 4 0 0 0 12.6542273
1363 2 -6.0019999 -4.3720002 2.6140001 0 0 1 3 7 4 0 0 0 12.1917076
1365 4 18.0799999 -9.9379998 -16.8500004 0 0 0 1 10 4 0 0 0 12.7012863
1370 4 -16.7600003 -19.9799996 15.8900004 0 0 1 2 8 1 3 0 0 13.1395626
1377 4 -3.868 -4.0029998 -12.3599997 0 0 0 4 6 3 0 0 0 12.4780941
1387 3 -12.1800003 -22.0699997 6.4299999 0 0 0 1 10 4 0 0 0 13.3178148
1391 4 7.6430002 21.5599995 -13.2299996 0 0 0 4 8 2 0 0 0 12.4276591
1398 4 -18.0599995 -6.5510001 -17.3500004 0 0 1 2 7 4 2 0 0 13.3067761
1434 5 -8.9700004 9.0810003 -11.2100001 0 0 0 5 4 4 0 0 0 12.1519203
1435 4 -18.4799996 -12.0699997 -3.2130001 0 0 0 0 12 2 0 0 0 12.6122799
1445 2 6.4549999 3.0539999 8.415 0 0 0 2 8 2 0 0 0 11.9478656
1456 4 -6.5869999 -10.3699999 -19.8999996 0 0 0 3 8 4 0 0 0 12.3845682
1457 4 -5.1770001 2.971 3.671 0 0 0 1 10 2 0 0 0 11.950614
1463 4 7.3639999 17.6700001 0.09703 0 0 0 4 6 3 0 0 0 12.288559
1477 2 -1.191 -6.3699999 -19.4799996 0 0 1 3 5 2 2 0 0 11.2505102
1478 2 20.1299992 17.8099995 6.1469998 0 0 1 2 7 2 0 0 0 11.7312508
1492 5 -1.043 20.5599995 9.7030001 0 0 0 2 8 4 0 0 0 11.7958489
1502 5 4.4039998 6.4439998 -4.4369998 0 0 1 0 9 2 1 0 0 12.7325058
1509 5 7.1199999 -19.5 16.4899998 0 0 0 4 4 6 0 0 0 12.4349842
1515 5 -7.0510001 0.8843 -19.2700005 0 0 0 0 12 0 0 0 0 11.2002935
1523 2 -8.0380001 13.5500002 -21.3500004 0 0 0 2 8 2 0 0 0 11.6278439
1545 4 6.849 -9.1490002 -16.5200005 0 0 0 3 8 1 0 0 0 12.2101584
1556 5 16.0400009 -6.962 -7.8720002 0 0 0 1 10 4 0 0 0 12.855465
1565 2 -18.2399998 -7.6799999 -5.4879999 0 0 0 0 12 0 0 0 0 11.0595827
1583 2 -2.98 -7.2620001 2.78 0 0 0 3 6 5 0 0 0 12.102025
1587 5 -15.5 -0.4916 -14.4899998 0 0 0 2 10 1 0 0 0 12.4076214
1599 4 15.4899998 18.3400002 -20.8099995 0 0 2 1 7 4 1 0 0 12.0729675
1605 5 14.0 12.9700004 -2.8610002 0 0 1 2 7 3 2 0 0 12.5999451
1607 4 0.9654 10.9700004 18.5499993 0 0 0 0 12 0 0 0 0 11.7965012
1615 4 13.3000002 20.6399994 0.4008 0 0 0 3 6 4 0 0 0 11.1739416
1620 4 -11.2299996 -1.408 19.6399994 0 0 0 5 6 3 0 0 0 12.7819424
1627 4 -17.7800007 -20.1000004 -9.3929997 0 0 0 0 12 0 0 0 0 11.0554419
1634 5 13.9799996 18.3099995 -6.2410002 0 0 1 1 9 3 0 0 0 11.874735
1642 4 11.0600004 -19.5499993 5.9369998 0 0 0 3 8 3 0 0 0 12.5583248
1657 5 -7.3969998 15.3000002 13.75 0 0 0 1 10 3 0 0 0 12.924717
1663 2 -5.5570002 -3.389 11.1499996 0 0 0 0 12 0 0 0 0 11.4654608
1669 4 -7.4660001 -20.3600006 -5.2069998 0 0 0 1 12 2 0 0 0 12.9433184
1692 5 -15.7799998 -20.7900009 11.6400004 0 0 0 2 8 3 0 0 0 11.8098212
1694 2 10.96 -17.6800003 -3.81 0 0 0 1 10 4 0 0 0 12.1483135
1698 4 -4.8130002 -1.6080001 20.8899994 0 0 0 1 10 2 0 0 0 12.1808367
1702 2 7.5060001 -10.0200005 14.6499996 0 0 0 2 8 1 0 0 0 11.1169014
1706 4 7.0120001 0.04355 -9.3950005 0 0 0 3 6 4 0 0 0 11.8735686
1722 5 -1.4500001 -1.852 -2.0510001 0 0 0 3 5 5 1 0 0 12.8958474
1726 5 3.9300002 -8.1780005 -6.052 0 0 0 2 10 1 0 0 0 12.0633497
1730 5 15.6700001 19.6599999 9.2370005 0 0 2 2 5 2 3 0 0 11.9928284
1766 4 -6.1989999 -18.5599995 -3.3299999 0 0 0 0 12 2 0 0 0 12.1395598
1774 4 0.4652 1.657 -12.2600002 0 0 0 0 12 3 0 0 0 12.7655173
1781 5 -17.1299992 19.4200001 7.2529998 0 0 0 3 8 1 0 0 0 11.4698591
1795 4 -0.5598001 20.6800003 -13.4700003 0 0 0 0 12 0 0 0 0 11.4736691
1805 4 -14.4899998 17.8199997 9.4759999 0 0 1 2 9 3 0 0 0 12.9715472
1807 4 19.4300003 -8.033 14.3199997 0 0 0 1 10 4 0 0 0 12.3765278
1812 4 12.0600004 -8.2130003 15.3999996 0 0 1 2 7 3 2 0 0 12.6567106
1818 4 -4.8189998 0.2436 17.3199997 0 0 1 1 8 3 1 0 0 11.9646226
1826 2 -19.5499993 -10.9099998 13.4399996 0 0 1 2 8 0 1 0 0 11.327344
1829 5 -9.1870003 16.5599995 -19.5499993 0 0 0 0 12 0 0 0 0 11.401556
1847 4 5.086 -21.7600003 -10.9700004 0 0 0 0 12 0 0 0 0 10.7866774
1851 1 -2.0179999 20.6599999 16.2800007 0 0 0 0 12 0 0 0 0 12.0075064
1865 2 13.0200005 -6.8670002 5.857 0 0 0 0 12 3 0 0 0 13.1139336
1873 4 3.97 -19.9500008 5.6690002 0 0 0 0 12 2 0 0 0 13.4963436
1882 2 11.8000002 12.1099997 15.79 0 0 1 1 9 3 0 0 0 12.5132494
1897 4 20.6100006 -0.1662 15.75 0 0 0 3 6 5 0 0 0 12.1026363
1905 4 -8.7799998 -5.869 12.1800003 0 0 0 3 8 4 0 0 0 12.1796608
1906 2 -5.6090002 17.2099991 0.9706 0 0 0 2 8 2 0 0 0 11.3327847
1920 5 11.9200002 -5.2659998 7.5209999 0 0 0 1 12 2 0 0 0 13.040843
1942 5 5.184 -19.5100003 15.0100002 0 0 0 1 10 2 0 0 0 11.8689432
1947 5 3.924 6.5869999 10.5900002 0 0 0 3 6 4 0 0 0 11.9349432
1951 4 7.889 21.1000004 17.1100006 0 0 0 1 10 5 0 0 0 13.3190298
1965 2 -5.171 1.205 -20.8299999 0 0 0 2 8 4 0 0 0 12.5467654
1970 2 18.6599999 19.5699997 -19.0900002 0 0 0 0 12 0 0 0 0 11.1956816
1975 4 -5.4879999 2.5420001 -18.6700001 0 0 0 2 8 5 0 0 0 13.3321314
1990 5 7.967 -8.8219996 -5.257 0 0 0 0 12 0 0 0 0 10.8229018
2012 5 -16.7099991 -7.4270001 -22.2099991 0 0 0 4 5 3 1 1 0 13.0762329
2013 5 1.1260001 12.3599997 -5.599 0 0 2 2 6 3 0 0 0 11.5066166
2016 4 -18.7399998 -13.6099997 13.7100001 0 0 0 3 6 4 0 0 0 12.1464367
2020 2 0.5289001 -9.1190004 -17.3400002 0 0 0 0 12 0 0 0 0 10.7963181
2029 4 3.4370001 3.4719999 15.8100004 0 0 1 2 7 4 0 0 0 13.1230135
2041 5 18.6399994 1.41 16.1599999 0 0 0 0 12 2 0 0 0 12.6484337
2046 2 -14.4899998 -9.8830004 4.4970002 0 0 0 2 8 2 0 0 0 11.8037997
2053 2 -14.3400002 6.1209998 -1.4650001 0 0 0 1 10 3 0 0 0 12.5747566
2054 4 15.8900004 -3.3399999 6.8140002 0 0 1 0 11 3 0 0 0 12.7069817
2066 5 -5.461 -17.2600002 10.4099999 0 0 0 1 10 3 0 0 0 12.620327
2082 2 -13.7200003 -14.6199999 -12.4600001 0 0 0 3 6 5 0 0 0 12.3606749
2089 1 -10.9099998 -4.7589998 12.1400003 0 0 1 3 5 4 0 0 0 11.406766
2097 5 0.8220001 -7.3920002 -1.2410001 0 0 0 0 12 3 0 0 0 13.230464
2104 2 17.7900009 -18.9500008 -15.8199997 0 0 0 0 12 0 0 0 0 11.3774586
2116 5 13.9499998 -14.2600002 -11.25 0 0 2 2 5 2 1 1 0 11.7348309
2119 2 -12.87 14.5100003 -4.1170001 0 0 0 0 12 0 0 0 0 11.3826962
2124 5 17.0400009 -15.5100003 13.7200003 0 0 0 1 10 2 0 0 0 11.4448996
2126 5 15.3400002 -6.8049999 -13.4300003 0 0 0 2 8 4 0 0 0 12.0914707
2144 4 13.1599999 6.9439998 4.895 0 0 0 2 8 3 0 0 0 11.5990734
2147 1 13.7399998 -14.4499998 -15.9399996 0 0 0 1 10 2 0 0 0 11.1730642
2148 2 13.79 9.8800002 -6.7880001 0 0 0 0 12 0 0 0 0 11.7041464
2151 2 -8.1280003 6.7989998 21.3500004 0 0 0 0 12 0 0 0 0 11.5962963
2163 2 -1.7710001 15.8800002 10.29 0 0 0 0 12 0 0 0 0 11.1407356
2169 1 -19.4599991 -21.5200005 -7.9699998 0 0 0 1 10 2 0 0 0 11.3208532
2180 5 2.1540001 1.899 -9.929 0 0 1 2 8 3 1 0 0 12.8080454
2183 2 19.5 6.5339999 -12.7299996 0 0 0 0 12 0 0 0 0 10.9081908
2202 4 -12.0299997 12.0 19.0400009 0 0 0 1 10 4 0 0 0 12.5714484
2208 2 9.0109997 12.04 3.8369999 0 0 1 2 7 3 0 0 0 11.9093972
2213 2 -17.6000004 -9.467 12.8999996 0 0 0 3 6 3 0 0 0 11.3635512
2214 2 5.1599999 -0.03177 -4.2449999 0 0 0 4 8 0 0 0 0 11.7393379
2224 5 -8.368 -18.4699993 -17.4599991 0 0 1 1 8 2 1 0 0 12.1642771
2228 5 -9.2620001 16.4500008 -14.2700005 0 0 0 3 8 3 0 0 0 12.294137
2232 3 5.1339998 -17.8400002 -9.7729998 0 0 0 2 8 4 0 0 0 12.1384745
2256 2 -13.8199997 3.3940001 -16.2600002 0 0 1 2 6 4 1 0 0 11.3965168
2273 5 12.25 -20.5699997 9.2670002 0 0 0 0 12 2 0 0 0 12.6585837
2274 1 20.9400006 6.283 7.3569999 0 0 0 1 10 3 0 0 0 12.6994295
2284 5 14.6499996 14.3299999 -14.5600004 0 0 0 1 10 4 0 0 0 12.6758127
2285 4 -6.513 -8.264 -21.8700008 0 0 0 2 8 4 0 0 0 12.3189507
2295 1 -13.0100002 12.1700001 6.1009998 0 0 0 0 12 0 0 0 0 11.61479
2296 4 -16.0400009 2.55 8.1529999 0 0 0 3 6 4 0 0 0 12.5856257
2298 5 13.75 21.0499992 -6.7449999 0 0 1 1 9 4 0 0 0 12.7607975
2304 4 14.6199999 -8.1409998 10.8199997 0 0 0 1 10 4 0 0 0 12.9774752
2314 4 -2.54 21.4799996 -20.8999996 0 0 1 3 5 5 0 0 0 12.3400307
2317 4 -0.7933 1.877 19.7199993 0 0 0 0 12 0 0 0 0 11.8127108
2322 4 7.4270001 -7.8060003 -9.1990004 0 0 0 3 6 4 0 0 0 11.7759848
2337 5 19.0100002 -9.3039999 -14.7200003 0 0 0 4 5 4 1 0 0 12.1884136
2341 4 19.3600006 -5.8010001 -14.4799996 0 0 0 2 8 4 0 0 0 12.2533207
2354 2 -16.4699993 19.3600006 -9.3240004 0 0 1 3 5 5 0 0 0 11.793334
2368 2 3.533 -15.4499998 -15.4099999 0 0 0 1 10 2 0 0 0 12.3490305
2369 5 1.2000001 14.2600002 -10.0900002 0 0 0 0 12 3 0 0 0 12.3091822
2380 4 -17.9599992 -14.3000002 11.4300003 0 0 0 2 8 4 0 0 0 11.7771855
2385 4 -7.5879998 3.0869999 14.2799997 0 0 0 0 12 4 0 0 0 13.2657194
2386 2 20.9799996 21.0599995 -21.8799992 0 0 0 2 8 2 0 0 0 11.5576716
2407 2 2.303 7.7880001 2.122 0 0 0 4 6 2 0 0 0 12.0848436
2409 5 -17.0699997 19.3600006 -3.965 0 0 1 2 7 4 0 0 0 12.8064814
2414 1 18.8600006 -12.75 -17.1399994 0 0 1 3 5 4 0 0 0 11.0452728
2418 4 -16.3700009 19.9799996 5.0159998 0 0 0 3 8 2 0 0 0 12.2432041
2427 4 -7.04 1.143 -16.7299996 0 0 0 1 10 3 0 0 0 12.0632525
2429 5 19.9799996 -17.3400002 20.7700005 0 0 0 1 10 2 0 0 0 11.7735291
2430 2 -17.5300007 1.329 -14.04 0 0 0 3 6 3 0 0 0 11.86022
2441 2 -7.1350002 -17.0599995 8.5039997 0 0 0 1 10 2 0 0 0 12.4538098
2442 4 20.6800003 2.0539999 -20.5699997 0 0 0 1 10 5 0 0 0 13.3232622
2443 5 21.6399994 20.4699993 3.036 0 0 0 3 6 5 0 0 0 12.7093678
2446 2 8.441 -9.8369999 -12.7399998 0 0 1 3 7 2 0 0 0 11.7465992
2451 2 -10.3900004 -4.3210001 1.3430001 0 0 1 3 7 2 0 0 0 11.1636248
2457 4 14.79 3.481 7.3520002 0 0 0 3 7 4 1 0 0 13.2040739
2466 2 -17.7600003 4.25 7.5650001 0 0 0 0 12 0 0 0 0 11.0135317
2482 5 -7.5879998 0.765 -21.9099998 0 0 0 1 10 3 0 0 0 11.9239656
2489 2 6.5900002 -5.816 -8.3929997 0 0 0 3 6 4 0 0 0 12.1031332
2494 2 -11.5100003 -4.4689999 -8.7709999 0 0 0 0 12 0 0 0 0 11.5034914
2496 4 7.7490001 8.316 7.4000001 0 0 2 1 8 3 2 0 0 13.3277455
2506 2 -7.9070002 20.2299996 0.3359 0 0 0 1 10 2 0 0 0 11.7428799
2513 5 17.5 17.3899994 -19.8899994 0 0 0 1 10 3 0 0 0 11.8213673
2520 4 -15.9700004 -11.9399996 18.7700005 0 0 0 1 10 3 0 0 0 12.9001846
2521 2 1.927 14.8900004 10.0600004 0 0 0 0 12 0 0 0 0 11.4195996
2523 4 15.6999998 12.0299997 20.9400006 0 0 0 2 10 3 0 0 0 12.7230072
2527 1 -8.3030005 -11.3999996 -13.4700003 0 0 2 3 7 1 1 0 0 12.1543646
2541 2 -5.85 13.79 20.1100006 0 0 0 1 10 3 0 0 0 11.9471254
2543 5 -11.9700004 1.271 -1.446 0 0 2 1 8 2 2 0 0 12.5823298
2545 5 -11.4799996 3.602 10.8999996 0 0 2 3 6 4 0 0 0 12.333828
2548 2 -4.7020002 -6.809 -16.8799992 0 0 0 0 12 2 0 0 0 12.8000822
2553 2 -5.046 3.221 -12.2700005 0 0 0 2 8 4 0 0 0 12.3410025
2557 4 1.5750001 17.1900005 -14.5699997 0 0 0 2 10 2 0 0 0 12.4888745
2562 5 -1.959 18.7600003 -20.3899994 0 0 0 2 8 4 0 0 0 12.808302
2564 4 10.1000004 9.9160004 -11.9700004 0 0 0 4 6 6 0 0 0 12.986807
2573 5 15.3599997 -3.737 13.8599998 0 0 0 3 6 5 0 0 0 11.60077
2574 2 -4.7839999 -21.3700009 4.0009999 0 0 0 0 12 0 0 0 0 10.8757382
2594 2 9.967 -2.3280001 -7.981 0 0 1 1 9 2 2 0 0 12.4851761
2596 4 19.0900002 15.0500002 20.0 0 0 0 2 8 4 0 0 0 11.6496306
2619 5 -4.3210001 -7.3870001 20.9899998 0 0 0 0 12 2 0 0 0 12.1361961
2627 4 1.435 -15.0699997 -16.6399994 0 0 0 3 6 5 0 0 0 12.5964289
2632 4 5.414 0.8669 -20.6499996 0 0 1 1 9 3 0 0 0 12.7940264
2644 2 7.888 17.5799999 10.0600004 0 0 1 2 7 4 0 0 0 11.893654
2647 4 17.9599992 -5.8119998 -18.75 0 0 0 1 10 4 0 0 0 12.1420536
2657 4 -9.0050001 18.8799992 -14.7299996 0 0 1 0 9 3 0 0 0 11.7139063
2664 5 -15.54 -5.1230002 -18.2000008 0 0 0 4 4 6 0 0 0 11.8784934
2673 4 -17.5100003 -4.4270001 14.1400003 0 0 0 3 6 6 0 0 0 13.0763407
2675 4 -8.5930004 4.79 10.1999998 0 0 0 1 10 3 0 0 0 12.3580446
2680 4 -14.3800001 12.8299999 -2.4730001 0 0 0 0 12 3 0 0 0 13.1782484
2695 4 -0.3272 -7.0749998 20.7199993 0 0 0 1 10 3 0 0 0 11.4485178
2719 4 -16.1700001 -16.0499992 8.5030003 0 0 0 0 12 0 0 0 0 11.1844082
2722 5 -13.5200005 20.6399994 0.9518 0 0 1 2 9 2 0 0 0 11.7142086
2752 2 20.0900002 16.1499996 -4.9829998 0 0 1 1 9 1 2 0 0 12.5458555
2754 5 -14.04 8.9960004 16.1000004 0 0 0 1 10 3 0 0 0 11.4568615
2760 5 -0.8943 0.4208 -20.1299992 0 0 0 1 10 4 0 0 0 12.9582148
2768 2 11.4899998 6.0760002 -5.8109999 0 0 1 3 5 5 0 0 0 12.1839018
2774 4 14.0 0.9739 6.691 0 0 0 2 10 3 0 0 0 12.6637478
2778 4 7.8639998 12.1300001 17.7399998 0 0 0 0 12 4 0 0 0 13.4015656
2782 4 -9.5299998 -21.1100006 13.1300001 0 0 0 0 12 2 0 0 0 13.5091582
2787 4 -18.1299992 1.873 6.586 0 0 2 0 11 1 1 0 0 13.3705206
2790 4 0.4977 17.9400006 3.287 0 0 1 1 9 5 0 0 0 12.7803955
2799 4 5.0209999 -12.1099997 -22.1700001 0 0 0 1 10 5 0 0 0 13.4062967
2800 4 -11.0200005 16.6399994 -20.9200002 0 0 0 3 6 4 0 0 0 11.6061154
2802 5 -1.361 11.6300001 11.0500002 0 0 0 3 6 5 0 0 0 12.5238304
2814 4 -17.5300007 -7.7909999 8.1169996 0 0 0 2 8 5 0 0 0 12.5577145
2820 4 17.0900002 -10.9899998 9.1140003 0 0 0 1 10 3 0 0 0 12.0361366
2823 4 -9.5679999 12.3699999 18.5499993 0 0 0 2 10 0 0 0 0 12.2768335
2824 4 19.1200008 6.955 5.5489998 0 0 0 1 10 3 0 0 0 12.3490248
2830 4 -15.2200003 -21.5 -16.2600002 0 0 0 1 10 3 0 0 0 13.0182695
2848 4 17.6700001 -17.2000008 0.8765 0 0 0 3 8 2 0 0 0 11.6779814
2851 3 -11.9099998 2.023 -15.6199999 0 0 0 4 6 5 0 0 0 12.5728922
2857 4 -0.1458 20.7999993 -2.6199999 0 0 0 0 12 2 0 0 0 12.1579781
2885 2 18.3500004 17.5300007 -17.5699997 0 0 0 0 12 3 0 0 0 12.4644232
2895 4 7.2909999 -19.8899994 -4.9070002 0 0 0 3 8 3 0 0 0 12.2921438
2899 5 20.1200008 -11.96 -1.717 0 0 0 0 12 0 0 0 0 11.4590893
2906 4 18.3700009 9.4849997 1.986 0 0 0 1 12 1 0 0 0 12.1840887
2908 5 0.08708 8.4379998 0.8524 0 0 0 4 6 3 0 0 0 12.1340542
2914 2 1.435 -1.882 -6.2740002 0 0 0 0 12 0 0 0 0 11.3832798
2932 4 -8.4460001 -14.2299996 -1.487 0 0 0 1 10 3 0 0 0 12.1436911
2955 4 -5.105 8.4600001 -13.96 0 0 0 2 8 5 0 0 0 12.4763079
2966 5 -16.9300004 10.1199999 11.7299996 0 0 0 1 10 2 0 0 0 11.8143101
2975 5 10.0900002 -4.9200002 -6.6960001 0 0 0 3 8 4 0 0 0 13.1963768
2985 4 -0.4027 3.4630001 -16.5100003 0 0 0 1 10 3 0 0 0 12.6211567
2993 4 16.6499996 -0.2602 9.9989996 0 0 0 4 6 4 0 0 0 12.2827759
2994 4 -8.9280006 -14.8100004 -14.5 0 0 0 1 10 4 0 0 0 12.3643904
3004 5 13.9399996 -2.2850001 -9.4490004 0 0 0 3 8 2 2 0 0 13.7213202
3009 4 10.4300003 -10.25 -7.7729998 0 0 0 2 10 2 0 0 0 12.5214052
3020 5 11.0600004 20.4899998 -9.4930001 0 0 0 1 10 2 0 0 0 11.5801344
3025 2 -15.0299997 -9.4169998 -3.5409999 0 0 0 4 8 1 0 0 0 11.8357992
3038 2 -15.1899996 6.4109998 20.1399994 0 0 0 0 12 0 0 0 0 11.3688975
3060 4 -8.2670002 20.9899998 -15.4399996 0 0 0 0 12 0 0 0 0 11.3825417
3068 2 8.2250004 3.7820001 6.48 0 0 0 0 12 3 0 0 0 12.3266649
3100 4 0.0481 2.2780001 0.3017 0 0 0 1 10 3 0 0 0 12.3219442
3113 2 -17.6499996 -19.2800007 -14.4300003 0 0 0 1 10 2 0 0 0 12.3943215
3115 4 1.198 8.2840004 -2.2179999 0 0 0 4 5 5 1 0 0 12.9881478
3118 4 5.3530002 -2.4820001 -3.102 0 0 0 1 12 2 0 0 0 13.138195
3134 2 6.678 7.7480002 -14.4300003 0 0 0 3 6 4 0 0 0 11.6928664
3150 2 19.4799996 19.3700009 8.2740002 0 0 0 2 8 4 0 0 0 12.3336334
3151 4 -13.8100004 16.3700009 20.3199997 0 0 1 2 7 5 0 0 0 12.0950518
3152 4 1.528 -17.25 -15.5299998 0 0 1 2 7 3 0 0 0 11.6656885
3158 2 15.1199999 -7.375 3.886 0 0 0 1 10 2 0 0 0 11.7893515
3159 5 -4.2600002 15.4399996 -5.7670002 0 0 0 2 8 2 1 0 0 11.6803446
3165 5 15.4099999 -15.2299996 18.5300007 0 0 0 2 8 4 0 0 0 12.2121658
3167 2 1.402 2.718 20.8500004 0 0 0 2 10 1 0 0 0 11.8797608
3174 4 -2.089 0.01053 -5.2740002 0 0 1 3 6 4 1 0 0 12.5573006
3180 2 20.1000004 19.7999993 -6.7890001 0 0 0 3 6 5 0 0 0 12.0502081
3182 4 18.8500004 -18.9300004 -18.1399994 0 0 0 1 10 4 0 0 0 12.3949967
3185 5 3.1800001 5.2839999 6.671 0 0 2 2 7 3 1 0 0 12.4251166
3186 5 9.2189999 -1.535 -1.874 0 0 1 1 9 3 0 0 0 12.8201866
3189 5 -18.0799999 -14.04 18.9300004 0 0 1 4 7 1 2 0 0 11.9623318
3199 5 11.5 18.6100006 0.4546 0 0 0 2 10 1 0 0 0 12.5383625
3201 5 -13.0699997 19.6499996 -12.8900004 0 0 0 3 6 4 0 0 0 12.0466299
3220 4 -6.619 19.4200001 -14.3599997 0 0 1 0 9 3 0 0 0 12.6561642
3222 4 16.7099991 -2.589 -9.9610004 0 0 0 3 7 3 1 0 0 12.7422667
3230 5 -16.6900006 6.8470002 -7.369 0 0 0 0 12 2 0 0 0 12.2959175
3233 4 -19.2800007 -6.2709999 14.6099997 0 0 0 1 10 3 0 0 0 12.193574
3234 4 -4.0229998 -7.5300002 5.085 0 0 0 1 12 2 0 0 0 12.9389772
3240 1 5.3169999 8.4940005 -12.6400004 0 0 2 0 8 2 2 0 0 11.7124033
3241 4 -10.5699997 21.0900002 -14.3800001 0 0 0 1 10 5 0 0 0 13.7696648
3246 5 1.5160001 -21.0200005 4.4089999 0 0 0 3 8 3 0 0 0 12.5815506
3267 5 7.184 -13.8800002 -8.1680002 0 0 0 1 10 4 0 0 0 12.7540827
3286 5 14.4200001 -7.9050002 15.0699997 0 0 0 0 12 0 0 0 0 11.1700296
3287 5 12.6099997 15.4200001 -16.3400002 0 0 0 0 12 0 0 0 0 11.2493277
3295 4 -17.5100003 -1.841 -19.8500004 0 0 0 0 12 2 0 0 0 12.2667856
3298 5 7.0619998 -20.8600006 14.6499996 0 0 0 2 8 2 0 0 0 11.4680195
3301 5 20.7600003 15.7700005 -7.382 0 0 1 0 9 3 0 0 0 12.0932121
3315 4 6.29 -10.5200005 9.915 0 0 0 2 8 3 0 0 0 12.203908
3323 5 -14.6499996 1.023 12.4899998 0 0 0 1 12 2 0 0 0 12.8853836
3337 5 -6.231 -16.6900006 1.174 0 0 0 4 6 5 0 0 0 12.6155386
3343 5 -9.5670004 19.3199997 -6.638 0 0 0 0 12 0 0 0 0 11.560606
3346 2 -15.5 -16.0799999 -4.2160001 0 0 0 1 10 2 0 0 0 11.3002691
3357 4 -10.5900002 12.75 -6.844 0 0 0 1 10 2 0 0 0 11.5666476
3362 1 -16.3500004 -5.6880002 -20.4300003 0 0 0 3 6 4 0 0 0 11.3457317
3365 5 -14.6000004 -2.7520001 -0.5076 0 0 1 4 4 5 0 0 0 12.3204451
3387 5 20.3899994 17.8199997 -19.3899994 0 0 0 0 12 2 0 0 0 11.8286143
3406 5 -8.6540003 6.4450002 -0.5794 0 0 0 1 10 2 0 0 0 11.3901482
3408 5 -13.5200005 4.6440001 -13.7200003 0 0 0 0 12 2 0 0 0 11.9703722
3414 2 20.3999996 20.7900009 -4.7420001 0 0 0 3 6 3 0 0 0 11.1208162
3433 4 0.1177 18.2099991 -12.3400002 0 0 0 0 12 3 0 0 0 12.686884
3444 5 15.3500004 -13.2299996 3.266 0 0 0 2 9 2 1 0 0 12.2121697
3446 4 13.3500004 -9.7150002 6.8600002 0 0 0 1 10 5 0 0 0 14.3055477
3454 2 11.9200002 14.5600004 2.5450001 0 0 1 1 9 2 0 0 0 11.1772146
3456 5 -16.6399994 -19.9300004 6.6999998 0 0 2 1 8 3 0 1 0 12.8854256
3465 5 -10.3999996 0.449 -9.0430002 0 0 0 0 12 0 0 0 0 11.7612887
3467 4 5.2090001 -6.8920002 -10.4600001 0 0 0 2 8 6 0 0 0 13.7313566
3471 2 -14.4700003 -21.0599995 16.6599999 0 0 0 0 12 0 0 0 0 11.4065294
3481 4 3.79 -14.7399998 -17.9099998 0 0 0 1 10 2 0 0 0 11.9328252
3482 3 -13.4499998 8.2799997 4.4330001 0 0 1 2 7 4 0 0 0 12.139185
3489 2 -3.4470001 -7.52 -19.1800003 0 0 0 2 10 3 0 0 0 12.5389748
3497 2 20.5 11.0200005 7.6570001 0 0 0 2 8 2 0 0 0 11.2282734
3501 4 11.1400003 -6.3990002 9.6040001 0 0 2 2 5 3 1 0 0 11.6349745
3507 5 -18.2299996 -11.7299996 17.9799996 0 0 1 3 5 4 2 0 0 12.7549305
3529 5 15.2100001 -8.592 -1.897 0 0 0 2 10 1 0 0 0 11.5423012
3536 5 -15.8900004 -22.0499992 1.507 0 0 0 2 8 5 0 0 0 12.0521536
3540 4 4.9590002 3.313 -8.0469999 0 0 1 2 7 4 0 0 0 12.0341043
3544 4 -8.7860003 2.984 21.5699997 0 0 0 2 8 4 0 0 0 12.2510882
3561 5 -1.583 14.6400004 6.0599999 0 0 0 2 10 1 0 0 0 11.9812518
3563 2 -8.9040004 -7.4510002 -22.1200008 0 0 0 1 10 2 0 0 0 11.4156962
3569 2 -14.8599998 -6.7010002 -13.5799999 0 0 0 0 12 0 0 0 0 11.1868935
3571 4 1.346 10.2700005 -0.6516 0 0 0 4 6 2 2 0 0 13.400835
3589 4 -15.6499996 -7.2600002 -8.3830004 0 0 0 3 6 4 0 0 0 11.6842013
3597 2 15.7299996 -0.1906 -9.8380003 0 0 0 1 10 2 0 0 0 12.1685705
3613 4 -1.026 16.2700005 -13.29 0 0 0 1 10 2 0 0 0 11.9311018
3614 4 -2.799 2.4040001 7.0139999 0 0 0 2 8 5 0 0 0 12.8201647