ITEM: TIMESTEP
0
ITEM: NUMBER OF ATOMS
16384
ITEM: BOX BOUNDS pp pp pp
0.0000000000000000e+00 2.3973505650984301e+01
0.0000000000000000e+00 2.3973505650984301e+01
0.0000000000000000e+00 2.3973505650984301e+01
ITEM: ATOMS id type x y z
1 4 0 0 0
2 4 0.755118 0.755118 0
3 4 2.26535 0.755118 0
4 4 2.26535 0 0.755118
5 4 1.51024 0.755118 0.755118
7 4 3.02047 0.755118 0.755118
32 4 0.755118 1.51024 0.755118
33 4 0 2.26535 0.755118
34 4 2.26535 1.51024 0.755118
35 4 1.51024 2.26535 0.755118
36 4 3.02047 1.51024 0
39 4 3.02047 2.26535 0.755118
73 4 0.755118 3.02047 0.755118
74 4 2.26535 3.02047 0.755118
522 4 2.26535 0 2.26535
523 4 1.51024 0.755118 2.26535
553 4 0.755118 2.26535 1.51024
554 4 0 2.26535 2.26535
555 4 2.26535 2.26535 1.51024
556 4 2.26535 1.51024 2.26535
557 4 1.51024 2.26535 2.26535
558 4 3.02047 1.51024 1.51024
560 4 3.02047 2.26535 2.26535
587 4 0 3.02047 1.51024
589 4 0.755118 3.02047 2.26535
1037 4 2.26535 0.755118 3.02047
1075 4 1.51024 1.51024 3.02047
1105 4 1.51024 3.02047 3.02047
8193 2 0 0 0
8194 2 0.755118 0.755118 0
8195 2 0.755118 0 0.755118
8196 2 0 0.755118 0.755118
8197 2 2.26535 0 0.755118
8198 2 3.02047 0 0
8226 2 0 1.51024 0
8227 2 0.755118 2.26535 0
8228 2 2.26535 1.51024 0.755118
8229 2 3.02047 1.51024 0
8256 2 0.755118 3.02047 0.755118
8258 2 1.51024 3.02047 0
8260 2 3.02047 3.02047 0
8730 2 0.755118 0.755118 1.51024
8731 2 0 0.755118 2.26535
8732 2 2.26535 0.755118 1.51024
8733 2 2.26535 0 2.26535
8734 2 1.51024 0.755118 2.26535
8735 2 3.02047 0 1.51024
8737 2 3.02047 0.755118 2.26535
8760 2 1.51024 1.51024 1.51024
8761 2 2.26535 2.26535 1.51024
8790 2 0 3.02047 1.51024
8791 2 0.755118 3.02047 2.26535
8793 2 1.51024 3.02047 1.51024
9232 2 0 0 3.02047
9233 2 0.755118 0.755118 3.02047
9234 2 1.51024 0 3.02047
9236 2 3.02047 0 3.02047
9265 2 0.755118 2.26535 3.02047
9267 2 1.51024 1.51024 3.02047
6 4 3.77559 0 0.755118
8 4 5.28583 0.755118 0
9 4 5.28583 0 0.755118
10 4 4.53071 0.755118 0.755118
11 4 6.04094 0 0
12 4 6.04094 0.755118 0.755118
37 4 3.77559 2.26535 0
38 4 3.77559 1.51024 0.755118
40 4 5.28583 2.26535 0
41 4 5.28583 1.51024 0.755118
42 4 4.53071 2.26535 0.755118
43 4 6.04094 1.51024 0
44 4 6.79606 2.26535 0
45 4 6.04094 2.26535 0.755118
76 4 4.53071 3.02047 0
77 4 5.28583 3.02047 0.755118
78 4 6.79606 3.02047 0.755118
524 4 3.77559 0 2.26535
525 4 5.28583 0.755118 1.51024
526 4 5.28583 0 2.26535
527 4 4.53071 0.755118 2.26535
528 4 6.04094 0 1.51024
529 4 6.79606 0 2.26535
559 4 3.77559 1.51024 2.26535
561 4 4.53071 1.51024 1.51024
562 4 5.28583 2.26535 1.51024
563 4 6.79606 2.26535 1.51024
564 4 6.79606 1.51024 2.26535
592 4 6.04094 3.02047 1.51024
593 4 6.79606 3.02047 2.26535
1040 4 3.77559 0.755118 3.02047
1042 4 4.53071 0 3.02047
1043 4 5.28583 0.755118 3.02047
1045 4 6.04094 0 3.02047
1046 4 6.79606 0.755118 3.02047
1077 4 3.77559 2.26535 3.02047
1080 4 4.53071 1.51024 3.02047
1081 4 5.28583 2.26535 3.02047
1110 4 6.04094 3.02047 3.02047
8199 2 3.77559 0.755118 0
8200 2 5.28583 0.755118 0
8201 2 6.79606 0 0.755118
8230 2 3.77559 2.26535 0
8231 2 6.04094 1.51024 0
8232 2 6.79606 1.51024 0.755118
8261 2 3.77559 3.02047 0.755118
8263 2 4.53071 3.02047 0
8265 2 6.04094 3.02047 0
8267 2 6.79606 3.02047 0.755118
8736 2 3.77559 0 2.26535
8738 2 5.28583 0 2.26535
8739 2 4.53071 0.755118 2.26535
8740 2 6.04094 0 1.51024
8741 2 6.04094 0.755118 2.26535
8762 2 3.77559 2.26535 1.51024
8763 2 3.77559 1.51024 2.26535
8764 2 4.53071 2.26535 2.26535
8765 2 6.79606 2.26535 1.51024
8766 2 6.79606 1.51024 2.26535
8767 2 6.04094 2.26535 2.26535
8796 2 3.77559 3.02047 2.26535
9237 2 3.77559 0.755118 3.02047
9239 2 5.28583 0.755118 3.02047
9240 2 6.04094 0 3.02047
9269 2 3.77559 2.26535 3.02047
9272 2 4.53071 1.51024 3.02047
9273 2 5.28583 2.26535 3.02047
9275 2 6.04094 1.51024 3.02047
9309 2 6.04094 3.02047 3.02047
13 4 9.06142 0 0
46 4 8.3063 1.51024 0.755118
47 4 7.55118 2.26535 0.755118
48 4 9.06142 1.51024 0
49 4 9.81654 2.26535 0
50 4 9.81654 1.51024 0.755118
51 4 9.06142 2.26535 0.755118
80 4 8.3063 3.02047 0.755118
81 4 9.06142 3.02047 0
82 4 9.81654 3.02047 0.755118
530 4 8.3063 0 2.26535
531 4 7.55118 0.755118 2.26535
532 4 9.81654 0.755118 1.51024
533 4 9.81654 0 2.26535
565 4 7.55118 1.51024 1.51024
566 4 8.3063 2.26535 1.51024
567 4 8.3063 1.51024 2.26535
568 4 9.06142 1.51024 1.51024
569 4 9.81654 2.26535 1.51024
570 4 9.81654 1.51024 2.26535
594 4 7.55118 3.02047 1.51024
596 4 9.06142 3.02047 1.51024
597 4 9.81654 3.02047 2.26535
1049 4 9.81654 0.755118 3.02047
1083 4 7.55118 1.51024 3.02047
1085 4 9.06142 1.51024 3.02047
1113 4 7.55118 3.02047 3.02047
8202 2 8.3063 0 0.755118
8203 2 7.55118 0.755118 0.755118
8204 2 9.06142 0 0
8205 2 9.81654 0.755118 0
8206 2 9.06142 0.755118 0.755118
8233 2 8.3063 2.26535 0
8234 2 9.81654 2.26535 0
8235 2 9.81654 1.51024 0.755118
8268 2 7.55118 3.02047 0
8270 2 8.3063 3.02047 0.755118
8742 2 7.55118 0.755118 2.26535
8743 2 9.06142 0 1.51024
8744 2 9.81654 0.755118 1.51024
8745 2 9.06142 0.755118 2.26535
8768 2 8.3063 2.26535 1.51024
8769 2 7.55118 2.26535 2.26535
8770 2 9.06142 1.51024 1.51024
8771 2 9.81654 2.26535 1.51024
8772 2 9.06142 2.26535 2.26535
8802 2 8.3063 3.02047 2.26535
9242 2 8.3063 0.755118 3.02047
9245 2 9.81654 0.755118 3.02047
9280 2 9.06142 1.51024 3.02047
9312 2 7.55118 3.02047 3.02047
9314 2 9.06142 3.02047 3.02047
14 4 10.5717 0 0
15 4 11.3268 0 0.755118
16 4 10.5717 0.755118 0.755118
17 4 12.0819 0 0
18 4 12.837 0.755118 0
19 4 12.837 0 0.755118
52 4 10.5717 2.26535 0.755118
53 4 12.0819 1.51024 0
54 4 12.837 2.26535 0
55 4 12.837 1.51024 0.755118
56 4 12.0819 2.26535 0.755118
57 4 13.5921 1.51024 0
59 4 13.5921 2.26535 0.755118
84 4 12.837 3.02047 0.755118
534 4 10.5717 0 1.51024
535 4 10.5717 0.755118 2.26535
536 4 12.0819 0 1.51024
537 4 12.837 0.755118 1.51024
538 4 12.837 0 2.26535
539 4 12.0819 0.755118 2.26535
571 4 12.0819 1.51024 1.51024
572 4 12.837 2.26535 1.51024
573 4 12.837 1.51024 2.26535
574 4 12.0819 2.26535 2.26535
575 4 13.5921 1.51024 1.51024
577 4 13.5921 2.26535 2.26535
598 4 10.5717 3.02047 1.51024
600 4 11.3268 3.02047 2.26535
603 4 13.5921 3.02047 1.51024
1051 4 11.3268 0.755118 3.02047
1053 4 12.0819 0 3.02047
1054 4 12.837 0.755118 3.02047
1087 4 10.5717 1.51024 3.02047
1088 4 11.3268 2.26535 3.02047
1090 4 12.837 2.26535 3.02047
1092 4 13.5921 1.51024 3.02047
1120 4 13.5921 3.02047 3.02047
8207 2 10.5717 0 0
8208 2 11.3268 0 0.755118
8209 2 12.837 0.755118 0
8212 2 13.5921 0.755118 0.755118
8236 2 10.5717 1.51024 0
8237 2 10.5717 2.26535 0.755118
8238 2 12.0819 1.51024 0
8239 2 12.837 2.26535 0
8241 2 13.5921 2.26535 0.755118
8274 2 12.0819 3.02047 0
8277 2 13.5921 3.02047 0
8746 2 10.5717 0 1.51024
8747 2 11.3268 0 2.26535
8748 2 12.0819 0 1.51024
8749 2 12.0819 0.755118 2.26535
8752 2 13.5921 0.755118 2.26535
8773 2 10.5717 1.51024 1.51024
8774 2 11.3268 1.51024 2.26535
8775 2 10.5717 2.26535 2.26535
8776 2 12.837 2.26535 1.51024
8777 2 12.0819 2.26535 2.26535
8778 2 13.5921 1.51024 1.51024
8804 2 10.5717 3.02047 1.51024
8806 2 12.837 3.02047 2.26535
9249 2 12.0819 0 3.02047
9250 2 12.837 0.755118 3.02047
9252 2 13.5921 0 3.02047
9283 2 11.3268 2.26535 3.02047
9285 2 12.0819 1.51024 3.02047
9286 2 12.837 2.26535 3.02047
9317 2 10.5717 3.02047 3.02047
9321 2 13.5921 3.02047 3.02047
20 4 14.3472 0.755118 0
21 4 14.3472 0 0.755118
22 4 15.8575 0.755118 0
23 4 16.6126 0 0
58 4 14.3472 2.26535 0
60 4 15.8575 1.51024 0.755118
61 4 15.1024 2.26535 0.755118
87 4 15.8575 3.02047 0.755118
540 4 15.1024 0 1.51024
541 4 16.6126 0 1.51024
576 4 14.3472 2.26535 1.51024
578 4 15.1024 2.26535 2.26535
581 4 16.6126 2.26535 2.26535
604 4 16.6126 3.02047 1.51024
1056 4 14.3472 0.755118 3.02047
1061 4 16.6126 0 3.02047
1093 4 14.3472 2.26535 3.02047
1095 4 16.6126 1.51024 3.02047
1125 4 16.6126 3.02047 3.02047
8210 2 14.3472 0.755118 0
8211 2 14.3472 0 0.755118
8213 2 15.1024 0 0
8214 2 15.8575 0 0.755118
8215 2 15.1024 0.755118 0.755118
8217 2 16.6126 0.755118 0.755118
8240 2 14.3472 1.51024 0.755118
8242 2 15.8575 1.51024 0.755118
8243 2 16.6126 1.51024 0
8279 2 14.3472 3.02047 0.755118
8281 2 15.1024 3.02047 0
8283 2 15.8575 3.02047 0.755118
8750 2 14.3472 0.755118 1.51024
8751 2 14.3472 0 2.26535
8753 2 15.1024 0.755118 2.26535
8779 2 15.8575 1.51024 2.26535
8780 2 15.1024 2.26535 2.26535
8782 2 16.6126 2.26535 2.26535
8810 2 15.8575 3.02047 2.26535
8812 2 16.6126 3.02047 1.51024
9253 2 14.3472 0.755118 3.02047
9255 2 15.1024 0 3.02047
9289 2 15.1024 1.51024 3.02047
9290 2 15.8575 2.26535 3.02047
9291 2 16.6126 1.51024 3.02047
9325 2 15.1024 3.02047 3.02047
24 4 17.3677 0.755118 0
25 4 18.878 0.755118 0
26 4 20.3882 0.755118 0
62 4 17.3677 1.51024 0.755118
63 4 18.1228 1.51024 0
64 4 18.878 2.26535 0
65 4 18.878 1.51024 0.755118
66 4 20.3882 2.26535 0
67 4 20.3882 1.51024 0.755118
89 4 17.3677 3.02047 0.755118
542 4 17.3677 0.755118 1.51024
543 4 18.878 0.755118 1.51024
544 4 18.878 0 2.26535
545 4 18.1228 0.755118 2.26535
546 4 19.6331 0 1.51024
547 4 20.3882 0.755118 1.51024
548 4 20.3882 0 2.26535
549 4 19.6331 0.755118 2.26535
579 4 17.3677 2.26535 1.51024
580 4 17.3677 1.51024 2.26535
582 4 18.878 2.26535 1.51024
583 4 19.6331 1.51024 1.51024
584 4 20.3882 2.26535 1.51024
606 4 20.3882 3.02047 2.26535
1062 4 17.3677 0.755118 3.02047
1065 4 18.1228 0 3.02047
1067 4 19.6331 0 3.02047
1096 4 17.3677 2.26535 3.02047
1097 4 18.878 2.26535 3.02047
1099 4 19.6331 1.51024 3.02047
1100 4 20.3882 2.26535 3.02047
1128 4 18.1228 3.02047 3.02047
8216 2 17.3677 0.755118 0
8218 2 18.1228 0 0
8219 2 18.878 0.755118 0
8220 2 18.1228 0.755118 0.755118
8221 2 19.6331 0 0
8222 2 20.3882 0 0.755118
8223 2 19.6331 0.755118 0.755118
8244 2 17.3677 2.26535 0
8245 2 18.1228 1.51024 0
8246 2 18.878 1.51024 0.755118
8247 2 19.6331 1.51024 0
8248 2 20.3882 2.26535 0
8249 2 20.3882 1.51024 0.755118
8250 2 19.6331 2.26535 0.755118
8285 2 18.1228 3.02047 0
8287 2 20.3882 3.02047 0.755118
8754 2 17.3677 0.755118 1.51024
8755 2 17.3677 0 2.26535
8756 2 18.1228 0.755118 2.26535
8757 2 19.6331 0 1.51024
8758 2 20.3882 0 2.26535
8781 2 17.3677 1.51024 2.26535
8783 2 18.1228 1.51024 1.51024
8784 2 18.878 2.26535 1.51024
8785 2 18.1228 2.26535 2.26535
8786 2 19.6331 2.26535 2.26535
8814 2 17.3677 3.02047 2.26535
8816 2 18.1228 3.02047 1.51024
8818 2 18.878 3.02047 2.26535
8820 2 20.3882 3.02047 2.26535
9258 2 18.878 0.755118 3.02047
9293 2 19.6331 1.51024 3.02047
9332 2 19.6331 3.02047 3.02047
27 4 21.1433 0 0
28 4 21.8984 0 0.755118
29 4 21.1433 0.755118 0.755118
30 4 22.6535 0 0
31 4 23.4087 0.755118 0
68 4 21.1433 1.51024 0
69 4 21.8984 2.26535 0
70 4 22.6535 1.51024 0
71 4 23.4087 2.26535 0
72 4 22.6535 2.26535 0.755118
94 4 21.1433 3.02047 0
95 4 22.6535 3.02047 0
550 4 21.1433 0.755118 2.26535
551 4 22.6535 0 1.51024
552 4 22.6535 0.755118 2.26535
585 4 21.8984 1.51024 2.26535
586 4 23.4087 2.26535 1.51024
609 4 22.6535 3.02047 1.51024
1069 4 21.8984 0.755118 3.02047
1070 4 22.6535 0 3.02047
1071 4 23.4087 0.755118 3.02047
1102 4 21.8984 2.26535 3.02047
1103 4 23.4087 2.26535 3.02047
1133 4 21.1433 3.02047 3.02047
8224 2 21.8984 0 0.755118
8225 2 22.6535 0 0
8251 2 21.1433 1.51024 0
8252 2 22.6535 1.51024 0
8253 2 23.4087 2.26535 0
8254 2 23.4087 1.51024 0.755118
8255 2 22.6535 2.26535 0.755118
8289 2 21.1433 3.02047 0
8292 2 22.6535 3.02047 0
8759 2 23.4087 0.755118 1.51024
8787 2 21.1433 1.51024 1.51024
8788 2 21.8984 1.51024 2.26535
8789 2 23.4087 2.26535 1.51024
8823 2 23.4087 3.02047 2.26535
9261 2 21.1433 0 3.02047
9262 2 21.8984 0.755118 3.02047
9264 2 23.4087 0.755118 3.02047
9294 2 21.1433 1.51024 3.02047
9295 2 21.8984 2.26535 3.02047
9298 2 22.6535 1.51024 3.02047
9299 2 23.4087 2.26535 3.02047
9335 2 22.6535 3.02047 3.02047
75 4 1.51024 3.77559 0.755118
98 4 0.755118 5.28583 0
99 4 0.755118 4.53071 0.755118
100 4 0 5.28583 0.755118
101 4 1.51024 4.53071 0
102 4 2.26535 5.28583 0
103 4 2.26535 4.53071 0.755118
104 4 3.02047 4.53071 0
132 4 0.755118 6.79606 0
133 4 2.26535 6.79606 0
588 4 0.755118 3.77559 1.51024
590 4 2.26535 3.77559 1.51024
591 4 1.51024 3.77559 2.26535
611 4 0 5.28583 2.26535
612 4 2.26535 5.28583 1.51024
613 4 3.02047 4.53071 1.51024
615 4 3.02047 5.28583 2.26535
640 4 0.755118 6.79606 1.51024
641 4 0.755118 6.04094 2.26535
642 4 0 6.79606 2.26535
643 4 2.26535 6.04094 2.26535
1106 4 2.26535 3.77559 3.02047
1138 4 1.51024 4.53071 3.02047
1140 4 3.02047 4.53071 3.02047
1169 4 1.51024 6.04094 3.02047
1170 4 2.26535 6.79606 3.02047
1171 4 3.02047 6.04094 3.02047
8257 2 0 3.77559 0.755118
8259 2 2.26535 3.77559 0
8262 2 3.02047 3.77559 0.755118
8295 2 0 4.53071 0
8296 2 1.51024 4.53071 0
8297 2 2.26535 5.28583 0
8298 2 2.26535 4.53071 0.755118
8299 2 3.02047 4.53071 0
8326 2 0.755118 6.79606 0
8327 2 0.755118 6.04094 0.755118
8328 2 0 6.79606 0.755118
8329 2 1.51024 6.04094 0
8330 2 2.26535 6.79606 0
8331 2 2.26535 6.04094 0.755118
8332 2 1.51024 6.79606 0.755118
8333 2 3.02047 6.04094 0
8335 2 3.02047 6.79606 0.755118
8792 2 0 3.77559 2.26535
8794 2 2.26535 3.77559 1.51024
8795 2 1.51024 3.77559 2.26535
8797 2 3.02047 3.77559 2.26535
8824 2 0 4.53071 1.51024
8825 2 0.755118 5.28583 1.51024
8826 2 1.51024 4.53071 1.51024
8827 2 3.02047 4.53071 1.51024
8852 2 0 6.04094 1.51024
8853 2 0.755118 6.79606 1.51024
8854 2 0.755118 6.04094 2.26535
8855 2 0 6.79606 2.26535
8856 2 1.51024 6.04094 1.51024
8857 2 2.26535 6.79606 1.51024
8858 2 2.26535 6.04094 2.26535
8859 2 1.51024 6.79606 2.26535
8861 2 3.02047 6.79606 2.26535
9302 2 0.755118 3.77559 3.02047
9339 2 0 4.53071 3.02047
9340 2 0.755118 5.28583 3.02047
9342 2 1.51024 4.53071 3.02047
9343 2 3.02047 4.53071 3.02047
9377 2 0 6.04094 3.02047
9378 2 1.51024 6.04094 3.02047
9379 2 2.26535 6.79606 3.02047
9382 2 3.02047 6.04094 3.02047
105 4 3.77559 4.53071 0.755118
106 4 5.28583 5.28583 0
107 4 5.28583 4.53071 0.755118
134 4 3.77559 6.04094 0.755118
135 4 4.53071 6.79606 0.755118
136 4 6.04094 6.79606 0.755118
614 4 3.77559 5.28583 1.51024
616 4 5.28583 5.28583 1.51024
617 4 4.53071 5.28583 2.26535
644 4 5.28583 6.04094 2.26535
645 4 4.53071 6.79606 2.26535
646 4 6.79606 6.04094 2.26535
647 4 6.04094 6.79606 2.26535
1111 4 6.79606 3.77559 3.02047
1141 4 3.77559 5.28583 3.02047
1142 4 4.53071 4.53071 3.02047
1144 4 6.04094 4.53071 3.02047
1145 4 6.79606 5.28583 3.02047
1172 4 3.77559 6.79606 3.02047
1175 4 4.53071 6.04094 3.02047
1178 4 6.04094 6.04094 3.02047
1179 4 6.79606 6.79606 3.02047
8264 2 4.53071 3.77559 0.755118
8266 2 6.79606 3.77559 0
8300 2 3.77559 5.28583 0
8301 2 4.53071 4.53071 0
8302 2 5.28583 5.28583 0
8303 2 4.53071 5.28583 0.755118
8304 2 6.79606 5.28583 0
8305 2 6.79606 4.53071 0.755118
8334 2 3.77559 6.79606 0
8336 2 5.28583 6.79606 0
8337 2 6.79606 6.79606 0
8338 2 6.79606 6.04094 0.755118
8339 2 6.04094 6.79606 0.755118
8798 2 5.28583 3.77559 1.51024
8799 2 4.53071 3.77559 2.26535
8800 2 6.04094 3.77559 2.26535
8828 2 3.77559 5.28583 1.51024
8829 2 5.28583 5.28583 1.51024
8830 2 4.53071 5.28583 2.26535
8831 2 6.04094 4.53071 1.51024
8832 2 6.04094 5.28583 2.26535
8860 2 3.77559 6.79606 1.51024
8862 2 4.53071 6.79606 2.26535
8863 2 6.79606 6.79606 1.51024
9306 2 5.28583 3.77559 3.02047
9310 2 6.79606 3.77559 3.02047
9344 2 3.77559 5.28583 3.02047
9347 2 4.53071 4.53071 3.02047
9348 2 5.28583 5.28583 3.02047
9383 2 3.77559 6.79606 3.02047
9386 2 4.53071 6.04094 3.02047
79 4 8.3063 3.77559 0
108 4 7.55118 4.53071 0
109 4 8.3063 5.28583 0
110 4 8.3063 4.53071 0.755118
111 4 9.06142 4.53071 0
112 4 9.81654 4.53071 0.755118
113 4 9.06142 5.28583 0.755118
137 4 7.55118 6.04094 0
138 4 8.3063 6.79606 0
139 4 9.06142 6.04094 0
140 4 9.81654 6.79606 0
595 4 8.3063 3.77559 1.51024
618 4 7.55118 4.53071 1.51024
619 4 8.3063 4.53071 2.26535
620 4 9.81654 5.28583 1.51024
648 4 8.3063 6.04094 2.26535
649 4 7.55118 6.79606 2.26535
650 4 9.81654 6.04094 2.26535
651 4 9.06142 6.79606 2.26535
1115 4 9.81654 3.77559 3.02047
1146 4 7.55118 4.53071 3.02047
1148 4 9.06142 4.53071 3.02047
1183 4 9.81654 6.79606 3.02047
8269 2 8.3063 3.77559 0
8271 2 9.81654 3.77559 0
8272 2 9.06142 3.77559 0.755118
8306 2 8.3063 5.28583 0
8307 2 9.81654 5.28583 0
8308 2 9.06142 5.28583 0.755118
8340 2 7.55118 6.04094 0
8341 2 8.3063 6.04094 0.755118
8342 2 7.55118 6.79606 0.755118
8343 2 9.81654 6.79606 0
8344 2 9.81654 6.04094 0.755118
8345 2 9.06142 6.79606 0.755118
8801 2 8.3063 3.77559 1.51024
8803 2 9.06142 3.77559 2.26535
8833 2 9.81654 5.28583 1.51024
8864 2 7.55118 6.04094 1.51024
8865 2 8.3063 6.04094 2.26535
8866 2 9.06142 6.04094 1.51024
8867 2 9.81654 6.79606 1.51024
9313 2 8.3063 3.77559 3.02047
9353 2 9.06142 4.53071 3.02047
9354 2 9.81654 5.28583 3.02047
9389 2 8.3063 6.79606 3.02047
9391 2 9.06142 6.04094 3.02047
9392 2 9.81654 6.79606 3.02047
83 4 10.5717 3.77559 0.755118
86 4 13.5921 3.77559 0.755118
114 4 10.5717 4.53071 0
115 4 11.3268 5.28583 0
116 4 11.3268 4.53071 0.755118
117 4 10.5717 5.28583 0.755118
118 4 12.0819 5.28583 0.755118
119 4 13.5921 4.53071 0
122 4 13.5921 5.28583 0.755118
141 4 11.3268 6.79606 0
142 4 10.5717 6.79606 0.755118
143 4 12.837 6.04094 0.755118
144 4 12.0819 6.79606 0.755118
147 4 13.5921 6.79606 0.755118
599 4 11.3268 3.77559 1.51024
601 4 12.837 3.77559 1.51024
602 4 12.0819 3.77559 2.26535
621 4 11.3268 5.28583 1.51024
622 4 10.5717 5.28583 2.26535
623 4 12.0819 4.53071 1.51024
624 4 12.837 5.28583 1.51024
625 4 12.0819 5.28583 2.26535
626 4 13.5921 4.53071 1.51024
652 4 11.3268 6.79606 1.51024
653 4 10.5717 6.79606 2.26535
654 4 12.0819 6.04094 1.51024
655 4 12.837 6.79606 1.51024
656 4 12.837 6.04094 2.26535
657 4 13.5921 6.04094 1.51024
1149 4 10.5717 4.53071 3.02047
1152 4 12.837 5.28583 3.02047
1186 4 11.3268 6.79606 3.02047
1188 4 12.0819 6.04094 3.02047
1189 4 12.837 6.79606 3.02047
1191 4 13.5921 6.04094 3.02047
8273 2 10.5717 3.77559 0.755118
8275 2 12.837 3.77559 0
8276 2 12.0819 3.77559 0.755118
8280 2 13.5921 3.77559 0.755118
8309 2 10.5717 4.53071 0
8310 2 11.3268 4.53071 0.755118
8311 2 10.5717 5.28583 0.755118
8312 2 12.0819 4.53071 0
8313 2 12.837 5.28583 0
8314 2 13.5921 4.53071 0
8346 2 10.5717 6.79606 0.755118
8347 2 12.837 6.79606 0
8348 2 12.0819 6.79606 0.755118
8350 2 13.5921 6.79606 0.755118
8805 2 12.837 3.77559 1.51024
8807 2 12.0819 3.77559 2.26535
8808 2 13.5921 3.77559 2.26535
8834 2 11.3268 5.28583 1.51024
8835 2 12.0819 4.53071 1.51024
8836 2 12.837 5.28583 1.51024
8837 2 12.0819 5.28583 2.26535
8868 2 10.5717 6.04094 1.51024
8869 2 11.3268 6.79606 1.51024
8870 2 12.837 6.79606 1.51024
8873 2 13.5921 6.79606 2.26535
9318 2 11.3268 3.77559 3.02047
9319 2 12.837 3.77559 3.02047
9356 2 10.5717 4.53071 3.02047
9357 2 11.3268 5.28583 3.02047
9360 2 13.5921 4.53071 3.02047
9393 2 10.5717 6.04094 3.02047
9395 2 12.0819 6.04094 3.02047
85 4 14.3472 3.77559 0
88 4 15.1024 3.77559 0.755118
90 4 16.6126 3.77559 0.755118
120 4 14.3472 5.28583 0
121 4 14.3472 4.53071 0.755118
123 4 15.1024 4.53071 0
124 4 15.8575 4.53071 0.755118
145 4 14.3472 6.79606 0
146 4 14.3472 6.04094 0.755118
148 4 15.1024 6.04094 0
149 4 15.8575 6.79606 0
150 4 15.1024 6.79606 0.755118
627 4 14.3472 4.53071 2.26535
628 4 15.1024 4.53071 1.51024
629 4 15.8575 5.28583 1.51024
630 4 15.1024 5.28583 2.26535
632 4 16.6126 5.28583 2.26535
658 4 14.3472 6.79606 1.51024
659 4 15.8575 6.79606 1.51024
660 4 16.6126 6.04094 1.51024
1192 4 14.3472 6.79606 3.02047
1194 4 15.1024 6.04094 3.02047
1195 4 15.8575 6.79606 3.02047
8278 2 14.3472 3.77559 0
8282 2 15.8575 3.77559 0
8315 2 14.3472 4.53071 0.755118
8316 2 15.1024 4.53071 0
8317 2 16.6126 4.53071 0
8318 2 16.6126 5.28583 0.755118
8349 2 14.3472 6.04094 0.755118
8351 2 15.8575 6.79606 0
8352 2 15.1024 6.79606 0.755118
8353 2 16.6126 6.04094 0
8355 2 16.6126 6.79606 0.755118
8809 2 15.8575 3.77559 1.51024
8811 2 15.1024 3.77559 2.26535
8815 2 16.6126 3.77559 2.26535
8838 2 14.3472 5.28583 1.51024
8839 2 15.1024 4.53071 1.51024
8840 2 15.8575 5.28583 1.51024
8841 2 15.8575 4.53071 2.26535
8842 2 15.1024 5.28583 2.26535
8844 2 16.6126 5.28583 2.26535
8871 2 14.3472 6.79606 1.51024
8872 2 14.3472 6.04094 2.26535
8874 2 15.8575 6.79606 1.51024
8875 2 15.8575 6.04094 2.26535
8876 2 15.1024 6.79606 2.26535
9322 2 14.3472 3.77559 3.02047
9326 2 15.8575 3.77559 3.02047
9361 2 14.3472 5.28583 3.02047
9364 2 15.1024 4.53071 3.02047
9365 2 15.8575 5.28583 3.02047
9367 2 16.6126 4.53071 3.02047
9396 2 14.3472 6.79606 3.02047
9398 2 15.8575 6.79606 3.02047
9401 2 16.6126 6.04094 3.02047
91 4 18.878 3.77559 0
92 4 18.1228 3.77559 0.755118
93 4 19.6331 3.77559 0.755118
125 4 18.878 5.28583 0
126 4 18.878 4.53071 0.755118
127 4 18.1228 5.28583 0.755118
128 4 19.6331 4.53071 0
129 4 20.3882 4.53071 0.755118
151 4 17.3677 6.79606 0
152 4 18.1228 6.04094 0
153 4 18.878 6.79606 0
154 4 18.1228 6.79606 0.755118
155 4 19.6331 6.04094 0
156 4 20.3882 6.04094 0.755118
157 4 19.6331 6.79606 0.755118
605 4 18.1228 3.77559 2.26535
607 4 19.6331 3.77559 2.26535
631 4 17.3677 4.53071 2.26535
633 4 18.1228 4.53071 1.51024
634 4 19.6331 5.28583 2.26535
661 4 17.3677 6.79606 1.51024
662 4 18.1228 6.04094 1.51024
663 4 18.878 6.79606 1.51024
664 4 19.6331 6.04094 1.51024
665 4 20.3882 6.04094 2.26535
666 4 19.6331 6.79606 2.26535
1126 4 17.3677 3.77559 3.02047
1130 4 20.3882 3.77559 3.02047
1156 4 17.3677 5.28583 3.02047
1158 4 18.1228 4.53071 3.02047
1160 4 20.3882 5.28583 3.02047
1198 4 17.3677 6.79606 3.02047
1199 4 19.6331 6.04094 3.02047
8284 2 17.3677 3.77559 0
8286 2 20.3882 3.77559 0
8288 2 19.6331 3.77559 0.755118
8319 2 20.3882 4.53071 0.755118
8320 2 19.6331 5.28583 0.755118
8354 2 17.3677 6.04094 0.755118
8356 2 18.1228 6.04094 0
8357 2 18.878 6.04094 0.755118
8358 2 18.1228 6.79606 0.755118
8359 2 20.3882 6.04094 0.755118
8360 2 19.6331 6.79606 0.755118
8813 2 17.3677 3.77559 1.51024
8817 2 18.878 3.77559 1.51024
8819 2 18.1228 3.77559 2.26535
8843 2 17.3677 5.28583 1.51024
8845 2 18.1228 5.28583 2.26535
8846 2 19.6331 5.28583 2.26535
8877 2 18.878 6.04094 2.26535
8878 2 19.6331 6.04094 1.51024
9329 2 18.878 3.77559 3.02047
9369 2 18.1228 4.53071 3.02047
9370 2 20.3882 5.28583 3.02047
9403 2 19.6331 6.04094 3.02047
96 4 23.4087 3.77559 0
97 4 22.6535 3.77559 0.755118
130 4 21.1433 4.53071 0
131 4 23.4087 5.28583 0
158 4 21.1433 6.04094 0
159 4 22.6535 6.79606 0.755118
608 4 21.1433 3.77559 2.26535
610 4 23.4087 3.77559 1.51024
635 4 21.8984 5.28583 1.51024
636 4 21.1433 5.28583 2.26535
637 4 22.6535 4.53071 1.51024
638 4 23.4087 4.53071 2.26535
639 4 22.6535 5.28583 2.26535
667 4 21.1433 6.04094 1.51024
668 4 21.8984 6.79606 1.51024
669 4 21.8984 6.04094 2.26535
670 4 23.4087 6.04094 2.26535
671 4 22.6535 6.79606 2.26535
1136 4 23.4087 3.77559 3.02047
1161 4 21.1433 4.53071 3.02047
1162 4 21.8984 5.28583 3.02047
1164 4 22.6535 4.53071 3.02047
1165 4 23.4087 5.28583 3.02047
1201 4 21.1433 6.04094 3.02047
1203 4 22.6535 6.04094 3.02047
1204 4 23.4087 6.79606 3.02047
8290 2 21.8984 3.77559 0
8291 2 21.1433 3.77559 0.755118
8293 2 23.4087 3.77559 0
8294 2 22.6535 3.77559 0.755118
8321 2 21.1433 4.53071 0
8322 2 21.1433 5.28583 0.755118
8323 2 22.6535 4.53071 0
8324 2 23.4087 5.28583 0
8325 2 22.6535 5.28583 0.755118
8361 2 21.8984 6.79606 0
8362 2 22.6535 6.04094 0
8363 2 23.4087 6.79606 0
8364 2 23.4087 6.04094 0.755118
8365 2 22.6535 6.79606 0.755118
8821 2 21.1433 3.77559 2.26535
8822 2 23.4087 3.77559 1.51024
8847 2 21.1433 4.53071 1.51024
8848 2 21.8984 5.28583 1.51024
8849 2 21.8984 4.53071 2.26535
8850 2 21.1433 5.28583 2.26535
8851 2 23.4087 5.28583 1.51024
8879 2 23.4087 6.04094 2.26535
9336 2 23.4087 3.77559 3.02047
9372 2 21.1433 4.53071 3.02047
9373 2 21.8984 5.28583 3.02047
9375 2 22.6535 4.53071 3.02047
9405 2 21.1433 6.04094 3.02047
9406 2 21.8984 6.79606 3.02047
9409 2 23.4087 6.79606 3.02047
160 4 0 7.55118 0
161 4 0.755118 8.3063 0
162 4 0.755118 7.55118 0.755118
163 4 0 8.3063 0.755118
164 4 1.51024 7.55118 0
165 4 2.26535 7.55118 0.755118
168 4 3.02047 8.3063 0.755118
193 4 0.755118 9.81654 0
194 4 0.755118 9.06142 0.755118
195 4 0 9.81654 0.755118
196 4 1.51024 9.06142 0
197 4 2.26535 9.81654 0
198 4 3.02047 9.06142 0
201 4 3.02047 9.81654 0.755118
672 4 0 7.55118 1.51024
673 4 0.755118 7.55118 2.26535
674 4 0 8.3063 2.26535
675 4 1.51024 7.55118 1.51024
676 4 2.26535 8.3063 1.51024
677 4 2.26535 7.55118 2.26535
678 4 1.51024 8.3063 2.26535
679 4 3.02047 7.55118 1.51024
711 4 0 9.06142 1.51024
712 4 0.755118 9.81654 1.51024
713 4 1.51024 9.06142 1.51024
714 4 1.51024 9.81654 2.26535
717 4 3.02047 9.81654 2.26535
1207 4 0 7.55118 3.02047
1208 4 0.755118 8.3063 3.02047
1243 4 1.51024 9.06142 3.02047
8366 2 0 7.55118 0
8367 2 0.755118 8.3063 0
8368 2 0.755118 7.55118 0.755118
8369 2 0 8.3063 0.755118
8370 2 1.51024 7.55118 0
8371 2 2.26535 8.3063 0
8372 2 2.26535 7.55118 0.755118
8373 2 1.51024 8.3063 0.755118
8374 2 3.02047 7.55118 0
8404 2 1.51024 9.06142 0
8405 2 1.51024 9.81654 0.755118
8406 2 3.02047 9.06142 0
8880 2 0 7.55118 1.51024
8881 2 0.755118 7.55118 2.26535
8882 2 0 8.3063 2.26535
8883 2 1.51024 7.55118 1.51024
8884 2 2.26535 8.3063 1.51024
8885 2 2.26535 7.55118 2.26535
8886 2 3.02047 7.55118 1.51024
8918 2 0 9.06142 1.51024
8919 2 0.755118 9.81654 1.51024
8920 2 1.51024 9.06142 1.51024
8921 2 2.26535 9.81654 1.51024
8922 2 2.26535 9.06142 2.26535
8923 2 3.02047 9.06142 1.51024
9412 2 0 7.55118 3.02047
9413 2 0.755118 8.3063 3.02047
9416 2 1.51024 7.55118 3.02047
9417 2 2.26535 8.3063 3.02047
9420 2 3.02047 7.55118 3.02047
9446 2 1.51024 9.06142 3.02047
9447 2 3.02047 9.06142 3.02047
166 4 3.77559 8.3063 0
167 4 3.77559 7.55118 0.755118
169 4 5.28583 7.55118 0.755118
170 4 4.53071 8.3063 0.755118
171 4 6.04094 7.55118 0
172 4 6.79606 8.3063 0
173 4 6.79606 7.55118 0.755118
174 4 6.04094 8.3063 0.755118
199 4 3.77559 9.81654 0
200 4 3.77559 9.06142 0.755118
202 4 4.53071 9.06142 0
203 4 5.28583 9.81654 0
204 4 5.28583 9.06142 0.755118
205 4 6.79606 9.81654 0
206 4 6.79606 9.06142 0.755118
680 4 3.77559 8.3063 1.51024
681 4 3.77559 7.55118 2.26535
682 4 4.53071 7.55118 1.51024
683 4 5.28583 8.3063 1.51024
684 4 4.53071 8.3063 2.26535
685 4 6.04094 7.55118 1.51024
686 4 6.79606 8.3063 1.51024
687 4 6.79606 7.55118 2.26535
715 4 3.77559 9.81654 1.51024
716 4 3.77559 9.06142 2.26535
718 4 4.53071 9.06142 1.51024
719 4 5.28583 9.81654 1.51024
720 4 4.53071 9.81654 2.26535
721 4 6.04094 9.06142 1.51024
722 4 6.04094 9.81654 2.26535
1211 4 3.77559 8.3063 3.02047
1212 4 4.53071 7.55118 3.02047
1213 4 5.28583 8.3063 3.02047
1214 4 6.04094 7.55118 3.02047
1215 4 6.79606 8.3063 3.02047
1247 4 4.53071 9.06142 3.02047
1248 4 5.28583 9.81654 3.02047
1251 4 6.04094 9.06142 3.02047
1252 4 6.79606 9.81654 3.02047
8375 2 3.77559 8.3063 0
8376 2 5.28583 8.3063 0
8377 2 5.28583 7.55118 0.755118
8378 2 6.04094 7.55118 0
8379 2 6.79606 8.3063 0
8380 2 6.79606 7.55118 0.755118
8381 2 6.04094 8.3063 0.755118
8407 2 3.77559 9.81654 0
8408 2 4.53071 9.06142 0
8409 2 4.53071 9.81654 0.755118
8410 2 6.04094 9.06142 0
8411 2 6.79606 9.81654 0
8412 2 6.04094 9.81654 0.755118
8887 2 3.77559 8.3063 1.51024
8888 2 5.28583 8.3063 1.51024
8889 2 4.53071 8.3063 2.26535
8890 2 6.04094 7.55118 1.51024
8891 2 6.79606 8.3063 1.51024
8924 2 3.77559 9.81654 1.51024
8925 2 3.77559 9.06142 2.26535
8926 2 4.53071 9.06142 1.51024
8927 2 5.28583 9.81654 1.51024
8928 2 6.04094 9.06142 1.51024
8929 2 6.79606 9.06142 2.26535
9421 2 3.77559 8.3063 3.02047
9422 2 4.53071 7.55118 3.02047
9423 2 5.28583 8.3063 3.02047
9425 2 6.04094 7.55118 3.02047
9426 2 6.79606 8.3063 3.02047
9448 2 3.77559 9.81654 3.02047
9451 2 4.53071 9.06142 3.02047
9453 2 6.79606 9.81654 3.02047
175 4 7.55118 7.55118 0
176 4 7.55118 8.3063 0.755118
177 4 9.06142 7.55118 0
178 4 9.81654 8.3063 0
207 4 8.3063 9.81654 0
208 4 7.55118 9.81654 0.755118
209 4 9.06142 9.06142 0
210 4 9.81654 9.81654 0
688 4 7.55118 7.55118 1.51024
689 4 8.3063 8.3063 1.51024
690 4 8.3063 7.55118 2.26535
691 4 9.81654 8.3063 1.51024
692 4 9.81654 7.55118 2.26535
693 4 9.06142 8.3063 2.26535
723 4 8.3063 9.81654 1.51024
724 4 8.3063 9.06142 2.26535
725 4 9.81654 9.06142 2.26535
726 4 9.06142 9.81654 2.26535
1219 4 9.06142 7.55118 3.02047
1220 4 9.81654 8.3063 3.02047
1254 4 7.55118 9.06142 3.02047
1255 4 8.3063 9.81654 3.02047
1257 4 9.06142 9.06142 3.02047
1258 4 9.81654 9.81654 3.02047
8382 2 8.3063 8.3063 0
8383 2 8.3063 7.55118 0.755118
8384 2 9.81654 8.3063 0
8385 2 9.81654 7.55118 0.755118
8413 2 7.55118 9.06142 0
8414 2 8.3063 9.06142 0.755118
8415 2 9.81654 9.81654 0
8416 2 9.81654 9.06142 0.755118
8892 2 8.3063 8.3063 1.51024
8893 2 8.3063 7.55118 2.26535
8894 2 9.06142 7.55118 1.51024
8895 2 9.81654 8.3063 1.51024
8896 2 9.06142 8.3063 2.26535
8930 2 8.3063 9.81654 1.51024
8931 2 8.3063 9.06142 2.26535
8932 2 9.06142 9.81654 2.26535
9454 2 7.55118 9.06142 3.02047
9455 2 8.3063 9.81654 3.02047
9456 2 9.06142 9.06142 3.02047
9457 2 9.81654 9.81654 3.02047
179 4 11.3268 8.3063 0
180 4 13.5921 7.55118 0
182 4 13.5921 8.3063 0.755118
211 4 11.3268 9.81654 0
212 4 12.0819 9.06142 0
213 4 12.837 9.81654 0
214 4 12.837 9.06142 0.755118
215 4 12.0819 9.81654 0.755118
694 4 12.837 7.55118 2.26535
695 4 12.0819 8.3063 2.26535
727 4 11.3268 9.81654 1.51024
728 4 12.0819 9.06142 1.51024
729 4 12.837 9.81654 1.51024
730 4 12.837 9.06142 2.26535
731 4 13.5921 9.06142 1.51024
733 4 13.5921 9.81654 2.26535
1222 4 10.5717 7.55118 3.02047
1223 4 11.3268 8.3063 3.02047
1261 4 12.837 9.81654 3.02047
8386 2 10.5717 7.55118 0
8387 2 11.3268 8.3063 0
8388 2 12.0819 8.3063 0.755118
8417 2 10.5717 9.06142 0
8418 2 11.3268 9.06142 0.755118
8419 2 12.0819 9.06142 0
8420 2 12.837 9.06142 0.755118
8421 2 13.5921 9.06142 0
8897 2 10.5717 7.55118 1.51024
8898 2 12.837 8.3063 1.51024
8901 2 13.5921 8.3063 2.26535
8933 2 10.5717 9.06142 1.51024
8934 2 11.3268 9.81654 1.51024
8935 2 10.5717 9.81654 2.26535
8936 2 12.837 9.81654 1.51024
8937 2 13.5921 9.06142 1.51024
8940 2 13.5921 9.81654 2.26535
9430 2 11.3268 8.3063 3.02047
9432 2 13.5921 7.55118 3.02047
9460 2 12.837 9.81654 3.02047
9463 2 13.5921 9.06142 3.02047
181 4 14.3472 8.3063 0
183 4 15.1024 7.55118 0
184 4 16.6126 7.55118 0
185 4 16.6126 8.3063 0.755118
216 4 14.3472 9.81654 0
217 4 14.3472 9.06142 0.755118
218 4 15.1024 9.06142 0