ITEM: TIMESTEP
0
ITEM: NUMBER OF ATOMS
50688
ITEM: BOX BOUNDS xy xz yz pp pp pp
-40.1340523 55.7279129 15.5938702
-43.8030052 43.8030052 0.0
-43.7915344 43.7915344 0.0
ITEM: ATOMS id type x y z VoronoiIndex1 VoronoiIndex2 VoronoiIndex3 VoronoiIndex4 VoronoiIndex5 VoronoiIndex6 VoronoiIndex7 VoronoiIndex8 VoronoiIndex9 AtomicVolume
2 2 -13.6899996 -18.3899994 -7.7919998 0 0 0 2 8 2 0 0 0 11.4975701
4 2 -31.1299992 -21.7000008 -18.1399994 0 0 0 0 12 0 0 0 0 10.8490268
15 4 -9.2840004 -25.0400009 -21.1700001 0 0 0 1 10 2 0 0 0 11.8139439
23 2 -18.1100006 -31.7900009 -14.2200003 0 0 0 0 12 0 0 0 0 11.6252537
33 1 -12.6700001 -5.2379999 -27.3199997 0 0 0 0 12 0 0 0 0 11.0079002
39 4 -25.1599999 -34.2799988 -41.9700012 0 0 0 0 12 2 0 0 0 12.5386153
45 4 -3.655 -14.8100004 -15.2399998 0 0 0 0 12 0 0 0 0 11.501091
46 4 -28.5599995 -12.5200005 -43.3300018 0 0 0 1 10 4 0 0 0 12.9414244
68 4 -12.6300001 -9.9259996 -9.8299999 0 0 0 2 10 2 0 0 0 12.3346567
75 5 -1.327 -28.8400002 -36.1500015 0 0 1 5 5 5 0 0 0 13.0071754
88 5 -34.1599999 -31.5599995 -0.2354 0 0 1 0 9 3 0 0 0 11.0991287
90 4 -14.8100004 -42.8300019 -36.0800018 0 0 0 2 12 0 0 0 0 12.2404585
93 2 -35.7999993 -19.5200005 -24.8099995 0 0 0 0 12 0 0 0 0 10.783392
97 5 -21.9400006 -8.474 -0.6721 0 0 0 1 9 2 1 0 0 12.0703058
106 4 -14.4700003 -31.9300004 -2.5869999 0 0 0 1 9 2 1 0 0 12.8601046
109 4 -32.4500008 -10.3699999 -26.4300003 0 0 0 1 10 5 0 0 0 13.074481
114 2 -12.2399998 -40.0200005 -6.7379999 0 0 0 3 6 4 0 0 0 11.2789803
118 2 -5.98 -35.4000015 -30.4400006 0 0 0 0 12 0 0 0 0 11.1352959
119 4 -34.869999 -21.9099998 -19.0 0 0 0 3 8 1 0 0 0 11.6626854
122 4 -2.7720001 -35.2999992 -33.1300011 0 0 0 0 12 3 0 0 0 12.4747544
141 4 -20.1200008 -11.0 -40.1500015 0 0 0 1 10 4 0 0 0 12.7860117
162 4 -3.845 -14.1400003 -34.75 0 0 0 1 10 6 0 0 0 13.8782206
164 1 -6.8299999 -8.1899996 -40.5699997 0 0 0 2 8 3 0 0 0 11.4695845
169 1 -0.5977 -12.6300001 -18.4400006 0 0 0 1 10 2 0 0 0 11.3764219
174 5 1.196 -8.5150004 -29.5300007 0 0 0 2 8 4 0 0 0 12.6570235
187 4 0.7339 -10.7700005 -21.6000004 0 0 0 2 8 4 0 0 0 12.2750654
199 1 -9.2930002 -31.3099995 -27.2700005 0 0 0 1 10 2 0 0 0 11.6775522
205 4 4.2010002 -2.3989999 -33.3899994 0 0 0 3 8 4 0 0 0 11.7759981
223 2 -5.8449998 -37.7000008 -23.2000008 0 0 0 2 8 4 0 0 0 11.8060799
227 4 -16.4599991 -6.7729998 -28.7399998 0 0 0 0 12 2 0 0 0 12.9127418
230 2 0.7322001 -37.0 -10.3299999 0 0 1 1 9 0 2 0 0 11.2647267
234 5 -21.4899998 -43.6300011 -13.1899996 0 0 0 1 10 2 0 0 0 11.5645132
237 2 -16.1100006 -37.9700012 -34.4099999 0 0 0 2 8 2 0 0 0 12.3782158
253 5 -2.181 -4.593 -34.5400009 0 0 0 2 8 4 0 0 0 12.7367945
254 4 -9.1289997 -25.4599991 -4.7230001 0 0 0 3 6 4 0 0 0 12.2574282
258 2 -9.2290001 -37.3699989 -41.9199982 0 0 0 0 12 0 0 0 0 11.9070054
259 5 -6.0999999 -36.8899994 -34.9700012 0 0 0 0 10 2 0 0 0 12.0431366
265 5 -36.2000008 -21.7999993 -25.5400009 0 0 1 2 9 3 0 0 0 12.6039515
275 5 -36.0400009 -21.8600006 -32.5600014 0 0 0 4 6 4 0 0 0 12.7103157
286 3 -15.87 -33.0400009 -23.0799999 0 0 0 2 9 2 1 0 0 12.6752968
293 5 -19.5200005 -8.606 -43.5299988 0 0 0 3 8 2 0 0 0 12.224968
297 5 -17.2900009 -8.4280005 -20.1299992 0 0 0 1 10 4 0 0 0 12.7497721
306 1 -1.474 -17.4899998 -1.864 0 0 0 2 8 2 0 0 0 11.4948941
326 4 -26.1399994 -23.0200005 -9.6359997 0 0 0 3 8 4 0 0 0 12.5228939
330 4 3.52 -23.2099991 -25.2000008 0 0 0 2 8 4 0 0 0 12.9443598
338 5 -27.7700005 -34.0 -31.0799999 0 0 1 2 6 5 1 0 0 12.3303318
339 4 -5.092 -38.7200012 -10.5 0 0 0 3 6 6 0 0 0 13.9444828
349 4 -26.7999993 -42.25 -16.5499993 0 0 0 1 12 1 0 0 0 12.6206923
350 4 -33.5 -15.0900002 -37.2700005 0 0 0 2 8 3 0 0 0 12.1015949
364 4 -6.7550001 -21.7900009 -42.4099999 0 0 0 0 12 0 0 0 0 11.1449766
378 1 -8.0550003 -43.6800003 -17.3400002 0 0 0 0 12 0 0 0 0 11.1286278
382 4 3.8069999 -13.7399998 -16.8099995 0 0 0 2 10 2 0 0 0 12.9011536
387 3 -17.3799992 -23.9500008 -32.6899987 0 0 2 2 6 6 0 0 0 13.1523314
397 1 -10.4099999 -27.7800007 -24.2099991 0 0 0 2 8 2 0 0 0 11.3042927
403 4 -36.9799996 -33.5200005 -14.9499998 0 0 0 2 10 1 0 0 0 12.6186896
414 4 -11.9499998 -1.15 -7.7410002 0 0 0 2 7 2 1 0 0 12.0069265
415 4 -13.04 -2.8670002 -27.4899998 0 0 1 0 11 3 0 0 0 12.7706747
423 2 -29.0799999 -13.79 -26.4200001 0 0 0 1 9 2 1 0 0 11.6933871
424 3 -24.4099999 -37.6899987 -30.3600006 0 0 0 2 8 5 0 0 0 12.4415531
440 2 -12.5799999 -30.5400009 -36.8100014 0 0 0 4 5 4 1 0 0 12.683712
444 2 4.4260001 -17.6800003 -40.4099999 0 0 0 0 12 0 0 0 0 12.3031569
449 4 2.866 -15.6999998 -39.9300004 0 0 0 2 10 2 0 0 0 12.8466072
454 4 5.198 -3.402 -39.5499993 0 0 0 1 12 3 0 0 0 13.7341233
461 2 -20.7800007 -1.351 -6.4510002 0 0 1 2 7 2 0 0 0 11.1994228
469 2 -7.4200001 -15.0500002 -6.533 0 0 1 4 4 3 1 0 0 11.7481585
477 2 -17.2299996 -19.0100002 -26.0300007 0 0 0 0 12 0 0 0 0 10.8321572
478 5 -12.4399996 -9.7749996 -32.4500008 0 0 0 1 10 2 0 0 0 11.0010471
483 4 -9.731 -6.803 -30.8400002 0 0 0 2 8 4 0 0 0 12.5477896
485 4 -15.7100001 -16.3199997 -4.2779999 0 0 0 1 10 2 0 0 0 11.3673802
495 4 -35.4500008 -24.7800007 -1.141 0 0 0 2 10 3 0 0 0 12.6776896
497 5 -5.3920002 -37.9199982 -42.7299996 0 0 0 2 8 2 0 0 0 11.3572016
508 4 -25.0400009 -23.5 -13.3199997 0 0 0 3 6 4 0 0 0 12.0565834
511 4 -21.6900006 -22.6700001 -35.0099983 0 0 0 1 10 5 0 0 0 14.1435566
514 2 -15.9499998 -23.6700001 -39.0600014 0 0 1 2 6 3 1 0 0 11.616251
537 5 -19.0499992 -18.7900009 -14.7600003 0 0 0 4 4 6 0 0 0 12.6663838
544 3 -30.9400006 -13.29 -39.1199989 0 0 0 4 6 3 0 0 0 12.3515701
546 2 -16.1599999 -13.6099997 -34.0099983 0 0 0 3 6 4 0 0 0 11.2825251
553 4 -34.7000008 -28.3299999 -5.2620001 0 0 0 0 12 3 0 0 0 12.5357981
554 5 -21.8600006 -39.1599999 -18.5499993 0 0 0 1 10 2 0 0 0 11.52421
567 2 -11.7200003 -42.7099991 -18.0200005 0 0 1 3 5 5 0 0 0 12.1836309
574 4 -32.6500016 -24.6000004 -15.6000004 0 0 1 3 6 2 3 0 0 12.5304899
579 5 -21.7900009 -25.8600006 -23.7800007 0 0 0 1 12 2 0 0 0 12.5625181
595 4 -6.3470001 -23.8999996 -24.3799992 0 0 0 2 10 3 0 0 0 13.5619746
621 2 -31.1000004 -32.8400002 -7.1659999 0 0 1 3 6 5 1 0 0 12.3080483
644 2 -15.1400003 -8.9379998 -21.3400002 0 0 0 0 12 0 0 0 0 11.2052183
661 2 1.872 -26.1399994 -27.4300003 0 0 0 2 8 2 0 0 0 12.3076353
664 4 -5.5390001 -31.5 -37.6599999 0 0 0 1 10 3 0 0 0 12.0727701
667 4 1.012 -26.0699997 -7.415 0 0 0 4 6 3 0 0 0 12.8514358
670 4 -25.8700008 -20.1299992 -40.7200012 0 0 0 2 10 1 0 0 0 11.5459032
672 4 -3.072 -42.4700012 -26.2800007 0 0 0 1 10 3 0 0 0 11.9710694
690 2 -21.75 -32.5900002 -36.7299996 0 0 0 4 4 5 0 0 0 11.8408136
699 4 -7.0120001 -22.2000008 -27.5699997 0 0 0 4 6 6 0 0 0 12.6114865
701 5 -20.1000004 -31.5499993 -2.848 0 0 1 1 9 4 0 0 0 12.5789671
702 5 -9.9160004 -34.4000015 -14.1199999 0 0 0 0 12 0 0 0 0 11.2855635
708 4 0.0523 -2.8900002 -34.0900002 0 0 1 1 9 3 0 0 0 12.5325966
718 4 -21.0599995 -13.8900004 -30.9699994 0 0 0 2 8 4 0 0 0 12.2603598
731 4 -2.398 -20.1499996 -28.6900006 0 0 0 4 5 6 1 0 0 13.5803995
733 4 -18.0300007 -20.4500008 -24.2000008 0 0 0 2 8 4 0 0 0 11.6542263
740 2 -36.9700012 -37.9399986 -42.1100006 0 0 0 0 12 0 0 0 0 11.469163
759 4 5.651 -2.1630001 -1.571 0 0 0 0 12 2 0 0 0 12.3338003
766 4 -28.6599999 -12.5299998 -12.79 0 0 0 1 12 1 0 0 0 12.8032351
773 2 -16.0599995 -25.3299999 -30.6800003 0 0 0 1 10 2 0 0 0 11.97824
779 5 -14.2600002 -34.4599991 -18.7000008 0 0 0 3 8 2 0 0 0 11.9929734
782 2 1.127 -19.6100006 -9.2010002 0 0 1 1 10 1 1 0 0 11.9557868
783 5 -1.906 -26.3400002 -17.1299992 0 0 2 2 6 3 2 0 0 12.3048153
792 4 -2.9230002 -31.8500004 -36.3600006 0 0 1 1 11 3 0 0 0 13.2554884
804 2 -8.7189999 -2.0580001 -39.0699997 0 0 1 3 5 5 0 0 0 11.7120333
824 5 -29.1299992 -24.8899994 -2.2390001 0 0 0 1 10 3 0 0 0 12.3166304
827 2 -8.0559998 -36.6699982 -23.2399998 0 0 0 2 10 0 0 0 0 11.8885032
839 2 -27.9699994 -41.9300004 -4.2389999 0 0 0 2 8 2 0 0 0 11.7227068
853 4 -31.9500008 -8.7989998 -28.7800007 0 0 0 1 10 2 0 0 0 12.1606703
857 5 -29.0200005 -15.8999996 -17.3299999 0 0 0 1 10 2 0 0 0 12.3012571
858 4 -23.4099999 -10.4799996 -4.244 0 0 1 2 8 5 1 0 0 14.8005762
864 4 -0.4244 -12.1000004 -27.6299992 0 0 0 1 10 4 0 0 0 12.5263777
867 1 -1.845 -28.2800007 -20.8999996 0 0 0 0 12 0 0 0 0 10.7728424
900 2 5.086 -5.8540002 -43.4300003 0 0 0 0 12 0 0 0 0 10.9783364
912 5 -24.5599995 -43.0900002 -39.4599991 0 0 1 0 11 1 0 0 0 12.5582667
913 1 -11.5600004 -10.4700003 -24.5400009 0 0 0 3 6 4 0 0 0 11.8138943
918 4 -14.7100001 -17.8799992 -33.5600014 0 0 0 3 6 4 0 0 0 11.9839716
919 5 -3.899 -14.2299996 -8.9659996 0 0 0 2 9 3 1 0 0 12.2719984
927 5 -19.7900009 -24.9500008 -29.1499996 0 0 0 2 10 2 0 0 0 12.2635403
934 4 -20.8299999 -8.3030005 -25.9099998 0 0 2 2 5 5 1 0 0 12.9392034
935 2 -26.6399994 -6.0300002 -26.0200005 0 0 0 4 6 1 0 0 0 11.5034695
940 4 -0.4465 -41.1300011 -9.3439999 0 0 0 0 12 4 0 0 0 13.7881422
949 2 -23.9799996 -5.5079999 -32.3400002 0 0 1 4 4 3 3 0 0 12.569335
959 4 -22.3999996 -25.2000008 -9.4969998 0 0 1 4 3 5 2 0 0 12.2637739
961 2 -19.3999996 -40.3100014 -41.4000015 0 0 1 0 9 3 0 0 0 11.8830156
969 2 -31.4200001 -10.0799999 -12.0200005 0 0 0 2 10 1 0 0 0 11.930277
979 2 -8.3789997 -14.2100001 -20.2800007 0 0 0 6 4 3 0 0 0 12.3306542
983 2 0.663 -4.125 -8.6400004 0 0 0 3 6 5 0 0 0 11.774869
990 5 -27.2299996 -27.3999996 -42.3899994 0 0 0 2 8 4 0 0 0 12.1107445
996 2 2.6870001 -21.6200009 -20.3600006 0 0 0 2 6 4 0 0 0 11.6502714
1001 4 -8.8000002 -19.5499993 -23.7700005 0 0 0 2 10 2 0 0 0 12.7507019
1016 2 -6.5799999 -30.2000008 -8.276 0 0 0 0 12 0 0 0 0 11.2359724
1033 2 -26.2399998 -34.1800003 -11.0100002 0 0 0 2 8 4 0 0 0 12.3764553
1051 4 -15.4399996 -15.6999998 -18.8099995 0 0 0 0 12 0 0 0 0 10.7582054
1052 1 2.803 -14.3199997 -35.8899994 0 0 2 2 5 3 1 0 0 11.0507612
1064 5 -4.5240002 -19.8400002 -31.1499996 0 0 0 2 8 4 0 0 0 12.2139158
1065 2 -11.8900004 -18.4400006 -9.2250004 0 0 1 3 4 3 1 0 0 11.4399901
1084 1 2.379 -6.2449999 -33.3800011 0 0 0 1 10 2 0 0 0 10.8521644
1086 1 -18.6800003 -38.5900002 -23.9599992 0 0 0 2 8 2 0 0 0 11.1781502
1089 3 -30.2999992 -33.1100006 -38.2000008 0 0 1 0 10 3 1 0 0 12.7333632
1099 2 3.1600001 -2.0980001 -39.0299988 0 0 0 0 12 2 0 0 0 11.7843294
1102 1 -14.3199997 -36.1599999 -37.25 0 0 0 0 12 0 0 0 0 11.5656128
1110 2 -24.1599999 -20.8600006 -5.217 0 0 0 1 10 3 0 0 0 12.1968212
1119 5 5.3639999 -8.0719996 -5.3790002 0 0 0 2 9 2 1 0 0 12.6774807
1122 4 -22.8500004 -24.5100003 -14.4499998 0 0 0 2 8 4 0 0 0 13.2776728
1131 2 -5.5770002 -2.204 -21.25 0 0 0 0 12 0 0 0 0 12.5257206
1133 2 -13.0500002 -42.0099983 -7.896 0 0 1 3 5 5 0 0 0 11.7526732
1138 4 -35.1300011 -29.4200001 -0.2638 0 0 0 2 8 3 0 0 0 11.5639611
1163 2 -33.9500008 -19.3099995 -12.1899996 0 0 0 2 8 1 0 0 0 11.3231402
1164 4 -2.029 -24.1100006 -31.4200001 0 0 1 1 11 2 0 0 0 13.452653
1166 5 -26.0200005 -28.6200009 -9.5900002 0 0 1 4 5 6 0 0 0 12.5948754
1170 2 -7.843 -3.985 -17.5599995 0 0 0 2 8 3 0 0 0 12.0424547
1178 1 -26.7999993 -33.7900009 -5.6550002 0 0 0 4 4 3 2 0 0 11.105773
1195 5 -15.3199997 -38.5499993 -9.3459997 0 0 0 3 6 4 0 0 0 10.8991118
1198 5 -10.9399996 -34.6300011 -38.2299996 0 0 0 2 10 1 0 0 0 11.9004412
1209 2 -12.1599999 -5.5799999 -9.7460003 0 0 0 2 8 2 0 0 0 11.4089384
1211 5 -28.0400009 -23.2000008 -23.4699993 0 0 0 0 12 0 0 0 0 11.4301005
1219 5 -28.0900002 -32.8400002 -39.1399994 0 0 1 1 10 1 1 0 0 12.0133448
1226 2 1.727 -31.7600003 -36.7999993 0 0 0 3 8 2 0 0 0 11.2370539
1239 2 -18.5 -10.75 -20.0100002 0 0 0 0 12 0 0 0 0 11.4713536
1256 4 -14.0299997 -6.0320001 -8.3699999 0 0 1 0 11 4 0 0 0 13.4540863
1262 4 -30.5599995 -21.25 -14.1499996 0 0 0 4 6 4 0 0 0 12.2454729
1266 4 -2.3729999 -21.9500008 -37.4099999 0 0 1 3 5 5 0 0 0 11.836567
1274 4 0.5531 -28.1000004 -0.3014 0 0 0 2 10 3 0 0 0 12.5093107
1279 4 1.6770001 -23.4400006 -32.2900009 0 0 0 3 6 3 0 0 0 12.5019617
1286 5 -6.0630002 -10.5200005 -36.25 0 0 0 2 10 2 0 0 0 11.8579398
1289 2 -7.322 -10.4700003 -22.8199997 0 0 0 3 8 2 0 0 0 11.4166088
1299 2 -7.5720001 -15.8299999 -39.9599992 0 0 0 0 12 0 0 0 0 11.081562
1303 4 -13.54 -19.3899994 -35.0999985 0 0 0 3 6 4 0 0 0 11.9778376
1304 5 -12.4399996 -18.4200001 -14.8100004 0 0 0 2 8 2 0 0 0 11.2851315
1306 5 -0.5221 -10.6400004 -30.0 0 0 0 2 8 4 0 0 0 12.591465
1319 2 -23.2299996 -29.0599995 -1.63 0 0 0 3 7 2 1 0 0 11.196147
1322 4 -3.4660001 -27.4500008 -3.7330001 0 0 1 3 6 4 1 0 0 13.1670914
1336 4 -8.6009999 -4.4190002 -23.2099991 0 0 0 3 7 3 0 0 0 12.1675625
1337 4 -14.2799997 -20.1900005 -37.2999992 0 0 0 1 10 4 0 0 0 12.785573
1340 2 -30.1900005 -25.3299999 -38.8600006 0 0 0 2 10 0 0 0 0 11.2500076
1343 2 -23.0799999 -4.9910002 -35.1399994 0 0 0 1 10 2 0 0 0 11.7288552
1347 4 4.4949999 -12.6400004 -36.8899994 0 0 0 3 7 3 1 0 0 12.8013792
1352 5 -10.7200003 -15.3999996 -42.9000016 0 0 0 3 7 4 1 0 0 13.962924
1357 4 5.2649999 -13.1300001 -29.7600003 0 0 0 2 10 1 0 0 0 11.5385132
1372 2 -19.4599991 -22.6299992 -28.8899994 0 0 0 3 6 3 0 0 0 11.3438664
1385 5 1.3150001 -10.2200003 -33.9900018 0 0 0 4 4 6 0 0 0 11.604846
1394 5 -2.941 -36.3400002 -26.2299996 0 0 0 2 10 1 0 0 0 11.875555
1408 1 -23.2999992 -34.4500008 -8.5200005 0 0 1 4 3 4 2 0 0 12.0873709
1414 2 -31.4699993 -21.2800007 -31.7199993 0 0 1 0 11 1 0 0 0 11.4260559
1415 2 3.776 -17.0599995 -5.6810003 0 0 0 0 12 0 0 0 0 10.8479434
1421 2 -20.8500004 -36.4300003 -32.9199982 0 0 0 2 10 2 0 0 0 11.5079975
1495 5 -15.5799999 -22.3500004 -6.2560001 0 0 0 2 9 3 1 0 0 13.1032715
1502 4 -4.9330002 -12.9300004 -38.8300019 0 0 0 2 10 1 0 0 0 12.1772766
1505 2 -26.4300003 -19.3700009 -43.2200012 0 0 0 2 8 4 0 0 0 12.2589913
1521 5 -16.75 -23.9899998 -2.559 0 0 0 2 8 2 0 0 0 11.6620255
1526 4 -15.6300001 -9.566 -35.5600014 0 0 0 1 10 4 0 0 0 12.9207172
1527 5 -19.8700008 -40.5699997 -35.7999993 0 0 1 2 7 4 0 1 0 11.9476528
1529 2 -16.6000004 -36.5 -26.1499996 0 0 0 3 6 3 0 0 0 11.6842604
1539 5 -29.6200009 -1.612 -30.3799992 0 0 0 3 6 4 0 0 0 12.9313394
1540 5 -0.4098 -9.2399998 -23.1700001 0 0 0 1 10 4 0 0 0 12.919549
1546 4 -12.9799996 -41.9000016 -38.4599991 0 0 1 3 5 7 0 0 0 12.989728
1552 4 -36.9799996 -40.8300019 -29.6700001 0 0 0 3 10 1 0 0 0 11.9951248
1555 2 -14.54 -18.3999996 -42.5900002 0 0 0 3 6 4 0 0 0 12.2286739
1563 5 -6.843 -29.8999996 -17.2000008 0 0 2 2 6 4 0 0 0 11.9753848
1566 5 -5.481 -7.6599999 -18.3600006 0 0 0 1 10 2 0 0 0 11.7321959
1581 4 6.0819998 -4.3309999 -24.7800007 0 0 0 0 12 0 0 0 0 11.0879116
1585 4 -37.1899986 -28.3799992 -6.3979998 0 0 0 1 10 4 0 0 0 12.9842682
1593 2 -22.8099995 -4.1339998 -29.1100006 0 0 0 0 12 0 0 0 0 11.9790898
1597 5 -5.1609998 -17.8999996 -8.8760004 0 0 0 0 12 0 0 0 0 11.5342798
1611 5 -14.6199999 -7.89 -0.2477 0 0 0 0 12 0 0 0 0 11.144908
1617 4 -17.7299996 -2.747 -38.1800003 0 0 0 2 10 1 0 0 0 11.4537726
1626 2 -20.3299999 -35.7799988 -27.7099991 0 0 1 1 11 0 0 0 0 11.4788046
1632 5 -5.3520002 -23.6399994 -33.5099983 0 0 0 3 10 0 0 0 0 11.7374821
1651 2 -2.5810001 -1.923 -6.6820002 0 0 0 3 6 3 0 0 0 12.0254841
1656 4 -9.3360005 -3.3729999 -19.2800007 0 0 0 2 8 4 0 0 0 11.6435519
1660 4 -32.0 -6.026 -25.6399994 0 0 0 0 12 2 0 0 0 11.6741247
1670 2 -25.9500008 -23.2700005 -24.8099995 0 0 0 1 10 2 0 0 0 12.3945007
1671 4 -3.3139999 -29.6000004 -34.7400017 0 0 0 1 12 1 0 0 0 12.2338286
1675 4 -2.905 -41.4700012 -28.9599992 0 0 0 2 8 5 0 0 0 13.243022
1680 5 -3.6640001 -31.1800003 -23.3400002 0 0 0 1 10 2 0 0 0 12.4549647
1683 4 -26.9699994 -16.5 -38.5800019 0 0 0 1 10 4 0 0 0 13.3909311
1686 5 -9.7440005 -16.8600006 -26.5400009 0 0 0 1 10 3 0 0 0 12.2310028
1687 2 -24.3299999 -31.2399998 -31.3500004 0 0 0 3 8 2 0 0 0 11.9174186
1700 2 1.045 -32.2900009 -34.6100006 0 0 0 2 8 4 0 0 0 11.8764106
1707 4 -18.4400006 -29.4899998 -3.4849999 0 0 0 0 12 0 0 0 0 11.739934
1713 4 4.3790002 -16.5100003 -22.6900006 0 0 0 2 10 2 0 0 0 11.8801622
1727 5 -17.9599992 -10.5500002 -15.87 0 0 1 2 5 5 0 0 0 12.4387131
1733 4 -10.1999998 -25.6000004 -27.5900002 0 0 0 1 10 3 0 0 0 12.7536822
1741 3 -25.5200005 -36.8199997 -37.5699997 0 0 0 4 4 6 0 0 0 12.2699118
1748 2 0.3366 -9.5380001 -15.8100004 0 0 0 2 10 1 0 0 0 12.3394899
1749 5 -36.6599999 -24.4300003 -29.6200009 0 0 0 4 8 3 0 0 0 12.4945011
1759 1 -17.1299992 -20.4599991 -6.1230002 0 0 0 0 12 0 0 0 0 11.2772226
1771 5 -17.1100006 -12.1400003 -13.8800002 0 0 1 3 5 7 0 0 0 13.4552698
1772 2 -16.7700005 -9.936 -4.6659999 0 0 0 2 8 3 0 0 0 11.3023682
1786 2 -10.5699997 -17.9300004 -1.378 0 0 0 1 10 3 0 0 0 12.6821099
1795 2 -8.7519999 -8.4630003 -11.4399996 0 0 0 0 12 0 0 0 0 10.6145897
1796 4 -25.3400002 -4.7150002 -36.619999 0 0 0 1 10 3 0 0 0 12.0131092
1798 5 -29.3500004 -19.9599992 -28.5200005 0 0 1 0 11 1 0 0 0 11.7934799
1804 5 -34.0099983 -14.8000002 -32.9300004 0 0 0 3 6 3 2 0 0 12.6632977
1810 2 -28.3199997 -39.9599992 -31.6000004 0 0 0 0 12 0 0 0 0 11.3845225
1811 4 -1.8 -26.5900002 -42.7299996 0 0 0 2 8 5 0 0 0 12.3601322
1821 4 2.0120001 -29.2900009 -41.9700012 0 0 1 4 5 5 0 0 0 12.366477
1834 1 -13.96 -26.9400006 -16.3199997 0 0 0 4 4 4 0 0 0 11.4811621
1835 2 -12.2600002 -3.0869999 -15.5799999 0 0 0 3 5 4 1 0 0 12.2201548
1840 5 0.08902 -39.0800018 -23.5699997 0 0 0 3 6 5 0 0 0 13.0337772
1844 2 -30.8299999 -42.0900002 -29.7600003 0 0 1 0 9 3 0 0 0 11.866087
1849 5 -10.2600002 -32.0 -9.6049996 0 0 0 1 10 2 0 0 0 12.5657797
1850 4 -29.6599999 -27.8400002 -19.6700001 0 0 1 1 9 3 0 0 0 12.0803947
1853 4 2.1540001 -18.0599995 -26.1700001 0 0 0 3 6 7 0 0 0 13.1361618
1855 2 -5.6919999 -36.1100006 -18.2000008 0 0 0 0 12 0 0 0 0 11.0937452
1870 5 -13.9700004 -29.8899994 -25.8400002 0 0 0 0 12 3 0 0 0 14.012825
1876 4 -35.0900002 -29.3500004 -35.7200012 0 0 0 0 12 3 0 0 0 13.7173853
1893 4 -26.7800007 -7.704 -20.0400009 0 0 0 2 10 4 0 0 0 13.7582951
1914 2 -26.7700005 -6.7810002 -36.1500015 0 0 1 0 11 1 0 0 0 11.5292626
1919 4 -7.4660001 -11.4899998 -1.571 0 0 0 0 12 3 0 0 0 12.2955055
1923 4 -7.869 -7.29 -9.4379998 0 0 1 2 7 2 2 0 0 11.886818
1928 2 -31.3700009 -12.3699999 -12.3400002 0 0 1 3 5 5 0 0 0 11.932993
1934 3 -28.4500008 -21.3199997 -22.1700001 0 0 0 0 12 0 0 0 0 11.7952681
1937 4 -36.4900017 -41.7200012 -24.8099995 0 0 1 1 8 3 1 0 0 12.0556269
1955 5 -20.25 -7.8969998 -8.7469998 0 0 0 3 8 2 0 0 0 12.0178127
1958 5 -28.3999996 -1.41 -11.2200003 0 0 0 0 12 0 0 0 0 10.9808664
1960 4 -29.9099998 -36.5600014 -14.8800002 0 0 0 4 8 1 0 0 0 12.1524801
1967 4 -13.6599999 -9.8610002 -30.2999992 0 0 0 1 10 4 0 0 0 12.4896069
1980 2 -9.8979998 -14.4700003 -39.9000016 0 0 0 3 10 1 0 0 0 12.2843495
1989 2 0.6125 -19.6599999 -12.6000004 0 0 1 3 4 4 1 0 0 11.9531346
1996 5 -12.7399998 -0.01072 -43.7700005 0 0 0 2 10 2 0 0 0 11.906603
2006 4 -23.4899998 -40.4300003 -38.5499993 0 0 0 2 8 6 0 0 0 13.977028
2013 4 -13.3100004 -13.9700004 -1.5470001 0 0 0 3 7 4 1 0 0 12.3833761
2014 4 -14.3599997 -42.3300018 -9.8030005 0 0 0 3 6 4 0 0 0 11.5557137
2030 5 0.9753 -18.7700005 -15.3699999 0 0 1 4 6 3 1 0 0 13.1438847
2034 4 -29.4699993 -30.6700001 -39.2200012 0 0 0 0 12 2 0 0 0 12.3152151
2038 4 -2.0250001 -1.655 -34.7200012 0 0 1 2 7 5 0 0 0 12.5791483
2055 1 -3.863 -16.4099999 -40.6100006 0 0 0 0 10 2 0 0 0 11.2473698
2062 4 -31.9099998 -33.9300004 -20.9899998 0 0 0 4 6 5 0 0 0 12.0144091
2079 4 -5.0219998 -11.2600002 -30.3500004 0 0 0 2 8 5 0 0 0 12.7619391
2085 4 -17.1200008 -38.5999985 -28.0499992 0 0 0 2 8 6 0 0 0 14.2169628
2090 2 -5.1209998 -21.1900005 -5.6300001 0 0 1 2 7 4 0 0 0 10.9138288
2108 1 -23.0799999 -16.4400006 -0.737 0 0 0 3 6 4 0 0 0 11.5823107
2110 1 -10.1199999 -19.0 -32.5900002 0 0 0 2 8 2 0 0 0 10.6976729
2118 5 -7.6459999 -14.6099997 -22.4599991 0 0 1 3 5 5 0 0 0 11.9219246
2131 5 1.0140001 -37.6699982 -35.2900009 0 0 0 1 10 4 0 0 0 13.2587748
2133 1 -18.5799999 -42.2200012 -42.4099999 0 0 0 0 12 0 0 0 0 10.6965218
2149 4 -17.0699997 -28.2800007 -37.9900018 0 0 1 1 8 4 1 0 0 13.114727
2161 2 -16.3999996 -33.0099983 -8.3240004 0 0 1 2 7 3 0 0 0 11.4757357
2177 4 -20.1599999 -0.07374 -24.9899998 0 0 0 1 10 2 0 0 0 11.7736044
2191 2 -23.6599999 -27.0599995 -0.6468 0 0 1 4 5 3 0 0 0 11.6706
2195 2 -25.2999992 -35.8400002 -15.1999998 0 0 0 2 10 0 0 0 0 11.542037
2216 5 -15.8100004 -19.9200002 -30.3999996 0 0 1 0 9 3 0 0 0 11.4207754
2229 4 -31.7099991 -36.3600006 -25.3999996 0 0 0 2 8 4 0 0 0 12.2278805
2234 5 -32.7799988 -23.0599995 -32.9000016 0 0 0 2 9 3 1 0 0 13.0663939
2238 4 -26.8600006 -13.6999998 -14.1800003 0 0 0 0 12 0 0 0 0 11.2907963
2243 2 -18.2199993 -25.4699993 -15.9300004 0 0 0 0 12 0 0 0 0 10.7846022
2246 4 -27.5400009 -7.8330002 -5.026 0 0 0 0 12 2 0 0 0 12.1265841
2247 2 -20.1499996 -24.4799996 -19.2399998 0 0 0 3 6 4 0 0 0 12.1685257
2256 4 -15.6000004 -14.5299998 -43.3800011 0 0 1 3 6 3 1 0 0 12.9351168
2265 5 -7.7620001 -35.1300011 -17.5100003 0 0 0 2 10 1 0 0 0 11.8042116
2266 2 -9.7329998 -3.165 -24.8500004 0 0 0 3 6 3 0 0 0 11.8349285
2270 5 -23.0 -20.4899998 -35.1599999 0 0 1 4 3 7 0 0 0 13.2187433
2272 4 -23.1800003 -23.3700009 -39.5999985 0 0 1 2 7 4 0 0 0 12.5529051
2277 5 -15.25 -28.4099999 -42.7000008 0 0 0 4 6 4 0 0 0 11.6538239
2282 4 -32.5900002 -37.4799996 -6.3000002 0 0 0 3 8 4 0 0 0 12.853714
2283 4 -5.0180001 -14.6599999 -21.75 0 0 0 1 10 2 0 0 0 12.0631609
2287 4 -26.9200002 -7.2750001 -15.8100004 0 0 0 1 9 3 1 0 0 12.2119551
2288 4 -17.8899994 -2.54 -22.7099991 0 0 0 2 10 1 0 0 0 12.1092911
2294 4 -27.6800003 -5.7030001 -38.1100006 0 0 0 2 8 4 0 0 0 12.0912504
2295 5 -23.6900006 -25.8199997 -39.0 0 0 0 1 8 4 0 0 0 11.4414368
2298 4 -20.9699994 -20.9200002 -14.1000004 0 0 0 4 8 2 0 0 0 12.2477245
2309 4 -16.7399998 -12.4700003 -23.3999996 0 0 0 2 8 4 0 0 0 12.2254563
2313 4 -10.6000004 -35.1300011 -4.243 0 0 0 2 8 1 0 0 0 11.5078058
2320 4 -1.001 -43.4000015 -36.7200012 0 0 0 2 12 1 0 0 0 13.3623858
2322 1 -24.3899994 -14.5100003 -10.8400002 0 0 0 2 8 4 0 0 0 11.5930195
2346 5 -12.7700005 -19.7099991 -39.4000015 0 0 0 3 8 2 0 0 0 12.0074224
2347 4 -30.3099995 -2.5079999 -1.069 0 0 0 3 6 4 0 0 0 12.1811638
2355 4 -0.631 -20.1399994 -37.5099983 0 0 0 3 6 6 0 0 0 12.3976278
2365 2 -3.504 -8.2720003 -26.7000008 0 0 0 1 10 2 0 0 0 11.961997
2388 4 -24.7399998 -29.9099998 -8.1040001 0 0 0 2 8 4 0 0 0 13.356185
2394 2 -20.9899998 -6.3899999 -7.033 0 0 1 2 7 3 0 0 0 11.2934981
2397 2 3.639 -0.0234 -34.8300019 0 0 0 3 6 3 0 0 0 11.5192909
2412 5 -35.5600014 -38.4399987 -9.7609997 0 0 0 3 10 2 0 0 0 12.3683729
2414 1 -18.5100003 -37.4300003 -7.6640001 0 0 0 2 8 2 0 0 0 11.0888357
2423 5 -4.2969999 -17.3700009 -31.5799999 0 0 0 0 12 0 0 0 0 11.5831318
2427 4 3.0610001 -24.5100003 -16.8799992 0 0 2 2 5 3 3 0 0 12.2825718
2446 5 -11.3500004 -10.6599999 -18.5699997 0 0 1 2 7 3 0 0 0 11.8124695
2457 1 -38.1899986 -40.9099998 -12.6400004 0 0 0 0 12 0 0 0 0 11.3324185
2464 4 -21.6200009 -34.4000015 -14.6999998 0 0 0 2 7 2 1 0 0 11.1636019
2466 4 4.6500001 -7.073 -33.0999985 0 0 1 2 6 5 1 0 0 12.5238228
2469 5 -6.6230002 -6.289 -36.8800012 0 0 0 0 12 3 0 0 0 12.6550169
2479 4 -12.6400004 -3.4200001 -8.1110001 0 0 1 1 9 4 0 0 0 12.193306
2482 2 0.637 -26.8099995 -5.072 0 0 0 1 10 2 0 0 0 11.9802552
2492 2 -4.9330002 -12.4799996 -28.1000004 0 0 0 3 8 3 0 0 0 12.1291771
2499 4 -13.8299999 -38.3499985 -0.6948 0 0 1 1 9 3 0 0 0 12.7552996
2506 2 -15.3500004 -36.5900002 -11.04 0 0 0 2 10 1 0 0 0 11.6554709
2507 2 -30.3600006 -40.3100014 -33.3800011 0 0 1 1 9 3 0 0 0 12.1904917
2509 4 -17.8999996 -11.8299999 -41.3800011 0 0 0 4 4 6 0 0 0 12.4862957
2515 4 -17.2700005 -0.5403 -10.0200005 0 0 0 3 6 6 0 0 0 12.2380552
2536 5 -18.6499996 -4.0289998 -26.4799996 0 0 0 3 6 6 0 0 0 12.7070027
2537 5 -0.5153 -10.9200002 -25.3500004 0 0 0 0 12 0 0 0 0 10.824359
2542 2 -6.3740001 -19.2099991 -37.7799988 0 0 1 1 9 3 0 0 0 11.8199682
2543 4 3.4260001 -20.0200005 -29.5599995 0 0 1 5 1 8 0 0 0 12.4232598
2545 2 -18.8400002 -21.3799992 -38.2200012 0 0 0 1 10 4 0 0 0 13.0537195
2570 2 -23.8999996 -28.1700001 -38.3899994 0 0 1 4 5 3 0 0 0 11.8863174
2574 4 -28.6700001 -1.531 -26.3099995 0 0 0 2 8 4 0 0 0 11.935771
2585 3 -31.5599995 -5.5380001 -3.3510001 0 0 0 2 8 5 0 0 0 12.87924
2593 4 -21.4099999 -29.1299992 -39.1699982 0 0 0 2 10 3 0 0 0 12.8422804
2603 5 4.526 -18.2800007 -18.5 0 0 0 2 8 3 0 0 0 12.196682
2606 4 -11.9499998 -31.1700001 -7.823 0 0 1 4 3 7 0 0 0 12.7570935
2614 4 -28.8099995 -15.8599998 -3.813 0 0 0 2 8 5 0 0 0 12.4816284
2620 4 -7.5060001 -25.7299996 -6.6500001 0 0 0 2 8 4 0 0 0 12.5871649
2621 2 -0.8989 -2.6199999 -19.1200008 0 0 0 3 6 4 0 0 0 11.2470484
2634 2 -26.0599995 -32.0999985 -9.5190001 0 0 0 3 8 5 0 0 0 12.5585289
2635 2 -30.4500008 -20.5400009 -3.6960001 0 0 0 4 6 4 0 0 0 12.2288914
2646 5 -18.0200005 -28.8400002 -10.6800003 0 0 0 1 10 4 0 0 0 13.0922213
2659 2 -30.1299992 -24.0400009 -24.5599995 0 0 0 3 8 3 0 0 0 11.7634821
2665 5 -21.2099991 -19.3199997 -42.1500015 0 0 1 3 5 3 0 0 0 11.5704918
2685 5 3.5150001 -6.8870002 -20.9300004 0 0 0 0 12 5 0 0 0 15.2131701
2690 4 -20.1700001 -2.8670002 -4.7490001 0 0 0 2 10 1 0 0 0 11.6304417
2691 2 1.438 -3.523 -2.208 0 0 0 1 10 2 0 0 0 11.724576
2694 4 -21.6299992 -33.7700005 -32.7700005 0 0 0 3 6 4 0 0 0 11.731515
2704 5 -6.3520002 -6.2140002 -39.3800011 0 0 1 4 3 7 0 1 0 12.5595169
2711 5 -8.2290001 -15.8800002 -15.9399996 0 0 0 1 10 2 0 0 0 11.851757
2713 2 -27.9799996 -20.7999993 -41.7599983 0 0 0 0 12 0 0 0 0 11.2416792
2717 2 -27.9599992 -26.5900002 -40.2700005 0 0 1 3 7 5 0 0 0 12.7011004
2721 2 -2.369 -13.9200002 -32.1300011 0 0 0 0 12 0 0 0 0 11.3960047
2731 4 -38.1699982 -35.6399994 -18.3199997 0 0 0 0 12 3 0 0 0 13.3790579
2740 1 -3.4370001 -18.7099991 -2.5810001 0 0 0 0 12 0 0 0 0 11.6882544
2741 4 0.7119 -36.9700012 -22.2299996 0 0 0 3 6 6 0 0 0 13.1198368
2749 4 -11.04 -16.5100003 -36.7200012 0 0 0 1 10 3 0 0 0 12.3748694
2764 2 -28.1000004 -35.0699997 -2.0109999 0 0 0 0 12 0 0 0 0 11.2219029
2765 5 -3.2179999 -15.8400002 -5.4970002 0 0 0 2 8 2 0 0 0 11.4064264
2766 4 -26.4300003 -23.6299992 -27.4300003 0 0 0 3 6 7 0 0 0 13.3333435
2769 4 -23.5200005 -29.5599995 -14.6999998 0 0 0 3 8 2 0 0 0 12.0963144
2778 4 -19.5100003 -29.5599995 -17.6399994 0 0 0 3 6 4 0 0 0 11.8055516
2783 4 -14.2600002 -29.0400009 -21.6399994 0 0 1 3 7 3 0 0 0 12.0148811
2802 5 -33.3699989 -26.6599999 -14.2200003 0 0 1 4 3 5 2 0 0 11.7611895
2818 4 -31.4200001 -15.6400004 -18.2299996 0 0 0 5 6 3 0 0 0 12.7779675
2823 2 -23.2900009 -29.4599991 -17.0300007 0 0 0 3 6 4 0 0 0 11.6771126
2825 5 -17.1700001 -10.1800003 -22.1700001 0 0 0 1 10 4 0 0 0 12.3433514
2832 4 -25.8299999 -2.22 -1.531 0 0 0 1 12 2 0 0 0 12.6811428
2834 5 -25.7800007 -31.9899998 -12.1700001 0 0 0 2 10 1 0 0 0 12.7142649
2836 4 -22.7000008 -13.3500004 -25.4400006 0 0 0 1 10 4 0 0 0 12.6305352
2839 5 -28.4799996 -16.3500004 -1.3020001 0 0 0 1 10 3 0 0 0 12.5292244
2861 4 -13.3000002 -33.4099999 -31.7399998 0 0 0 2 8 4 0 0 0 12.8049307
2863 5 -28.7900009 -35.2200012 -38.5699997 0 0 0 1 10 3 0 0 0 11.8009405
2878 2 -14.9799996 -17.8799992 -14.6300001 0 0 0 2 8 2 0 0 0 11.6206131
2884 2 -20.4099999 -32.4500008 -19.0699997 0 0 0 1 10 2 0 0 0 10.9689828
2910 4 -25.1100006 -1.66 -23.8799992 0 0 0 0 12 2 0 0 0 12.7921753
2919 5 2.688 -21.8199997 -42.9000016 0 0 1 3 5 5 0 0 0 12.1803103
2945 5 -6.8119998 -22.3199997 -17.1399994 0 0 1 1 9 3 0 0 0 11.9440174
2954 5 -24.1599999 -34.9500008 -39.0299988 0 0 0 4 8 3 0 0 0 13.1785603
2956 2 -21.6800003 -32.7000008 -28.4899998 0 0 1 2 7 4 0 0 0 11.8937054
2962 4 1.482 -11.5900002 -39.7400017 0 0 1 1 9 2 2 0 0 12.3331185
2963 4 -31.5100003 -7.2670002 -41.0800018 0 0 0 1 12 2 0 0 0 12.7426205
2964 2 -5.1760001 -26.5100003 -5.553 0 0 0 3 6 4 0 0 0 12.248003
2979 4 -29.4599991 -32.9199982 -0.9557 0 0 0 0 12 3 0 0 0 12.6477061
2997 5 -0.05661 -18.5799999 -27.6100006 0 0 0 4 4 5 0 0 0 12.0170584
2998 2 -38.0 -38.3199997 -9.0690002 0 0 0 2 8 2 0 0 0 11.5065499
3014 5 -14.5699997 -2.9300002 -30.3199997 0 0 0 1 12 2 0 0 0 13.0564232
3016 1 -10.1099997 -38.3600006 -38.1100006 0 0 0 0 12 0 0 0 0 11.2150145
3025 5 -13.3199997 -9.1669998 -36.6800003 0 0 0 3 6 5 0 0 0 11.6798048
3049 4 -31.0300007 -14.3199997 -36.8600006 0 0 1 2 7 5 0 0 0 12.7706042
3053 3 -1.749 -37.6500016 -33.7999993 0 0 0 3 6 5 0 0 0 11.593936
3056 5 -16.0300007 -32.0099983 -12.7200003 0 0 0 2 8 5 0 0 0 12.1499682
3059 4 -29.4300003 -30.5599995 -15.1199999 0 0 1 2 7 4 0 0 0 11.9146538
3069 2 4.2490001 -2.4100001 -29.0699997 0 0 0 1 10 2 0 0 0 12.194026
3072 4 -20.5599995 -13.8299999 -33.3800011 0 0 0 1 10 4 0 0 0 12.6188727
3076 2 -30.6000004 -10.96 -43.4000015 0 0 0 0 12 2 0 0 0 12.8614846
3078 1 -4.3340001 -37.5299988 -5.7420001 0 0 0 1 10 2 0 0 0 11.5124979
3093 2 -3.537 -13.5299998 -30.0900002 0 0 0 0 12 2 0 0 0 11.5354805
3095 4 -27.0900002 -16.8400002 -21.1800003 0 0 0 2 8 4 0 0 0 12.7270079
3096 2 -37.5800019 -31.4400006 -41.0299988 0 0 2 1 7 2 1 0 0 11.9616156
3099 5 -3.4519999 -25.1900005 -12.0699997 0 0 0 2 8 4 0 0 0 11.6974173
3100 2 -22.0200005 -42.9199982 -17.2600002 0 0 0 0 12 2 0 0 0 12.9607058
3104 1 -19.7900009 -9.9870006 -37.5699997 0 0 0 2 8 2 0 0 0 11.7155247
3117 2 -26.7399998 -3.6789999 -17.8999996 0 0 0 1 10 2 0 0 0 12.4380408
3134 5 -33.5 -17.3099995 -41.619999 0 0 1 0 11 1 0 0 0 11.51579
3135 4 -1.4040001 -22.8600006 -20.0100002 0 0 0 1 10 2 0 0 0 12.0481977
3138 5 -8.6099997 -9.0200005 -21.7000008 0 0 0 1 10 3 0 0 0 12.2652168
3146 4 -14.4600001 -20.2000008 -14.25 0 0 0 1 12 2 0 0 0 12.0548878
3159 5 -36.5200005 -33.8400002 -22.2800007 0 0 0 1 10 2 0 0 0 11.7894964
3182 4 -9.5389996 -37.8300019 -29.6000004 0 0 0 4 4 4 2 0 0 11.8494234
3188 5 -15.6800003 -22.0300007 -20.9699994 0 0 2 5 2 5 2 0 0 13.1112995
3193 5 -35.7900009 -36.0499992 -3.8740002 0 0 1 2 8 1 1 0 0 11.4994507
3200 2 -11.6800003 -2.392 -29.7000008 0 0 0 0 12 0 0 0 0 11.3114996
3201 4 -16.3799992 -29.0799999 -26.0400009 0 0 0 3 6 4 0 0 0 11.7047968
3202 5 -26.2600002 -35.9300004 -12.8299999 0 0 0 4 6 4 0 0 0 12.3225002
3218 2 -27.8299999 -3.3610001 -10.0 0 0 0 3 6 4 0 0 0 12.2248469
3219 5 -6.3790002 -36.75 -38.5400009 0 0 0 2 9 1 1 1 0 13.0694828
3224 4 -18.3899994 -30.3899994 -1.287 0 0 0 1 10 3 0 0 0 12.883378
3234 4 -25.0699997 -25.2999992 -1.199 0 0 0 1 10 2 0 0 0 11.5572272
3240 5 -27.8600006 -20.8799992 -39.5099983 0 0 0 0 12 0 0 0 0 11.4272232