ITEM: TIMESTEP
0
ITEM: NUMBER OF ATOMS
50688
ITEM: BOX BOUNDS xy xz yz pp pp pp
-20.3679009 60.6134758 0.7005752
-22.2159996 65.355896 0.0
-22.2159996 65.355896 0.0
ITEM: ATOMS id type x y z VoronoiIndex1 VoronoiIndex2 VoronoiIndex3 VoronoiIndex4 VoronoiIndex5 VoronoiIndex6 VoronoiIndex7 VoronoiIndex8 VoronoiIndex9 AtomicVolume
9 1 -5.857 -12.8500004 3.4549999 0 0 0 0 12 0 0 0 0 10.5587607
23 4 15.6999998 20.4599991 -0.8016 0 0 1 2 8 4 1 0 0 13.0563908
25 2 8.1940003 18.3700009 18.1200008 0 0 2 3 3 5 1 0 0 11.2354555
57 5 8.573 -5.1279998 -19.4300003 0 0 0 1 10 2 0 0 0 11.4661112
71 2 3.681 16.3700009 -14.1800003 0 0 0 2 10 1 0 0 0 11.4613447
80 5 -0.3888 20.4699993 -16.1100006 0 0 1 3 6 3 1 0 0 12.7335253
81 4 17.0300007 -3.832 -9.3149996 0 0 0 0 12 0 0 0 0 10.5177613
82 5 -10.2600002 -16.0799999 -21.2299996 0 0 0 1 10 2 0 0 0 12.2658463
86 4 -17.5699997 11.9300004 19.8099995 0 0 1 2 7 6 0 0 0 13.158802
91 2 2.74 17.5900002 -10.0 0 0 1 1 8 3 1 0 0 12.2137299
93 2 -19.7399998 -4.9429998 -18.4200001 0 0 0 3 8 1 0 0 0 11.8478928
101 1 -4.0320001 -19.3899994 -4.4899998 0 0 0 1 12 1 0 0 0 12.6668568
102 2 -17.6000004 -15.6700001 -3.28 0 0 0 0 12 0 0 0 0 11.8462974
105 4 3.6080001 11.5100003 -16.0300007 0 0 0 3 8 2 0 0 0 11.4611416
110 5 -3.118 -18.4899998 2.78 0 0 0 0 12 3 0 0 0 12.9763556
112 2 14.6899996 -4.1919999 15.1700001 0 0 1 2 6 3 1 0 0 11.3979941
128 5 -10.8100004 -12.75 7.106 0 0 2 1 8 4 0 0 0 12.909442
141 5 5.086 6.698 -9.2559996 0 0 1 2 7 5 0 0 0 13.3768397
147 5 14.8000002 -3.0090001 10.29 0 0 0 2 8 6 0 0 0 13.2357245
148 2 -18.5499993 18.7600003 4.6199999 0 0 1 2 7 4 0 0 0 12.4970665
157 4 0.1895 20.2600002 12.8999996 0 0 1 4 5 5 0 0 0 12.3705673
159 4 17.2800007 -3.349 15.0100002 0 0 0 3 6 4 0 0 0 11.6416397
168 5 7.2540002 -8.8789998 -15.1700001 0 0 1 0 11 1 0 0 0 11.43289
171 2 0.1009 6.1529999 -10.1800003 0 0 0 0 12 0 0 0 0 11.2348738
174 4 -6.2820001 14.79 11.4799996 0 0 0 2 8 3 0 0 0 12.2850533
184 2 16.3099995 -1.971 12.6099997 0 0 1 2 7 3 0 0 0 11.5896445
186 5 14.5699997 11.7700005 -15.9200002 0 0 0 2 10 1 0 0 0 11.705082
194 4 -19.5400009 11.7700005 -14.2399998 0 0 0 2 8 5 0 0 0 12.328928
196 5 13.9300004 -8.2220001 -2.0580001 0 0 0 1 10 3 0 0 0 12.2072363
214 2 2.2100001 14.6499996 -18.1399994 0 0 0 3 8 2 0 0 0 11.6310959
217 2 -11.8000002 -7.1259999 19.3600006 0 0 0 0 12 0 0 0 0 11.5462713
220 2 -15.1899996 -20.1100006 -10.3999996 0 0 0 1 10 2 0 0 0 11.6537924
243 4 5.2659998 0.6808 14.0200005 0 0 0 3 6 6 0 0 0 12.5255575
244 5 15.4200001 -12.9200002 18.9200002 0 0 0 2 10 2 0 0 0 12.4931574
245 1 -6.5679999 3.1140001 -21.8799992 0 0 0 3 6 4 0 0 0 11.766326
247 2 11.8100004 13.0299997 -5.0939999 0 0 1 0 11 1 0 0 0 11.9363242
254 2 -7.25 18.0400009 -7.1100001 0 0 0 0 12 0 0 0 0 11.7981024
275 4 18.2700005 -0.6429 11.8800002 0 0 0 2 8 4 0 0 0 11.920229
288 5 -9.085 12.8900004 21.1900005 0 0 0 2 8 2 0 0 0 12.2700873
291 4 -14.79 13.1300001 -13.7100001 0 0 0 2 8 5 0 0 0 12.3211823
295 4 -1.895 1.791 -9.6569996 0 0 0 4 4 7 0 0 0 12.8020182
299 5 0.3891 18.0900002 -19.7600003 0 0 1 1 8 3 1 0 0 11.975811
302 5 -17.3799992 13.29 -8.3339996 0 0 0 0 12 0 0 0 0 11.7563477
313 5 3.3829999 -14.9200002 3.625 0 0 0 1 10 3 0 0 0 12.8158369
314 5 -12.0600004 -21.3099995 3.5510001 0 0 0 1 12 2 0 0 0 12.7242708
327 4 0.9125 -3.2520001 15.1800003 0 0 0 2 10 4 0 0 0 13.8515674
335 1 -7.73 16.9500008 -15.3900004 0 0 0 1 10 2 0 0 0 11.6888209
348 4 -6.8670002 1.983 11.8100004 0 0 0 1 10 2 0 0 0 12.8112927
360 4 15.7700005 -21.5599995 -7.6989999 0 0 0 2 8 6 0 0 0 13.1104908
364 4 -6.7979999 4.1589999 -15.6000004 0 0 1 3 5 3 2 0 0 12.6428223
387 4 19.3099995 -12.0900002 0.6809 0 0 0 1 10 3 0 0 0 12.4108963
397 1 -5.4489999 0.1743 19.1800003 0 0 0 0 12 0 0 0 0 10.7132159
401 4 -13.5799999 13.2399998 11.5100003 0 0 0 1 12 1 0 0 0 13.2096767
410 4 10.6599999 -4.777 7.513 0 0 0 0 12 0 0 0 0 11.1888218
412 1 -4.7690001 12.3400002 -7.559 0 0 0 0 12 0 0 0 0 11.3676567
415 2 -5.7329998 1.033 -13.1099997 0 0 0 2 8 2 0 0 0 11.2676544
419 2 8.6129999 -10.6700001 -11.2799997 0 0 0 3 8 4 0 0 0 12.3466969
420 5 13.1599999 -10.6099997 -10.8199997 0 0 0 4 6 2 0 0 0 12.2139435
432 5 5.4770003 8.4429999 8.2729998 0 0 0 1 10 3 0 0 0 12.4078274
438 4 -8.8809996 -19.8099995 16.3600006 0 0 0 2 10 1 0 0 0 12.2389221
439 4 -6.5219999 19.5200005 -15.8000002 0 0 0 3 6 6 0 0 0 13.9641552
442 4 6.5900002 16.4699993 -18.1499996 0 0 0 0 12 2 0 0 0 12.3928051
446 4 -16.5300007 5.962 3.767 0 0 0 3 8 2 0 0 0 11.3298073
453 4 3.276 0.3997 7.5390001 0 0 0 2 10 2 0 0 0 12.8036804
459 4 -7.7080002 0.6859 -21.4300003 0 0 0 1 12 2 0 0 0 13.0526514
477 5 -10.0699997 -4.5640002 -3.497 0 0 0 4 7 3 1 0 0 12.7410431
485 4 9.2320004 3.9070002 -15.4899998 0 0 0 0 12 2 0 0 0 12.5114813
515 5 3.5309999 -14.8100004 16.7999993 0 0 0 2 8 4 0 0 0 12.1333246
520 5 9.731 -17.2600002 11.4799996 0 0 0 3 8 3 0 0 0 12.8475962
527 5 -17.8700008 -10.4200001 18.1599999 0 0 0 1 10 4 0 0 0 12.2570191
533 4 12.8900004 4.4109998 -4.7540002 0 0 0 2 10 4 0 0 0 13.3858318
537 2 18.4300003 8.3649998 -9.4189997 0 0 0 2 8 1 0 0 0 10.9655924
539 2 -5.5209999 7.4499998 -21.6900006 0 0 0 2 8 0 2 0 0 11.8770734
540 5 -4.408 -17.6499996 0.672 0 0 0 0 12 0 0 0 0 11.1364021
550 4 11.8199997 -10.87 12.4099999 0 0 0 1 9 2 1 0 0 11.8466102
562 2 7.3670001 -12.9099998 -21.8299999 0 0 1 2 7 3 0 0 0 11.1255245
564 4 17.2800007 -1.3940001 16.8600006 0 0 0 2 7 3 1 0 0 11.5056467
567 4 11.1099997 -14.3800001 20.7900009 0 0 0 0 12 0 0 0 0 11.2149925
576 5 -15.0799999 6.5289998 -16.9899998 0 0 0 0 12 0 0 0 0 11.2963762
585 4 15.1599999 -9.6569996 -11.8599998 0 0 0 2 10 2 0 0 0 13.3824263
603 5 -5.691 -19.4500008 -0.6128 0 0 0 1 10 2 0 0 0 11.4076033
620 4 2.7490001 15.6499996 8.1219997 0 0 0 1 10 2 0 0 0 11.9998714
622 5 4.7740002 -5.4770003 5.264 0 0 0 0 12 2 0 0 0 11.9701224
642 4 -3.0810001 2.1340001 -20.4500008 0 0 1 2 7 3 2 0 0 12.458251
643 5 17.6800003 -0.3323 -17.6200009 0 0 0 3 6 4 0 0 0 11.9499322
653 4 4.1929998 -17.3700009 3.369 0 0 0 1 12 3 0 0 0 13.5766096
654 4 4.5479999 -9.1599999 -0.7676 0 0 0 0 12 2 0 0 0 12.9038306
656 4 10.5100003 -14.6599999 15.0900002 0 0 1 3 7 3 0 0 0 12.5090676
665 4 -5.2750001 -7.8520002 -22.1100006 0 0 0 2 8 4 0 0 0 12.4515505
666 4 -6.2550001 -10.9700004 -0.4387 0 0 1 0 11 3 0 0 0 12.5941782
673 2 12.0200005 5.3350001 12.6400004 0 0 0 0 12 0 0 0 0 11.3143416
679 4 10.8400002 12.9200002 17.4500008 0 0 0 0 12 0 0 0 0 11.051898
683 5 -4.6069999 11.0900002 18.9099998 0 0 0 2 8 4 0 0 0 12.0237408
687 5 18.1399994 -10.6899996 19.8099995 0 0 0 3 6 4 0 0 0 11.9026118
694 5 -14.6099997 15.7700005 5.1399999 0 0 1 2 6 5 1 0 0 12.5688954
697 4 -17.0900002 17.8299999 19.3600006 0 0 0 1 10 4 0 0 0 13.1200409
700 5 -18.4799996 -13.6599999 -9.3319998 0 0 2 0 9 3 1 1 0 12.6641007
706 5 -16.8600006 -0.7438 1.6260001 0 0 0 3 5 4 1 0 0 12.2740879
716 4 3.0829999 3.852 4.1329999 0 0 1 1 8 3 1 0 0 11.8849612
717 4 11.0200005 -20.2099991 1.905 0 0 0 0 12 4 0 0 0 13.7835036
728 5 7.8270002 -0.0581 3.6199999 0 0 1 3 5 4 2 0 0 12.1149759
745 4 5.0599999 -15.8500004 -17.5200005 0 0 1 2 5 5 0 0 0 11.8275051
761 5 -3.2509999 11.6599999 -12.6400004 0 0 1 1 9 3 0 0 0 12.5469256
770 4 -14.3299999 -19.6700001 18.8700008 0 0 0 0 12 2 0 0 0 12.387291
775 2 1.424 -14.4799996 21.3799992 0 0 2 0 10 2 0 0 0 12.1467686
781 4 -2.5450001 -20.4099999 -11.4399996 0 0 0 3 6 6 0 0 0 13.0063639
783 2 -19.5900002 17.9799996 16.2700005 0 0 0 3 6 3 0 0 0 10.8567992
787 2 -16.4699993 -12.3299999 14.6599999 0 0 0 0 12 0 0 0 0 11.5596485
798 5 -6.7709999 20.5300007 -3.9890002 0 0 1 1 9 4 0 0 0 12.1550455
806 4 -5.2820001 3.5969999 16.6000004 0 0 0 3 6 5 0 0 0 12.7311449
821 5 -19.9200002 -14.6199999 -7.1550002 0 0 1 2 9 3 0 0 0 13.1799374
831 4 -17.8799992 -12.5699997 16.8299999 0 0 0 4 6 5 0 0 0 12.822815
841 5 -10.8100004 21.2600002 -11.1300001 0 0 1 3 5 5 0 0 0 12.1071863
843 2 6.191 -4.0250001 -8.3769999 0 0 0 3 6 3 0 0 0 11.5529728
864 2 8.6029997 -4.0289998 0.8313 0 0 0 2 8 2 0 0 0 11.5348931
897 5 9.1009998 -4.969 11.0 0 0 0 1 10 2 0 0 0 11.0577107
917 5 13.1899996 -13.6499996 20.1599999 0 0 0 0 12 0 0 0 0 11.7094956
947 5 -16.0100002 14.96 -11.87 0 0 0 1 10 2 0 0 0 12.256568
949 2 16.2700005 3.599 21.2299996 0 0 0 1 10 2 0 0 0 11.8513098
952 2 13.4099999 0.32 0.9284 0 0 0 2 10 2 0 0 0 12.5358544
961 2 3.5 -20.8700008 -5.2080002 0 0 1 4 3 3 2 0 0 11.4609757
980 2 0.09635 20.0200005 17.0100002 0 0 0 0 12 0 0 0 0 11.4060478
990 4 8.724 -14.4700003 -20.2399998 0 0 1 1 9 4 0 0 0 12.1748409
996 5 17.7199993 -9.5550003 16.0599995 0 0 0 0 12 0 0 0 0 11.1792164
997 2 -18.3099995 14.4899998 -0.02433 0 0 0 2 8 2 0 0 0 11.2178602
999 4 3.1259999 9.2629995 -9.7880001 0 0 1 3 6 3 1 0 0 12.0481272
1009 5 10.2100001 10.6599999 18.0 0 0 0 0 12 0 0 0 0 11.5230122
1027 4 -2.1159999 -11.4899998 17.3199997 0 0 1 4 7 3 0 0 0 12.4609404
1034 4 15.1999998 6.7729998 -14.3299999 0 0 0 1 10 2 0 0 0 11.5786171
1039 5 11.6800003 10.1199999 -21.0400009 0 0 0 3 8 3 0 0 0 12.2960014
1040 1 11.2399998 -14.8299999 -20.5599995 0 0 0 0 12 0 0 0 0 10.7811051
1053 4 -13.4899998 -0.6342 0.1275 0 0 0 0 12 2 0 0 0 12.4820786
1068 5 -2.2179999 4.1339998 -2.5810001 0 0 0 0 12 2 0 0 0 12.398159
1070 4 -19.2399998 -9.9280006 -18.0200005 0 0 0 1 10 3 0 0 0 12.3553343
1087 4 -12.1300001 16.9400006 -0.2905 0 0 1 1 9 4 0 0 0 12.98656
1089 4 0.04119 -8.2889996 4.0809999 0 0 0 1 12 2 0 0 0 13.4532833
1091 5 3.1440001 -17.0799999 7.9850002 0 0 0 3 6 3 0 0 0 12.0288754
1094 5 12.4600001 2.132 19.2199993 0 0 0 1 10 2 0 0 0 11.9867612
1101 4 -3.6429999 -17.8600006 9.8540002 0 0 0 2 8 4 0 0 0 12.0544214
1111 4 -9.3319998 -19.0400009 20.6399994 0 0 0 2 10 3 0 0 0 13.727068
1113 4 15.9499998 4.6950002 18.7099991 0 0 0 2 8 4 0 0 0 11.3976669
1127 2 -4.3140001 14.4099999 -2.947 0 0 0 4 4 6 0 0 0 11.7173157
1129 2 18.3299999 19.5699997 20.0300007 0 0 0 0 12 0 0 0 0 11.6489868
1143 5 -3.05 10.6700001 -0.4159 0 0 0 1 10 3 0 0 0 12.6328488
1147 4 -9.4689999 1.474 -10.6400004 0 0 1 2 6 3 1 0 0 11.4529782
1152 2 -7.7129998 -13.1899996 -7.5549999 0 0 0 1 10 3 0 0 0 11.8255015
1158 2 4.6279998 12.8100004 13.29 0 0 0 0 12 0 0 0 0 11.3160477
1161 4 12.7299996 -1.824 -3.243 0 0 0 1 10 5 0 0 0 13.529871
1171 5 2.434 -1.345 13.9200002 0 0 0 1 10 2 0 0 0 11.0201321
1175 4 7.7589998 16.1499996 15.79 0 0 0 1 12 2 0 0 0 13.1851597
1179 2 -17.3500004 -20.75 -2.6229999 0 0 1 3 5 4 2 0 0 12.0741634
1185 2 12.0 -4.763 -21.3899994 0 0 0 0 10 2 0 0 0 11.4403763
1190 2 -5.0 -16.4400006 -15.8299999 0 0 0 2 8 2 0 0 0 11.1556749
1191 4 -12.5299998 19.9699994 -12.4099999 0 0 0 3 8 2 0 0 0 12.5966082
1196 2 14.4799996 21.0799999 -18.7700005 0 0 0 2 8 1 0 0 0 11.1443482
1206 1 -16.1000004 19.4799996 10.29 0 0 0 2 8 2 0 0 0 11.0552635
1207 5 12.1400003 17.8500004 18.4200001 0 0 0 0 12 0 0 0 0 11.4215727
1208 4 16.0300007 17.4400006 -4.8940002 0 0 0 3 8 3 0 0 0 12.9891854
1209 5 -19.5900002 16.2600002 -17.4500008 0 0 0 3 6 4 0 0 0 12.3579311
1212 4 12.6099997 -3.5050001 11.1700001 0 0 0 4 4 6 0 0 0 12.3014879
1214 5 19.9400006 4.4200001 16.0799999 0 0 1 2 6 2 1 0 0 11.2241259
1216 1 10.8299999 20.8600006 -13.4700003 0 0 1 2 5 4 0 1 0 11.6994772
1217 5 -6.0570002 10.1000004 3.592 0 0 0 2 8 5 0 0 0 12.6216431
1226 4 12.0799999 18.5599995 -16.0200005 0 0 0 4 8 2 0 0 0 12.2373181
1232 4 -15.7299996 5.954 -8.5319996 0 0 0 0 12 3 0 0 0 12.5971403
1246 4 11.3900004 10.5299998 -10.8500004 0 0 0 1 10 5 0 0 0 12.9947082
1249 2 -4.1479998 -8.7189999 21.1299992 0 0 0 2 8 2 0 0 0 11.3204117
1250 2 -5.013 10.6599999 6.138 0 0 0 2 8 5 0 0 0 12.9623518
1252 4 -10.8100004 -17.5599995 -19.1399994 0 0 0 1 12 1 0 0 0 12.3830357
1257 1 -19.6399994 -10.7700005 -14.1199999 0 0 0 0 12 0 0 0 0 11.3169708
1258 4 -16.5300007 17.1200008 11.2600002 0 0 0 1 10 3 0 0 0 12.4616661
1261 4 8.8599998 -1.895 -0.4466 0 0 0 1 10 4 0 0 0 12.6789017
1269 5 -10.2799997 -19.0300007 -6.605 0 0 0 1 10 3 0 0 0 12.1545525
1270 2 1.724 5.514 0.1971 0 0 0 2 8 2 0 0 0 10.858493
1279 1 -19.8700008 3.5409999 -2.1500001 0 0 1 2 7 3 0 0 0 12.1228666
1295 4 1.919 -22.1800003 -3.872 0 0 1 1 9 2 2 0 0 13.1736984
1305 5 -0.07529 16.2199993 14.1999998 0 0 0 2 8 4 0 0 0 12.4256592
1306 5 -2.8870002 15.8199997 -8.868 0 0 1 2 9 3 0 0 0 12.1706696
1318 5 1.915 -3.3580001 -13.0600004 0 0 0 2 8 4 0 0 0 11.841962
1325 4 18.2399998 21.2800007 4.0019999 0 0 0 1 10 3 0 0 0 12.3373556
1328 2 6.4400001 13.1199999 -5.3130002 0 0 0 2 8 2 0 0 0 11.8608742
1335 5 -1.377 -0.8441 20.3199997 0 0 0 2 10 1 0 0 0 11.9094286
1340 4 16.0300007 14.6199999 -0.342 0 0 0 1 12 2 0 0 0 12.6160307
1352 4 -12.8900004 -20.9500008 17.5599995 0 0 0 2 10 3 0 0 0 12.6834612
1371 4 18.9200002 8.757 -1.486 0 0 0 0 12 0 0 0 0 11.1994848
1374 4 19.8899994 -7.164 1.592 0 0 0 1 10 3 0 0 0 12.5876408
1386 2 9.9110004 0.7625 4.29 0 0 0 3 5 4 1 0 0 11.3526316
1387 3 -16.3400002 10.29 21.1599999 0 0 0 1 10 3 0 0 0 11.8424568
1388 5 15.5799999 -3.491 -7.4660001 0 0 0 0 12 0 0 0 0 10.9560452
1393 4 7.007 -6.968 4.8720002 0 0 0 1 10 2 0 0 0 11.9171268
1400 2 -17.7299996 -6.198 21.4899998 0 0 0 1 10 2 0 0 0 12.1718044
1415 4 5.8790002 -13.8999996 -2.0380001 0 0 0 1 10 5 0 0 0 13.2985582
1419 4 16.8500004 -18.0599995 -14.2600002 0 0 0 3 6 4 0 0 0 12.0985699
1431 4 -14.7200003 -8.0469999 2.3340001 0 0 0 0 12 4 0 0 0 13.1644993
1433 5 4.7090001 -5.4429999 15.3900004 0 0 0 4 4 6 0 0 0 12.5551405
1444 4 -2.5079999 0.86 10.6899996 0 0 0 0 12 3 0 0 0 12.8975124
1447 4 8.3599997 -20.5599995 14.6400004 0 0 0 0 12 3 0 0 0 13.4984904
1452 4 -5.5500002 -9.0690002 -19.5200005 0 0 0 1 10 3 0 0 0 12.2629595
1469 2 7.809 -17.5900002 -1.716 0 0 0 3 7 3 1 0 0 11.8558532
1471 5 -12.6899996 -20.2399998 -10.0699997 0 0 1 2 7 2 2 0 0 11.954011
1487 4 6.8470002 -16.6599999 -9.0869999 0 0 0 1 10 4 0 0 0 13.1504746
1497 1 -19.9099998 -20.0599995 -19.0900002 0 0 0 3 6 1 2 0 0 11.3213387
1504 5 11.7200003 4.6939998 -16.5699997 0 0 0 3 6 4 0 0 0 11.6533766
1516 2 17.7999993 17.9200002 -2.9690002 0 0 0 2 8 2 0 0 0 11.4480753
1525 2 -19.2600002 -17.6399994 -11.0900002 0 0 0 2 8 4 0 0 0 11.9721108
1533 2 11.0299997 0.7378 -6.1700001 0 0 0 0 12 0 0 0 0 12.3516855
1534 4 8.7880001 15.1899996 0.9895 0 0 0 3 7 4 1 0 0 13.2873449
1543 1 -13.1000004 -16.5699997 5.4860001 0 0 0 1 10 2 0 0 0 11.2530956
1548 4 15.5299998 -16.4200001 16.5599995 0 0 0 2 9 3 1 0 0 12.4961643
1550 4 0.5929 -14.7200003 -13.0600004 0 0 0 0 12 2 0 0 0 12.4147949
1561 4 -12.0600004 4.5479999 4.2880001 0 0 0 3 6 4 0 0 0 12.4982939
1566 1 10.4399996 0.8334 -8.5909996 0 0 0 1 12 2 0 0 0 13.0327244
1581 2 5.6700001 8.4300003 -4.1300001 0 0 0 0 12 0 0 0 0 12.1160793
1585 3 -3.836 -19.4400006 14.7399998 0 0 0 0 12 0 0 0 0 11.2517243
1595 5 4.9180002 0.6142 -12.6599999 0 0 1 4 5 4 0 0 0 12.4361563
1605 5 10.2399998 -5.776 0.0919 0 0 2 2 6 4 0 0 0 11.913087
1618 4 1.865 -6.7800002 20.9599992 0 0 0 0 12 3 0 0 0 12.7277041
1622 4 9.4259997 13.8199997 -1.734 0 0 0 0 12 3 0 0 0 13.933426
1625 4 11.6400004 -7.0370002 8.0620003 0 0 0 4 4 8 0 0 0 13.4496413
1630 4 4.8449998 -16.8299999 12.5699997 0 0 0 2 10 3 0 0 0 12.4817314
1632 4 2.411 -5.6739998 -13.3400002 0 0 0 2 8 4 0 0 0 11.8106098
1637 4 -19.4500008 -18.0699997 11.9099998 0 0 0 0 12 2 0 0 0 12.2354765
1644 4 7.092 11.9799996 13.9200002 0 0 0 0 12 3 0 0 0 13.248024
1648 4 -18.5300007 7.6950002 -4.7659998 0 0 1 2 7 6 0 0 0 13.3155031
1667 4 -3.514 8.0129995 -8.9130002 0 0 0 2 8 5 0 0 0 13.2035894
1672 4 13.5799999 -19.3299999 -20.4400006 0 0 0 2 8 4 0 0 0 12.4771719
1687 5 17.7600003 -0.9271 14.4300003 0 0 0 2 10 1 0 0 0 12.0081158
1694 2 19.6399994 -1.1440001 3.2230001 0 0 0 0 12 0 0 0 0 11.1306038
1700 5 13.3299999 11.5900002 20.4400006 0 0 0 2 8 4 0 0 0 11.9820252
1702 2 -18.6499996 -6.5949998 12.3299999 0 0 0 3 6 4 0 0 0 11.7137728
1705 1 2.0020001 -15.0600004 -0.4018 0 0 0 1 10 2 0 0 0 11.3797321
1707 4 18.4300003 4.3119998 -12.2399998 0 0 1 2 7 4 0 0 0 12.113863
1712 2 18.0599995 -14.2200003 -20.4899998 0 0 0 0 12 0 0 0 0 11.2190294
1714 4 19.5 0.4232 16.1000004 0 0 0 1 9 3 1 0 0 13.2244063
1724 2 -0.8333 -0.1845 -12.54 0 0 0 2 8 3 0 0 0 12.1188231
1730 5 -1.205 -2.5550001 18.6299992 0 0 0 0 12 3 0 0 0 12.8644296
1733 1 -2.8080001 -15.5900002 19.1900005 0 0 0 0 12 0 0 0 0 11.5524597
1737 4 16.8700008 -20.6100006 -0.5046 0 0 0 0 12 0 0 0 0 11.3582916
1743 4 -1.701 -18.4099999 0.6332 0 0 0 0 12 2 0 0 0 12.9099846
1745 4 -10.6999998 -21.5200005 16.5300007 0 0 0 1 10 2 0 0 0 11.1990175
1750 4 2.8050001 3.7320001 -1.227 0 0 0 3 6 5 0 0 0 12.7092715
1751 4 1.883 -12.7200003 -3.4470001 0 0 1 4 6 2 3 0 0 12.931427
1772 2 -5.9050002 21.1599999 -19.9899998 0 0 0 0 12 0 0 0 0 10.8582212
1773 5 14.2299996 1.346 21.2199993 0 0 0 1 10 4 0 0 0 13.1571159
1776 2 -19.7299996 17.5200005 18.6499996 0 0 0 4 6 4 0 0 0 12.2746191
1792 1 -17.5400009 13.0600004 -19.8799992 0 0 1 2 6 3 1 0 0 11.5008164
1796 2 14.6199999 -8.4309998 -20.8400002 0 0 0 0 12 0 0 0 0 11.5004063
1803 2 17.6700001 -4.6859999 -6.9450002 0 0 1 2 7 5 0 0 0 12.0600891
1813 4 -12.1800003 -2.846 -8.3520002 0 0 1 1 9 3 0 0 0 11.8487016
1834 4 19.2000008 17.2600002 21.2800007 0 0 0 1 10 3 0 0 0 13.2435351
1837 4 -13.8500004 11.2399998 -19.2000008 0 0 0 0 12 4 0 0 0 13.9277936
1838 2 7.1859999 17.4200001 -2.8280001 0 0 0 2 10 0 0 0 0 11.2527485
1849 5 0.3356 -8.026 -12.7700005 0 0 0 2 8 4 0 0 0 11.9146862
1852 4 -18.2600002 -13.3599997 2.003 0 0 0 1 10 2 0 0 0 11.6185942
1853 2 19.7600003 21.1700001 -12.5100003 0 0 0 2 8 3 0 0 0 11.5732441
1854 4 18.8199997 -7.1259999 8.2519999 0 0 0 0 12 0 0 0 0 11.6448393
1860 2 -5.9450002 -5.5960002 -16.6299992 0 0 0 1 10 2 0 0 0 12.268096
1865 2 -13.3900004 -8.4139996 14.7399998 0 0 0 3 6 4 0 0 0 10.8996106
1868 4 -11.6199999 5.77 6.9590002 0 0 0 1 10 4 0 0 0 13.1630592
1873 4 18.1399994 -19.7000008 -8.2419996 0 0 0 0 12 2 0 0 0 12.4020348
1880 5 11.5799999 -19.8400002 20.25 0 0 0 1 10 3 0 0 0 12.7109232
1890 4 -7.717 -21.2199993 7.599 0 0 0 1 10 3 0 0 0 12.7056294
1893 2 13.4799996 -11.25 0.8764 0 0 0 0 12 0 0 0 0 11.1053953
1898 5 -11.5799999 17.1200008 21.1399994 0 0 1 0 9 3 0 0 0 12.1191282
1911 4 19.2600002 -13.5299998 5.4190002 0 0 0 4 4 4 0 0 0 11.7882595
1921 4 14.1700001 15.7100001 4.2220001 0 0 0 3 6 4 0 0 0 12.142396
1925 2 17.9500008 -19.8799992 -15.3400002 0 0 0 2 8 2 0 0 0 11.6987438
1926 4 -1.452 7.0539999 -8.3839998 0 0 0 0 12 2 0 0 0 12.232605
1928 4 -0.4413 5.5 1.137 0 0 0 2 8 5 0 0 0 12.8996144
1934 4 -2.7780001 16.5100003 -6.5029998 0 0 2 2 5 2 2 1 0 11.7438193
1935 4 8.3850002 -2.243 5.4120002 0 0 1 0 9 1 2 0 0 12.2864733
1938 4 -2.1259999 -3.349 -9.8540002 0 0 1 3 4 5 1 0 0 12.2351494
1943 5 -7.4549999 19.9899998 -18.3999996 0 0 1 1 9 3 0 0 0 12.0301886
1947 5 -3.949 0.821 17.2199993 0 0 0 2 10 2 0 0 0 12.3744736
1948 4 -1.929 -5.0310001 -11.4899998 0 0 0 0 12 2 0 0 0 11.8856288
1954 5 -5.559 -10.7100001 13.9099998 0 0 0 1 10 2 0 0 0 12.4069634
1955 4 -18.7199993 -6.4710002 -20.2999992 0 0 0 5 6 2 0 0 0 12.3657656
1986 4 -3.0699999 9.8299999 12.0600004 0 0 0 3 6 5 0 0 0 12.2750683
1993 5 -9.158 -8.2550001 -17.25 0 0 0 1 10 2 0 0 0 12.5626784
1996 4 -4.316 15.0100002 7.0219998 0 0 1 1 8 3 1 0 0 11.8971454
1998 2 -0.3037 3.132 7.0809999 0 0 0 2 10 2 0 0 0 12.470172
2001 4 11.5299998 -5.612 5.1409998 0 0 1 2 9 3 0 0 0 12.6584301
2006 5 -10.2700005 -11.0699997 -20.2900009 0 0 0 5 5 4 1 0 0 13.3543301
2009 4 -7.883 -18.3600006 -1.3660001 0 0 0 0 12 2 0 0 0 12.4163208
2020 2 16.0400009 -3.085 3.8440002 0 0 2 3 4 5 0 0 0 11.5422392
2027 4 -1.341 -4.4310003 14.1700001 0 0 1 1 9 3 0 0 0 12.1178865
2028 2 -6.896 6.6880002 1.09 0 0 0 1 10 2 0 0 0 12.1483603
2045 4 -18.5699997 -2.852 14.3000002 0 0 1 4 3 4 2 0 0 11.8125315
2050 2 -10.6700001 -20.2000008 -15.7600003 0 0 1 1 8 3 1 0 0 11.2891398
2052 5 -12.9099998 19.3799992 3.0079999 0 0 0 1 12 1 0 0 0 12.6972571
2055 4 10.3900004 -4.6370001 -10.3500004 0 0 2 0 8 4 0 1 0 12.9223176
2056 5 17.6100006 11.25 9.8149996 0 0 0 2 8 4 0 0 0 13.0216932
2062 2 9.2209997 15.1800003 -15.4200001 0 0 0 3 6 4 0 0 0 11.2425184
2073 4 -0.2508 -14.4899998 -19.4400006 0 0 0 0 12 3 0 0 0 12.558321
2081 5 -12.8900004 -14.8400002 1.536 0 0 0 0 12 2 0 0 0 12.1404085
2082 2 18.0599995 15.7700005 11.5799999 0 0 0 0 12 0 0 0 0 11.5963822
2083 4 1.196 -19.8299999 -13.7100001 0 0 1 3 4 5 1 0 0 11.9051094
2087 5 -8.9499998 -8.8520002 -7.1209998 0 0 2 0 8 4 0 0 0 11.9118758
2093 5 -0.3205 -15.6000004 11.54 0 0 0 0 12 0 0 0 0 11.9354458
2095 4 1.344 -10.2799997 -20.1499996 0 0 1 2 7 6 0 0 0 13.2248507
2096 5 -15.6800003 -5.2600002 12.8599998 0 0 0 4 4 6 0 0 0 12.1471024
2107 5 -15.7299996 14.87 -7.0739999 0 0 1 1 9 4 2 0 0 14.8894434
2143 2 7.6069999 2.8050001 16.8999996 0 0 2 1 8 3 0 1 0 12.3692045
2154 4 18.3400002 14.3900004 -1.763 0 0 0 2 8 4 0 0 0 12.5019236
2160 2 13.2600002 8.941 2.6530001 0 0 0 4 6 3 0 0 0 11.5465698
2167 5 18.0300007 14.0699997 9.4910002 0 0 1 3 7 6 0 0 0 14.1286421
2176 5 9.1700001 12.7200003 0.9928 0 0 0 4 7 2 1 0 0 12.2485657
2178 4 -7.7560001 -20.1200008 -5.717 0 0 0 1 12 2 0 0 0 13.6698065
2180 5 -19.4099999 14.4300003 -4.895 0 0 1 0 9 3 0 0 0 11.8328476
2181 4 -7.8200002 8.2329998 15.6899996 0 0 0 1 10 4 0 0 0 12.3630457
2185 2 -11.7799998 -20.9300004 -7.1500001 0 0 0 4 6 3 0 0 0 11.5567808
2187 2 -2.892 9.3669996 18.3999996 0 0 0 1 10 2 0 0 0 11.678792
2207 5 16.9200002 -9.5939999 -7.9239998 0 0 1 3 6 3 1 0 0 12.7766838
2212 4 -8.7030001 -5.8130002 -17.1399994 0 0 0 3 8 4 0 0 0 12.6554804
2241 4 7.2010002 -6.2259998 1.012 0 0 1 1 11 1 0 0 0 12.4383803
2242 2 -19.1499996 -11.1000004 20.2000008 0 0 0 3 6 4 0 0 0 11.2642822
2274 1 -3.714 -19.9300004 0.7338 0 0 0 3 6 4 0 0 0 11.812398
2290 4 -0.6335 -20.7299996 12.9399996 0 0 0 1 10 2 0 0 0 12.0647459
2291 2 -11.87 16.1700001 -14.8299999 0 0 0 2 8 4 0 0 0 11.8563634
2295 1 9.375 -2.7449999 18.1499996 0 0 0 3 6 5 0 0 0 11.7097025
2300 5 -18.7700005 -10.0 -11.8599998 0 0 0 1 10 3 0 0 0 12.6034489
2315 4 18.2099991 -0.05557 -21.5599995 0 0 0 1 10 2 0 0 0 11.6184607
2319 4 -19.4699993 14.1300001 9.217 0 0 0 4 7 2 1 0 0 12.8049402
2324 1 15.3900004 -10.29 10.25 0 0 0 4 4 5 0 0 0 12.5825959
2325 4 -14.3100004 -6.0760002 -6.4520002 0 0 0 2 10 2 0 0 0 12.2575083
2333 2 8.3660002 21.0900002 19.7099991 0 0 0 1 10 2 0 0 0 11.3452263
2334 5 0.09775 8.1680002 15.1000004 0 0 0 4 6 4 0 0 0 12.0049887
2342 3 2.355 6.0669999 -15.9200002 0 0 1 1 9 3 0 0 0 12.1257687
2346 4 -13.7399998 -1.998 4.3379998 0 0 0 1 12 3 0 0 0 13.9773054
2377 4 9.2460003 -20.5100003 20.9799996 0 0 0 0 12 0 0 0 0 11.3941879
2388 4 -4.0949998 6.6360002 -2.2780001 0 0 0 0 12 4 0 0 0 13.4496079
2389 2 -12.3699999 -15.9700004 -17.7399998 0 0 0 0 12 0 0 0 0 11.4035292
2400 2 -11.8800002 0.08376 20.2199993 0 0 1 3 5 2 2 0 0 11.1470461
2409 5 -6.1339998 21.0499992 19.8600006 0 0 0 2 8 2 0 0 0 11.8461524
2414 1 2.4500001 7.1550002 15.3000002 0 0 0 2 10 1 0 0 0 12.5875492
2428 4 -6.4429999 14.2200003 13.79 0 0 0 2 8 3 0 0 0 11.9515142
2437 2 -10.3000002 9.9709998 18.4799996 0 0 0 3 6 3 0 0 0 10.9941998
2438 1 12.6999998 -10.2299996 -1.103 0 0 0 0 12 0 0 0 0 10.9239302
2440 4 14.0900002 -12.5600004 -1.212 0 0 1 3 7 5 0 0 0 12.9564124
2465 5 0.1995 -10.0699997 8.0609999 0 0 0 4 4 6 0 0 0 11.9848776
2476 1 14.9700004 -21.9699994 19.3799992 0 0 0 0 12 0 0 0 0 11.5489826
2480 4 13.9200002 11.2299996 -20.3600006 0 0 0 2 10 3 0 0 0 13.18153
2490 4 -19.2999992 1.43 -19.8099995 0 0 1 2 7 3 0 0 0 11.925994
2497 4 -18.9500008 16.9099998 0.9351 0 0 0 3 6 4 0 0 0 11.453414
2502 4 -4.1989999 -10.79 -2.1530001 0 0 1 1 8 3 1 0 0 12.1267939
2504 2 -7.1729999 -9.5360003 -14.3400002 0 0 0 0 12 0 0 0 0 11.7045489
2509 4 -8.4949999 17.3899994 -21.6299992 0 0 2 1 8 5 0 0 0 12.6622153
2511 5 -4.982 6.4710002 -4.7649999 0 0 0 0 12 0 0 0 0 10.9208842
2519 4 10.6700001 -9.1409998 17.2700005 0 0 0 1 10 2 0 0 0 12.1795006
2520 4 5.8979998 -19.8400002 -6.0780001 0 0 0 1 10 4 0 0 0 12.4100924
2521 2 7.0339999 5.0669999 13.5100003 0 0 0 3 8 3 0 0 0 12.1659651
2524 4 -17.3799992 4.006 -2.2000001 0 0 0 0 12 2 0 0 0 13.0766878
2526 2 -5.5300002 15.5900002 18.2900009 0 0 0 3 6 3 0 0 0 11.5317307
2534 5 -5.8140002 8.889 -17.4699993 0 0 0 3 6 4 0 0 0 12.1705694
2535 5 -3.3110001 -5.1030002 3.856 0 0 0 2 10 4 0 0 0 13.8270045
2577 3 1.161 -3.7479999 10.5200005 0 0 0 0 12 4 0 0 0 13.3760567
2582 2 3.303 13.6400004 -11.6499996 0 0 0 2 10 1 0 0 0 11.5537577
2590 4 -5.8800002 10.8299999 11.3100004 0 0 0 0 12 2 0 0 0 12.7082682
2592 3 -12.4099999 14.8500004 -20.75 0 0 0 3 6 5 0 0 0 11.1239748
2594 2 5.7659998 2.8310001 -17.2600002 0 0 0 2 8 2 0 0 0 12.003994
2595 5 -15.2200003 -15.6199999 2.902 0 0 0 2 8 4 0 0 0 11.7741242
2600 1 12.5100003 17.9899998 10.5900002 0 0 1 3 5 4 0 0 0 11.9035692
2608 5 6.2909999 -10.4799996 10.3199997 0 0 0 2 10 2 0 0 0 12.7233258
2613 5 -8.1929998 -10.5500002 20.3299999 0 0 0 1 12 2 0 0 0 13.2904892
2615 2 12.25 -21.0400009 6.882 0 0 0 3 6 4 0 0 0 11.4191561
2623 3 -14.1999998 1.61 -20.5200005 0 0 0 1 10 2 0 0 0 12.4997225
2644 2 -6.5770002 21.3099995 0.7251 0 0 0 3 6 4 0 0 0 12.2592754
2648 2 4.7030001 -5.8730002 -14.0600004 0 0 0 0 12 0 0 0 0 10.8953134
2651 4 17.6299992 -20.2900009 9.9449998 0 0 0 1 10 2 0 0 0 12.6125336
2659 4 19.3500004 -3.421 -8.7150002 0 0 0 0 12 2 0 0 0 11.7980128
2664 5 -19.3299999 -15.9300004 5.4520002 0 0 1 1 9 3 0 0 0 12.1589718
2672 2 -6.5380001 -15.3699999 11.0100002 0 0 0 3 5 3 1 0 0 11.6521607
2692 4 -13.0699997 -7.731 -4.9629998 0 0 0 3 6 4 0 0 0 10.9087392
2695 4 -19.5699997 18.4200001 -22.1299992 0 0 0 0 12 2 0 0 0 11.85849
2697 1 -14.04 18.0599995 -2.3599999 0 0 0 2 8 4 0 0 0 11.7120877
2706 4 16.0100002 3.803 -12.8000002 0 0 0 3 8 3 0 0 0 12.6934643
2715 4 8.9820004 -5.336 18.0499992 0 0 0 1 10 4 0 0 0 12.6896782
2719 4 4.1729999 -8.7100001 -11.3299999 0 0 0 2 8 4 0 0 0 13.2497807
2741 5 14.3000002 12.87 1.323 0 0 0 0 12 0 0 0 0 11.2145643
2771 5 10.9399996 -18.7299996 10.1400003 0 0 0 1 10 2 0 0 0 12.2560282
2773 2 12.3900004 -17.9500008 -15.54 0 0 1 0 11 1 0 0 0 11.6157933
2784 5 1.349 -20.9099998 2.1429999 0 0 1 1 7 4 0 0 0 11.972455
2803 5 -6.6690002 -14.96 -8.849 0 0 1 3 5 5 0 0 0 12.3018427
2805 4 15.54 11.1099997 -2.727 0 0 0 1 10 4 0 0 0 13.6546517
2813 4 -5.5339999 -7.0320001 -10.2399998 0 0 0 1 10 4 0 0 0 13.4188919
2823 4 5.3280001 -21.7700005 20.1100006 0 0 0 1 12 1 0 0 0 12.963974
2830 4 -3.5669999 21.5300007 11.0299997 0 0 1 3 5 6 0 0 0 12.986865
2840 2 -3.9030002 18.9599992 3.4300001 0 0 0 3 8 3 0 0 0 12.198184
2848 4 -1.0650001 -8.3339996 6.6009999 0 0 1 1 9 4 0 0 0 12.8475114
2850 4 -1.8430002 3.4849999 10.9499998 0 0 0 0 12 0 0 0 0 11.2419319
2860 1 5.7350002 -1.3940001 -18.5699997 0 0 1 3 4 5 1 0 0 12.3036137
2864 4 -3.708 17.3199997 21.3299999 0 0 1 2 7 3 0 0 0 11.6863613
2871 5 -7.197 15.4700003 -13.2399998 0 0 0 2 9 2 1 0 0 13.1002283
2878 2 3.8870002 -7.3850002 8.7379999 0 0 1 1 9 3 0 0 0 12.4006176
2889 2 -19.3099995 5.151 -15.6400004 0 0 0 2 8 3 0 0 0 11.126236
2900 4 4.7789998 4.119 -21.3500004 0 0 0 2 8 3 0 0 0 11.5798254
2902 2 -18.5300007 -11.4799996 6.1350002 0 0 0 0 12 0 0 0 0 10.963131
2906 4 -15.3000002 17.9799996 -20.4200001 0 0 0 3 6 6 0 0 0 13.0822506
2911 4 2.632 18.3700009 -12.4700003 0 0 0 0 12 2 0 0 0 11.8973074
2929 4 -10.04 -13.8100004 -14.4799996 0 0 0 1 10 3 0 0 0 12.717475
2933 4 -14.25 -22.1599999 -17.3400002 0 0 0 2 10 3 0 0 0 13.3161364
2942 4 0.4142 -19.0400009 14.5699997 0 0 0 2 8 4 0 0 0 12.1939898
2961 4 4.2839999 -11.0200005 -9.856 0 0 0 2 8 4 0 0 0 11.6029015
2963 2 -17.3500004 -14.9899998 10.5799999 0 0 0 0 12 0 0 0 0 11.5653487
2993 4 15.8999996 21.2199993 -16.8500004 0 0 0 1 10 4 0 0 0 12.4550228
2994 4 -2.546 -9.283 -0.9214 0 0 1 0 9 3 0 0 0 11.5138369
2995 2 10.3000002 -2.474 14.9200002 0 0 1 3 5 5 0 0 0 11.7046089
2997 2 -13.6000004 -8.1000004 -21.3899994 0 0 0 1 10 2 0 0 0 11.3916493
2999 2 19.8099995 19.9799996 0.4761 0 0 0 3 6 2 0 0 0 11.493968
3020 5 18.0300007 5.7519999 -19.3099995 0 0 0 3 6 5 0 0 0 12.2966299
3021 5 0.1928 -10.6800003 0.3886 0 0 1 1 8 3 1 0 0 12.0502605
3024 5 -1.204 7.3319998 -21.3899994 0 0 0 4 8 3 0 0 0 12.5879841
3025 2 -17.7800007 5.9050002 1.549 0 0 0 2 8 2 0 0 0 11.7872792
3048 4 5.0570002 10.5500002 14.54 0 0 0 0 12 3 0 0 0 13.1556683
3056 4 16.8700008 -15.8999996 -8.1540003 0 0 1 2 9 3 0 0 0 12.1986361
3066 2 -15.7700005 5.2449999 -12.8599998 0 0 0 0 12 0 0 0 0 11.6504212
3070 4 15.9099998 4.4840002 14.6000004 0 0 0 2 10 3 0 0 0 12.7585974
3072 4 -10.3400002 -4.7950001 -18.8500004 0 0 0 1 10 4 0 0 0 12.826519
3083 4 -9.844 -10.2200003 -9.2250004 0 0 0 2 8 4 0 0 0 11.7257595
3109 5 -18.3700009 15.5100003 17.8899994 0 0 0 2 10 4 0 0 0 13.1132107
3110 2 7.092 16.8600006 2.1440001 0 0 0 3 6 4 0 0 0 11.5885153
3119 5 15.4099999 11.0799999 13.9499998 0 0 0 0 12 2 0 0 0 13.1191521
3123 5 -18.7900009 -18.8299999 19.9599992 0 0 0 4 6 5 0 0 0 12.7184983
3126 2 -11.0100002 -0.8932 18.1599999 0 0 0 3 6 3 2 0 0 12.9749118
3129 2 3.332 14.6800003 -7.2160001 0 0 0 2 8 2 0 0 0 11.5137682
3137 2 6.7329998 -3.599 -19.1900005 0 0 1 1 9 0 2 0 0 11.5175638
3142 2 -6.9260002 13.1599999 -17.1000004 0 0 0 0 12 2 0 0 0 12.0056858
3157 5 -16.2999992 15.29 -14.5299998 0 0 0 5 4 4 2 0 0 12.2323752
3169 5 -1.602 18.4400006 7.9120002 0 0 0 2 8 4 0 0 0 12.3257132
3174 4 -1.958 -3.6140001 16.2900009 0 0 0 3 7 2 1 0 0 12.3479853
3190 2 2.346 13.4600001 8.8900004 0 0 0 0 12 0 0 0 0 11.4340124
3193 2 19.2800007 2.491 9.3809996 0 0 0 0 12 0 0 0 0 11.5218392
3204 1 -18.3700009 16.4300003 12.6999998 0 0 0 2 8 4 0 0 0 12.2152233
3219 4 -2.441 6.914 18.8600006 0 0 0 4 4 5 0 0 0 11.7867623
3231 5 13.5699997 18.7299996 3.171 0 0 0 2 10 2 0 0 0 13.2523766
3238 5 7.7529998 -21.7199993 19.0200005 0 0 0 1 10 4 0 0 0 13.0751181
3240 1 -11.1499996 20.3700009 -3.448 0 0 0 0 12 0 0 0 0 11.4403057
3242 2 1.097 0.1133 12.5100003 0 0 0 0 12 0 0 0 0 11.1122179
3248 4 -14.7600003 -6.079 6.4860001 0 0 0 0 12 3 0 0 0 13.0423365
3253 5 10.6599999 4.4619999 10.54 0 0 1 1 9 4 0 0 0 13.0289736
3257 4 6.085 -14.9300004 -21.2299996 0 0 1 2 7 4 0 0 0 11.9931984
3260 4 -17.2600002 -16.7299996 3.932 0 0 0 2 10 0 0 0 0 11.5019179
3274 2 0.02435 15.1899996 16.5799999 0 0 0 2 8 4 0 0 0 12.3697901
3278 4 19.2299996 -8.434 -18.4699993 0 0 1 1 8 3 1 0 0 11.7981901
3282 5 7.2989998 14.1300001 20.2800007 0 0 2 0 8 2 2 0 0 12.4595518