ITEM: TIMESTEP
0
ITEM: NUMBER OF ATOMS
16384
ITEM: BOX BOUNDS pp pp pp
0.0000000000000000e+00 3.7272676669048600e+01
0.0000000000000000e+00 3.7272676669048600e+01
0.0000000000000000e+00 3.7272676669048600e+01
ITEM: ATOMS id type x y z
1 4 0 0 0
2 4 1.17402 1.17402 0
5 4 2.34803 1.17402 1.17402
32 4 1.17402 2.34803 1.17402
8193 2 0 0 0
8194 2 1.17402 1.17402 0
8195 2 1.17402 0 1.17402
8196 2 0 1.17402 1.17402
8226 2 0 2.34803 0
8730 2 1.17402 1.17402 2.34803
8760 2 2.34803 2.34803 2.34803
3 4 3.52205 1.17402 0
4 4 3.52205 0 1.17402
6 4 5.87008 0 1.17402
7 4 4.69606 1.17402 1.17402
34 4 3.52205 2.34803 1.17402
36 4 4.69606 2.34803 0
38 4 5.87008 2.34803 1.17402
558 4 4.69606 2.34803 2.34803
8197 2 3.52205 0 1.17402
8198 2 4.69606 0 0
8199 2 5.87008 1.17402 0
8228 2 3.52205 2.34803 1.17402
8229 2 4.69606 2.34803 0
8732 2 3.52205 1.17402 2.34803
8735 2 4.69606 0 2.34803
8 4 8.21811 1.17402 0
9 4 8.21811 0 1.17402
10 4 7.04409 1.17402 1.17402
11 4 9.39213 0 0
12 4 9.39213 1.17402 1.17402
41 4 8.21811 2.34803 1.17402
43 4 9.39213 2.34803 0
525 4 8.21811 1.17402 2.34803
528 4 9.39213 0 2.34803
561 4 7.04409 2.34803 2.34803
8200 2 8.21811 1.17402 0
8231 2 9.39213 2.34803 0
8740 2 9.39213 0 2.34803
46 4 12.9142 2.34803 1.17402
565 4 11.7402 2.34803 2.34803
8201 2 10.5661 0 1.17402
8202 2 12.9142 0 1.17402
8203 2 11.7402 1.17402 1.17402
8232 2 10.5661 2.34803 1.17402
13 4 14.0882 0 0
14 4 16.4362 0 0
16 4 16.4362 1.17402 1.17402
48 4 14.0882 2.34803 0
50 4 15.2622 2.34803 1.17402
532 4 15.2622 1.17402 2.34803
534 4 16.4362 0 2.34803
568 4 14.0882 2.34803 2.34803
8204 2 14.0882 0 0
8205 2 15.2622 1.17402 0
8206 2 14.0882 1.17402 1.17402
8207 2 16.4362 0 0
8235 2 15.2622 2.34803 1.17402
8236 2 16.4362 2.34803 0
8743 2 14.0882 0 2.34803
8744 2 15.2622 1.17402 2.34803
8746 2 16.4362 0 2.34803
8770 2 14.0882 2.34803 2.34803
8773 2 16.4362 2.34803 2.34803
15 4 17.6102 0 1.17402
17 4 18.7843 0 0
18 4 19.9583 1.17402 0
19 4 19.9583 0 1.17402
53 4 18.7843 2.34803 0
55 4 19.9583 2.34803 1.17402
536 4 18.7843 0 2.34803
537 4 19.9583 1.17402 2.34803
571 4 18.7843 2.34803 2.34803
8208 2 17.6102 0 1.17402
8209 2 19.9583 1.17402 0
8238 2 18.7843 2.34803 0
8748 2 18.7843 0 2.34803
20 4 22.3063 1.17402 0
21 4 22.3063 0 1.17402
57 4 21.1323 2.34803 0
540 4 23.4803 0 2.34803
575 4 21.1323 2.34803 2.34803
8210 2 22.3063 1.17402 0
8211 2 22.3063 0 1.17402
8212 2 21.1323 1.17402 1.17402
8213 2 23.4803 0 0
8215 2 23.4803 1.17402 1.17402
8240 2 22.3063 2.34803 1.17402
8750 2 22.3063 1.17402 2.34803
8778 2 21.1323 2.34803 2.34803
22 4 24.6543 1.17402 0
23 4 25.8283 0 0
24 4 27.0024 1.17402 0
60 4 24.6543 2.34803 1.17402
62 4 27.0024 2.34803 1.17402
541 4 25.8283 0 2.34803
542 4 27.0024 1.17402 2.34803
8214 2 24.6543 0 1.17402
8216 2 27.0024 1.17402 0
8217 2 25.8283 1.17402 1.17402
8242 2 24.6543 2.34803 1.17402
8243 2 25.8283 2.34803 0
8754 2 27.0024 1.17402 2.34803
25 4 29.3504 1.17402 0
63 4 28.1764 2.34803 0
65 4 29.3504 2.34803 1.17402
543 4 29.3504 1.17402 2.34803
8218 2 28.1764 0 0
8219 2 29.3504 1.17402 0
8220 2 28.1764 1.17402 1.17402
8245 2 28.1764 2.34803 0
8246 2 29.3504 2.34803 1.17402
8783 2 28.1764 2.34803 2.34803
26 4 31.6984 1.17402 0
27 4 32.8724 0 0
29 4 32.8724 1.17402 1.17402
67 4 31.6984 2.34803 1.17402
68 4 32.8724 2.34803 0
546 4 30.5244 0 2.34803
547 4 31.6984 1.17402 2.34803
583 4 30.5244 2.34803 2.34803
8221 2 30.5244 0 0
8222 2 31.6984 0 1.17402
8223 2 30.5244 1.17402 1.17402
8247 2 30.5244 2.34803 0
8249 2 31.6984 2.34803 1.17402
8251 2 32.8724 2.34803 0
8757 2 30.5244 0 2.34803
8787 2 32.8724 2.34803 2.34803
28 4 34.0465 0 1.17402
30 4 35.2205 0 0
31 4 36.3945 1.17402 0
70 4 35.2205 2.34803 0
551 4 35.2205 0 2.34803
8224 2 34.0465 0 1.17402
8225 2 35.2205 0 0
8252 2 35.2205 2.34803 0
8254 2 36.3945 2.34803 1.17402
8759 2 36.3945 1.17402 2.34803
33 4 0 3.52205 1.17402
35 4 2.34803 3.52205 1.17402
73 4 1.17402 4.69606 1.17402
75 4 2.34803 5.87008 1.17402
553 4 1.17402 3.52205 2.34803
587 4 0 4.69606 2.34803
588 4 1.17402 5.87008 2.34803
8227 2 1.17402 3.52205 0
8256 2 1.17402 4.69606 1.17402
8257 2 0 5.87008 1.17402
8258 2 2.34803 4.69606 0
8790 2 0 4.69606 2.34803
8793 2 2.34803 4.69606 2.34803
37 4 5.87008 3.52205 0
39 4 4.69606 3.52205 1.17402
74 4 3.52205 4.69606 1.17402
555 4 3.52205 3.52205 2.34803
590 4 3.52205 5.87008 2.34803
8230 2 5.87008 3.52205 0
8259 2 3.52205 5.87008 0
8260 2 4.69606 4.69606 0
8261 2 5.87008 4.69606 1.17402
8262 2 4.69606 5.87008 1.17402
8761 2 3.52205 3.52205 2.34803
8762 2 5.87008 3.52205 2.34803
8794 2 3.52205 5.87008 2.34803
40 4 8.21811 3.52205 0
42 4 7.04409 3.52205 1.17402
45 4 9.39213 3.52205 1.17402
76 4 7.04409 4.69606 0
77 4 8.21811 4.69606 1.17402
562 4 8.21811 3.52205 2.34803
592 4 9.39213 4.69606 2.34803
8263 2 7.04409 4.69606 0
8264 2 7.04409 5.87008 1.17402
8265 2 9.39213 4.69606 0
8798 2 8.21811 5.87008 2.34803
44 4 10.5661 3.52205 0
47 4 11.7402 3.52205 1.17402
78 4 10.5661 4.69606 1.17402
79 4 12.9142 5.87008 0
80 4 12.9142 4.69606 1.17402
563 4 10.5661 3.52205 2.34803
566 4 12.9142 3.52205 2.34803
594 4 11.7402 4.69606 2.34803
595 4 12.9142 5.87008 2.34803
8233 2 12.9142 3.52205 0
8266 2 10.5661 5.87008 0
8267 2 10.5661 4.69606 1.17402
8268 2 11.7402 4.69606 0
8269 2 12.9142 5.87008 0
8270 2 12.9142 4.69606 1.17402
8765 2 10.5661 3.52205 2.34803
8768 2 12.9142 3.52205 2.34803
8801 2 12.9142 5.87008 2.34803
49 4 15.2622 3.52205 0
51 4 14.0882 3.52205 1.17402
52 4 16.4362 3.52205 1.17402
81 4 14.0882 4.69606 0
82 4 15.2622 4.69606 1.17402
83 4 16.4362 5.87008 1.17402
569 4 15.2622 3.52205 2.34803
596 4 14.0882 4.69606 2.34803
598 4 16.4362 4.69606 2.34803
8234 2 15.2622 3.52205 0
8237 2 16.4362 3.52205 1.17402
8271 2 15.2622 5.87008 0
8272 2 14.0882 5.87008 1.17402
8273 2 16.4362 5.87008 1.17402
8771 2 15.2622 3.52205 2.34803
8804 2 16.4362 4.69606 2.34803
54 4 19.9583 3.52205 0
56 4 18.7843 3.52205 1.17402
84 4 19.9583 4.69606 1.17402
572 4 19.9583 3.52205 2.34803
599 4 17.6102 5.87008 2.34803
601 4 19.9583 5.87008 2.34803
8239 2 19.9583 3.52205 0
8274 2 18.7843 4.69606 0
8275 2 19.9583 5.87008 0
8276 2 18.7843 5.87008 1.17402
8776 2 19.9583 3.52205 2.34803
8805 2 19.9583 5.87008 2.34803
58 4 22.3063 3.52205 0
59 4 21.1323 3.52205 1.17402
61 4 23.4803 3.52205 1.17402
85 4 22.3063 5.87008 0
86 4 21.1323 5.87008 1.17402
88 4 23.4803 5.87008 1.17402
576 4 22.3063 3.52205 2.34803
603 4 21.1323 4.69606 2.34803
8241 2 21.1323 3.52205 1.17402
8277 2 21.1323 4.69606 0
8278 2 22.3063 5.87008 0
8279 2 22.3063 4.69606 1.17402
8280 2 21.1323 5.87008 1.17402
8281 2 23.4803 4.69606 0
87 4 24.6543 4.69606 1.17402
89 4 27.0024 4.69606 1.17402
90 4 25.8283 5.87008 1.17402
579 4 27.0024 3.52205 2.34803
604 4 25.8283 4.69606 2.34803
8244 2 27.0024 3.52205 0
8282 2 24.6543 5.87008 0
8283 2 24.6543 4.69606 1.17402
8284 2 27.0024 5.87008 0
8809 2 24.6543 5.87008 2.34803
8812 2 25.8283 4.69606 2.34803
8813 2 27.0024 5.87008 2.34803
64 4 29.3504 3.52205 0
91 4 29.3504 5.87008 0
92 4 28.1764 5.87008 1.17402
582 4 29.3504 3.52205 2.34803
8285 2 28.1764 4.69606 0
8784 2 29.3504 3.52205 2.34803
8816 2 28.1764 4.69606 2.34803
8817 2 29.3504 5.87008 2.34803
66 4 31.6984 3.52205 0
93 4 30.5244 5.87008 1.17402
94 4 32.8724 4.69606 0
584 4 31.6984 3.52205 2.34803
8248 2 31.6984 3.52205 0
8250 2 30.5244 3.52205 1.17402
8286 2 31.6984 5.87008 0
8287 2 31.6984 4.69606 1.17402
8288 2 30.5244 5.87008 1.17402
8289 2 32.8724 4.69606 0
8291 2 32.8724 5.87008 1.17402
69 4 34.0465 3.52205 0
71 4 36.3945 3.52205 0
72 4 35.2205 3.52205 1.17402
95 4 35.2205 4.69606 0
96 4 36.3945 5.87008 0
97 4 35.2205 5.87008 1.17402
586 4 36.3945 3.52205 2.34803
609 4 35.2205 4.69606 2.34803
610 4 36.3945 5.87008 2.34803
8253 2 36.3945 3.52205 0
8255 2 35.2205 3.52205 1.17402
8290 2 34.0465 5.87008 0
8292 2 35.2205 4.69606 0
8293 2 36.3945 5.87008 0
8294 2 35.2205 5.87008 1.17402
8789 2 36.3945 3.52205 2.34803
8822 2 36.3945 5.87008 2.34803
98 4 1.17402 8.21811 0
99 4 1.17402 7.04409 1.17402
100 4 0 8.21811 1.17402
101 4 2.34803 7.04409 0
8295 2 0 7.04409 0
8296 2 2.34803 7.04409 0
8327 2 1.17402 9.39213 1.17402
8329 2 2.34803 9.39213 0
8824 2 0 7.04409 2.34803
8825 2 1.17402 8.21811 2.34803
8826 2 2.34803 7.04409 2.34803
8852 2 0 9.39213 2.34803
8856 2 2.34803 9.39213 2.34803
102 4 3.52205 8.21811 0
103 4 3.52205 7.04409 1.17402
104 4 4.69606 7.04409 0
105 4 5.87008 7.04409 1.17402
134 4 5.87008 9.39213 1.17402
612 4 3.52205 8.21811 2.34803
613 4 4.69606 7.04409 2.34803
614 4 5.87008 8.21811 2.34803
8297 2 3.52205 8.21811 0
8298 2 3.52205 7.04409 1.17402
8299 2 4.69606 7.04409 0
8300 2 5.87008 8.21811 0
8331 2 3.52205 9.39213 1.17402
8333 2 4.69606 9.39213 0
8827 2 4.69606 7.04409 2.34803
8828 2 5.87008 8.21811 2.34803
106 4 8.21811 8.21811 0
107 4 8.21811 7.04409 1.17402
616 4 8.21811 8.21811 2.34803
8301 2 7.04409 7.04409 0
8302 2 8.21811 8.21811 0
8303 2 7.04409 8.21811 1.17402
8829 2 8.21811 8.21811 2.34803
8831 2 9.39213 7.04409 2.34803
108 4 11.7402 7.04409 0
109 4 12.9142 8.21811 0
110 4 12.9142 7.04409 1.17402
137 4 11.7402 9.39213 0
618 4 11.7402 7.04409 2.34803
8304 2 10.5661 8.21811 0
8305 2 10.5661 7.04409 1.17402
8306 2 12.9142 8.21811 0
8338 2 10.5661 9.39213 1.17402
8340 2 11.7402 9.39213 0
8341 2 12.9142 9.39213 1.17402
8864 2 11.7402 9.39213 2.34803
111 4 14.0882 7.04409 0
112 4 15.2622 7.04409 1.17402
113 4 14.0882 8.21811 1.17402
114 4 16.4362 7.04409 0
117 4 16.4362 8.21811 1.17402
139 4 14.0882 9.39213 0
620 4 15.2622 8.21811 2.34803
8307 2 15.2622 8.21811 0
8308 2 14.0882 8.21811 1.17402
8309 2 16.4362 7.04409 0
8311 2 16.4362 8.21811 1.17402
8344 2 15.2622 9.39213 1.17402
8833 2 15.2622 8.21811 2.34803
8866 2 14.0882 9.39213 2.34803
8868 2 16.4362 9.39213 2.34803
115 4 17.6102 8.21811 0
116 4 17.6102 7.04409 1.17402
118 4 18.7843 8.21811 1.17402
143 4 19.9583 9.39213 1.17402
621 4 17.6102 8.21811 2.34803
623 4 18.7843 7.04409 2.34803
624 4 19.9583 8.21811 2.34803
654 4 18.7843 9.39213 2.34803
8310 2 17.6102 7.04409 1.17402
8312 2 18.7843 7.04409 0
8313 2 19.9583 8.21811 0
8834 2 17.6102 8.21811 2.34803
8835 2 18.7843 7.04409 2.34803
8836 2 19.9583 8.21811 2.34803
119 4 21.1323 7.04409 0
120 4 22.3063 8.21811 0
121 4 22.3063 7.04409 1.17402
122 4 21.1323 8.21811 1.17402
123 4 23.4803 7.04409 0
146 4 22.3063 9.39213 1.17402
148 4 23.4803 9.39213 0
626 4 21.1323 7.04409 2.34803
628 4 23.4803 7.04409 2.34803
657 4 21.1323 9.39213 2.34803
8314 2 21.1323 7.04409 0
8315 2 22.3063 7.04409 1.17402
8316 2 23.4803 7.04409 0
8349 2 22.3063 9.39213 1.17402
8838 2 22.3063 8.21811 2.34803
8839 2 23.4803 7.04409 2.34803
124 4 24.6543 7.04409 1.17402
629 4 24.6543 8.21811 2.34803
660 4 25.8283 9.39213 2.34803
8317 2 25.8283 7.04409 0
8318 2 25.8283 8.21811 1.17402
8353 2 25.8283 9.39213 0
8354 2 27.0024 9.39213 1.17402
8840 2 24.6543 8.21811 2.34803
8843 2 27.0024 8.21811 2.34803
125 4 29.3504 8.21811 0
126 4 29.3504 7.04409 1.17402
127 4 28.1764 8.21811 1.17402
152 4 28.1764 9.39213 0
633 4 28.1764 7.04409 2.34803
662 4 28.1764 9.39213 2.34803
8356 2 28.1764 9.39213 0
8357 2 29.3504 9.39213 1.17402
128 4 30.5244 7.04409 0
129 4 31.6984 7.04409 1.17402
130 4 32.8724 7.04409 0
155 4 30.5244 9.39213 0
156 4 31.6984 9.39213 1.17402
158 4 32.8724 9.39213 0
664 4 30.5244 9.39213 2.34803
667 4 32.8724 9.39213 2.34803
8319 2 31.6984 7.04409 1.17402
8320 2 30.5244 8.21811 1.17402
8321 2 32.8724 7.04409 0
8322 2 32.8724 8.21811 1.17402
8359 2 31.6984 9.39213 1.17402
8847 2 32.8724 7.04409 2.34803
8878 2 30.5244 9.39213 2.34803
131 4 36.3945 8.21811 0
635 4 34.0465 8.21811 2.34803
637 4 35.2205 7.04409 2.34803
8323 2 35.2205 7.04409 0
8324 2 36.3945 8.21811 0
8325 2 35.2205 8.21811 1.17402
8362 2 35.2205 9.39213 0
8364 2 36.3945 9.39213 1.17402
8848 2 34.0465 8.21811 2.34803
8851 2 36.3945 8.21811 2.34803
132 4 1.17402 10.5661 0
160 4 0 11.7402 0
161 4 1.17402 12.9142 0
162 4 1.17402 11.7402 1.17402
163 4 0 12.9142 1.17402
164 4 2.34803 11.7402 0
640 4 1.17402 10.5661 2.34803
672 4 0 11.7402 2.34803
675 4 2.34803 11.7402 2.34803
8326 2 1.17402 10.5661 0
8328 2 0 10.5661 1.17402
8332 2 2.34803 10.5661 1.17402
8366 2 0 11.7402 0
8367 2 1.17402 12.9142 0
8368 2 1.17402 11.7402 1.17402
8369 2 0 12.9142 1.17402
8370 2 2.34803 11.7402 0
8373 2 2.34803 12.9142 1.17402
8853 2 1.17402 10.5661 2.34803
8880 2 0 11.7402 2.34803
8883 2 2.34803 11.7402 2.34803
133 4 3.52205 10.5661 0
165 4 3.52205 11.7402 1.17402
166 4 5.87008 12.9142 0
167 4 5.87008 11.7402 1.17402
168 4 4.69606 12.9142 1.17402
676 4 3.52205 12.9142 2.34803
679 4 4.69606 11.7402 2.34803
680 4 5.87008 12.9142 2.34803
8330 2 3.52205 10.5661 0
8334 2 5.87008 10.5661 0
8335 2 4.69606 10.5661 1.17402
8371 2 3.52205 12.9142 0
8372 2 3.52205 11.7402 1.17402
8374 2 4.69606 11.7402 0
8375 2 5.87008 12.9142 0
8857 2 3.52205 10.5661 2.34803
8860 2 5.87008 10.5661 2.34803
8884 2 3.52205 12.9142 2.34803
8886 2 4.69606 11.7402 2.34803
8887 2 5.87008 12.9142 2.34803
135 4 7.04409 10.5661 1.17402
136 4 9.39213 10.5661 1.17402
169 4 8.21811 11.7402 1.17402
170 4 7.04409 12.9142 1.17402
171 4 9.39213 11.7402 0
174 4 9.39213 12.9142 1.17402
682 4 7.04409 11.7402 2.34803
683 4 8.21811 12.9142 2.34803
685 4 9.39213 11.7402 2.34803
8336 2 8.21811 10.5661 0
8339 2 9.39213 10.5661 1.17402
8376 2 8.21811 12.9142 0
8377 2 8.21811 11.7402 1.17402
8378 2 9.39213 11.7402 0
8381 2 9.39213 12.9142 1.17402
8888 2 8.21811 12.9142 2.34803
8890 2 9.39213 11.7402 2.34803
138 4 12.9142 10.5661 0
172 4 10.5661 12.9142 0
173 4 10.5661 11.7402 1.17402
175 4 11.7402 11.7402 0
176 4 11.7402 12.9142 1.17402
686 4 10.5661 12.9142 2.34803
688 4 11.7402 11.7402 2.34803
689 4 12.9142 12.9142 2.34803
8337 2 10.5661 10.5661 0
8342 2 11.7402 10.5661 1.17402
8379 2 10.5661 12.9142 0
8380 2 10.5661 11.7402 1.17402
8382 2 12.9142 12.9142 0
8383 2 12.9142 11.7402 1.17402
8863 2 10.5661 10.5661 2.34803
8891 2 10.5661 12.9142 2.34803
8892 2 12.9142 12.9142 2.34803
140 4 15.2622 10.5661 0
142 4 16.4362 10.5661 1.17402
177 4 14.0882 11.7402 0
178 4 15.2622 12.9142 0
691 4 15.2622 12.9142 2.34803
8343 2 15.2622 10.5661 0
8345 2 14.0882 10.5661 1.17402
8346 2 16.4362 10.5661 1.17402
8384 2 15.2622 12.9142 0
8385 2 15.2622 11.7402 1.17402
8386 2 16.4362 11.7402 0
8867 2 15.2622 10.5661 2.34803
8894 2 14.0882 11.7402 2.34803
8895 2 15.2622 12.9142 2.34803
8897 2 16.4362 11.7402 2.34803
141 4 17.6102 10.5661 0
144 4 18.7843 10.5661 1.17402
179 4 17.6102 12.9142 0
652 4 17.6102 10.5661 2.34803
655 4 19.9583 10.5661 2.34803
8347 2 19.9583 10.5661 0
8348 2 18.7843 10.5661 1.17402
8387 2 17.6102 12.9142 0
8388 2 18.7843 12.9142 1.17402
8869 2 17.6102 10.5661 2.34803
8870 2 19.9583 10.5661 2.34803
8898 2 19.9583 12.9142 2.34803
145 4 22.3063 10.5661 0
147 4 21.1323 10.5661 1.17402
150 4 23.4803 10.5661 1.17402
180 4 21.1323 11.7402 0
181 4 22.3063 12.9142 0
182 4 21.1323 12.9142 1.17402
183 4 23.4803 11.7402 0
658 4 22.3063 10.5661 2.34803
8350 2 21.1323 10.5661 1.17402
8352 2 23.4803 10.5661 1.17402
8389 2 22.3063 12.9142 0
8390 2 22.3063 11.7402 1.17402
8391 2 23.4803 11.7402 0
8871 2 22.3063 10.5661 2.34803
8899 2 22.3063 12.9142 2.34803
8902 2 23.4803 11.7402 2.34803
149 4 24.6543 10.5661 0
151 4 27.0024 10.5661 0
184 4 25.8283 11.7402 0
185 4 25.8283 12.9142 1.17402
659 4 24.6543 10.5661 2.34803
661 4 27.0024 10.5661 2.34803
698 4 25.8283 11.7402 2.34803
699 4 27.0024 12.9142 2.34803
8351 2 24.6543 10.5661 0
8355 2 25.8283 10.5661 1.17402
8392 2 24.6543 12.9142 0
8393 2 24.6543 11.7402 1.17402
8394 2 25.8283 12.9142 1.17402
8874 2 24.6543 10.5661 2.34803
8903 2 24.6543 12.9142 2.34803
153 4 29.3504 10.5661 0
154 4 28.1764 10.5661 1.17402
186 4 29.3504 11.7402 1.17402
663 4 29.3504 10.5661 2.34803
701 4 28.1764 11.7402 2.34803
8358 2 28.1764 10.5661 1.17402
8395 2 28.1764 11.7402 0
8396 2 29.3504 11.7402 1.17402
8397 2 28.1764 12.9142 1.17402
8906 2 28.1764 11.7402 2.34803
8907 2 29.3504 12.9142 2.34803
157 4 30.5244 10.5661 1.17402
187 4 31.6984 12.9142 0
188 4 31.6984 11.7402 1.17402
189 4 30.5244 12.9142 1.17402
702 4 30.5244 11.7402 2.34803
703 4 31.6984 12.9142 2.34803
705 4 32.8724 11.7402 2.34803
8360 2 30.5244 10.5661 1.17402
8398 2 30.5244 11.7402 0
8399 2 31.6984 11.7402 1.17402
8400 2 30.5244 12.9142 1.17402
8401 2 32.8724 11.7402 0
8909 2 30.5244 11.7402 2.34803
8910 2 31.6984 12.9142 2.34803
159 4 35.2205 10.5661 1.17402
190 4 34.0465 12.9142 0
191 4 36.3945 12.9142 0
192 4 36.3945 11.7402 1.17402
668 4 34.0465 10.5661 2.34803
706 4 34.0465 12.9142 2.34803
709 4 35.2205 11.7402 2.34803
710 4 36.3945 12.9142 2.34803
8361 2 34.0465 10.5661 0
8363 2 36.3945 10.5661 0
8365 2 35.2205 10.5661 1.17402
8402 2 34.0465 12.9142 0
8403 2 36.3945 12.9142 0
8913 2 34.0465 12.9142 2.34803
8916 2 35.2205 11.7402 2.34803
193 4 1.17402 15.2622 0
194 4 1.17402 14.0882 1.17402
195 4 0 15.2622 1.17402
196 4 2.34803 14.0882 0
230 4 0 16.4362 0
232 4 1.17402 16.4362 1.17402
711 4 0 14.0882 2.34803
712 4 1.17402 15.2622 2.34803
713 4 2.34803 14.0882 2.34803
747 4 0 16.4362 2.34803
750 4 2.34803 16.4362 2.34803
8404 2 2.34803 14.0882 0
8405 2 2.34803 15.2622 1.17402
8431 2 0 16.4362 0
8433 2 1.17402 16.4362 1.17402
8918 2 0 14.0882 2.34803
8919 2 1.17402 15.2622 2.34803
8920 2 2.34803 14.0882 2.34803
8952 2 0 16.4362 2.34803
197 4 3.52205 15.2622 0
198 4 4.69606 14.0882 0
199 4 5.87008 15.2622 0
200 4 5.87008 14.0882 1.17402
201 4 4.69606 15.2622 1.17402
235 4 3.52205 16.4362 1.17402
237 4 5.87008 16.4362 1.17402
715 4 5.87008 15.2622 2.34803
8406 2 4.69606 14.0882 0
8407 2 5.87008 15.2622 0
8436 2 3.52205 16.4362 1.17402
8437 2 4.69606 16.4362 0
8439 2 5.87008 16.4362 1.17402
8921 2 3.52205 15.2622 2.34803
8923 2 4.69606 14.0882 2.34803
8924 2 5.87008 15.2622 2.34803
8956 2 4.69606 16.4362 2.34803
202 4 7.04409 14.0882 0
203 4 8.21811 15.2622 0
204 4 8.21811 14.0882 1.17402
239 4 7.04409 16.4362 0
240 4 8.21811 16.4362 1.17402
718 4 7.04409 14.0882 2.34803
719 4 8.21811 15.2622 2.34803
721 4 9.39213 14.0882 2.34803
755 4 9.39213 16.4362 2.34803
8408 2 7.04409 14.0882 0
8409 2 7.04409 15.2622 1.17402
8410 2 9.39213 14.0882 0
8412 2 9.39213 15.2622 1.17402
8926 2 7.04409 14.0882 2.34803
8927 2 8.21811 15.2622 2.34803
8928 2 9.39213 14.0882 2.34803
205 4 10.5661 15.2622 0
206 4 10.5661 14.0882 1.17402
207 4 12.9142 15.2622 0
208 4 11.7402 15.2622 1.17402
243 4 10.5661 16.4362 1.17402
723 4 12.9142 15.2622 2.34803
8411 2 10.5661 15.2622 0
8413 2 11.7402 14.0882 0
8414 2 12.9142 14.0882 1.17402
8441 2 10.5661 16.4362 1.17402
8443 2 12.9142 16.4362 1.17402
8930 2 12.9142 15.2622 2.34803
8962 2 11.7402 16.4362 2.34803
209 4 14.0882 14.0882 0
210 4 15.2622 15.2622 0
245 4 14.0882 16.4362 0
246 4 15.2622 16.4362 1.17402
759 4 14.0882 16.4362 2.34803
8415 2 15.2622 15.2622 0
8416 2 15.2622 14.0882 1.17402
8417 2 16.4362 14.0882 0
8445 2 15.2622 16.4362 1.17402
8446 2 16.4362 16.4362 0
8933 2 16.4362 14.0882 2.34803
8965 2 16.4362 16.4362 2.34803
211 4 17.6102 15.2622 0
212 4 18.7843 14.0882 0
213 4 19.9583 15.2622 0
214 4 19.9583 14.0882 1.17402
215 4 18.7843 15.2622 1.17402
248 4 17.6102 16.4362 1.17402
727 4 17.6102 15.2622 2.34803
728 4 18.7843 14.0882 2.34803
729 4 19.9583 15.2622 2.34803
8418 2 17.6102 14.0882 1.17402
8419 2 18.7843 14.0882 0
8420 2 19.9583 14.0882 1.17402
8447 2 18.7843 16.4362 0
8934 2 17.6102 15.2622 2.34803
8936 2 19.9583 15.2622 2.34803
8966 2 18.7843 16.4362 2.34803
216 4 22.3063 15.2622 0
217 4 22.3063 14.0882 1.17402
218 4 23.4803 14.0882 0
251 4 21.1323 16.4362 0
252 4 23.4803 16.4362 0
731 4 21.1323 14.0882 2.34803
734 4 23.4803 14.0882 2.34803
765 4 21.1323 16.4362 2.34803
8421 2 21.1323 14.0882 0
8422 2 22.3063 15.2622 0
8423 2 22.3063 14.0882 1.17402
8424 2 23.4803 14.0882 0
8449 2 21.1323 16.4362 0
8450 2 22.3063 16.4362 1.17402
8451 2 23.4803 16.4362 0
8937 2 21.1323 14.0882 2.34803
8938 2 22.3063 15.2622 2.34803
8968 2 21.1323 16.4362 2.34803
219 4 24.6543 14.0882 1.17402
220 4 25.8283 14.0882 0
221 4 27.0024 15.2622 0
253 4 24.6543 16.4362 1.17402
735 4 24.6543 15.2622 2.34803
736 4 27.0024 15.2622 2.34803
769 4 25.8283 16.4362 2.34803
8425 2 24.6543 15.2622 0
8426 2 27.0024 15.2622 0
8427 2 25.8283 15.2622 1.17402
8453 2 24.6543 16.4362 1.17402
8454 2 25.8283 16.4362 0
8941 2 24.6543 15.2622 2.34803
8943 2 25.8283 14.0882 2.34803
222 4 29.3504 15.2622 0
223 4 29.3504 14.0882 1.17402
256 4 29.3504 16.4362 1.17402
739 4 28.1764 14.0882 2.34803
740 4 29.3504 15.2622 2.34803
8428 2 28.1764 15.2622 1.17402
8456 2 28.1764 16.4362 0
8944 2 29.3504 15.2622 2.34803
224 4 30.5244 14.0882 0
225 4 30.5244 15.2622 1.17402
226 4 32.8724 14.0882 0
228 4 32.8724 15.2622 1.17402
772 4 30.5244 16.4362 2.34803
8429 2 31.6984 14.0882 1.17402
8947 2 30.5244 14.0882 2.34803
8949 2 32.8724 14.0882 2.34803
227 4 34.0465 15.2622 0
229 4 36.3945 15.2622 0
259 4 36.3945 16.4362 1.17402
743 4 34.0465 15.2622 2.34803
745 4 36.3945 15.2622 2.34803
776 4 35.2205 16.4362 2.34803
8430 2 34.0465 15.2622 0
231 4 1.17402 17.6102 0
233 4 0 17.6102 1.17402
236 4 2.34803 17.6102 1.17402
260 4 0 18.7843 0
261 4 1.17402 19.9583 0
262 4 0 19.9583 1.17402
263 4 2.34803 18.7843 0
266 4 2.34803 19.9583 1.17402
748 4 1.17402 17.6102 2.34803
778 4 0 18.7843 2.34803
779 4 1.17402 19.9583 2.34803
781 4 2.34803 18.7843 2.34803
8432 2 1.17402 17.6102 0
8434 2 0 17.6102 1.17402
8463 2 1.17402 19.9583 0
8464 2 1.17402 18.7843 1.17402
8465 2 0 19.9583 1.17402
8466 2 2.34803 18.7843 0
8953 2 1.17402 17.6102 2.34803
8981 2 0 18.7843 2.34803
8984 2 2.34803 18.7843 2.34803
234 4 3.52205 17.6102 0
238 4 4.69606 17.6102 1.17402
264 4 3.52205 19.9583 0
265 4 3.52205 18.7843 1.17402
267 4 4.69606 18.7843 0
268 4 5.87008 18.7843 1.17402
752 4 5.87008 17.6102 2.34803
8435 2 3.52205 17.6102 0
8438 2 5.87008 17.6102 0
8440 2 4.69606 17.6102 1.17402
8467 2 4.69606 18.7843 0
8468 2 5.87008 19.9583 0
8469 2 5.87008 18.7843 1.17402
8954 2 3.52205 17.6102 2.34803
8985 2 3.52205 19.9583 2.34803
8986 2 4.69606 18.7843 2.34803
8987 2 5.87008 19.9583 2.34803
241 4 7.04409 17.6102 1.17402
244 4 9.39213 17.6102 1.17402
269 4 7.04409 18.7843 0
270 4 8.21811 19.9583 0
271 4 7.04409 19.9583 1.17402
272 4 9.39213 19.9583 1.17402
753 4 8.21811 17.6102 2.34803
785 4 9.39213 18.7843 2.34803
8470 2 7.04409 18.7843 0
8472 2 9.39213 19.9583 1.17402
8958 2 8.21811 17.6102 2.34803
8990 2 8.21811 19.9583 2.34803
8992 2 9.39213 18.7843 2.34803
242 4 10.5661 17.6102 0
273 4 12.9142 19.9583 0
274 4 12.9142 18.7843 1.17402
275 4 11.7402 19.9583 1.17402
756 4 10.5661 17.6102 2.34803
786 4 10.5661 19.9583 2.34803
788 4 11.7402 18.7843 2.34803
8442 2 12.9142 17.6102 0
8471 2 10.5661 18.7843 1.17402
8473 2 12.9142 19.9583 0
8963 2 12.9142 17.6102 2.34803
8994 2 12.9142 19.9583 2.34803
249 4 16.4362 17.6102 1.17402
276 4 15.2622 18.7843 1.17402
277 4 14.0882 19.9583 1.17402
278 4 16.4362 18.7843 0
279 4 16.4362 19.9583 1.17402
789 4 15.2622 19.9583 2.34803
792 4 16.4362 18.7843 2.34803
8444 2 15.2622 17.6102 0
8474 2 14.0882 18.7843 0
8997 2 16.4362 18.7843 2.34803
247 4 17.6102 17.6102 0
250 4 18.7843 17.6102 1.17402
280 4 18.7843 18.7843 0
281 4 19.9583 18.7843 1.17402
793 4 18.7843 18.7843 2.34803
8448 2 19.9583 17.6102 0
8475 2 18.7843 18.7843 0
8476 2 19.9583 19.9583 0
8477 2 19.9583 18.7843 1.17402
8998 2 17.6102 19.9583 2.34803
282 4 21.1323 18.7843 0
283 4 22.3063 19.9583 0
284 4 22.3063 18.7843 1.17402
285 4 23.4803 19.9583 1.17402
797 4 23.4803 18.7843 2.34803
8478 2 21.1323 18.7843 0
8479 2 22.3063 19.9583 0
8480 2 23.4803 18.7843 0
8483 2 23.4803 19.9583 1.17402
8969 2 22.3063 17.6102 2.34803
9000 2 21.1323 18.7843 2.34803
9003 2 23.4803 18.7843 2.34803
254 4 27.0024 17.6102 0
286 4 25.8283 18.7843 0
287 4 27.0024 19.9583 0
767 4 24.6543 17.6102 2.34803
798 4 25.8283 18.7843 2.34803
799 4 27.0024 19.9583 2.34803
8452 2 24.6543 17.6102 0
8455 2 25.8283 17.6102 1.17402
8481 2 24.6543 19.9583 0
8482 2 24.6543 18.7843 1.17402
8484 2 27.0024 18.7843 1.17402
8485 2 25.8283 19.9583 1.17402
8971 2 24.6543 17.6102 2.34803
8974 2 27.0024 17.6102 2.34803
9005 2 27.0024 19.9583 2.34803
255 4 29.3504 17.6102 0
288 4 29.3504 19.9583 0
289 4 29.3504 18.7843 1.17402
290 4 28.1764 19.9583 1.17402
801 4 29.3504 19.9583 2.34803
8457 2 29.3504 17.6102 0
8458 2 28.1764 17.6102 1.17402
8486 2 29.3504 19.9583 0
8487 2 29.3504 18.7843 1.17402
9007 2 28.1764 18.7843 2.34803
9008 2 29.3504 19.9583 2.34803
257 4 30.5244 17.6102 1.17402
773 4 31.6984 17.6102 2.34803
803 4 31.6984 19.9583 2.34803
8459 2 31.6984 17.6102 0
8461 2 32.8724 17.6102 1.17402
8488 2 31.6984 19.9583 0
8489 2 31.6984 18.7843 1.17402
8490 2 30.5244 19.9583 1.17402
8491 2 32.8724 18.7843 0
8976 2 31.6984 17.6102 2.34803
9009 2 31.6984 19.9583 2.34803
9011 2 32.8724 18.7843 2.34803
258 4 34.0465 17.6102 0
291 4 34.0465 18.7843 1.17402
292 4 36.3945 18.7843 1.17402
293 4 35.2205 19.9583 1.17402
777 4 36.3945 17.6102 2.34803
806 4 34.0465 19.9583 2.34803
808 4 35.2205 18.7843 2.34803
809 4 36.3945 19.9583 2.34803
8460 2 34.0465 17.6102 0
8462 2 36.3945 17.6102 0
8492 2 34.0465 19.9583 0
8493 2 36.3945 18.7843 1.17402
8494 2 35.2205 19.9583 1.17402
8980 2 36.3945 17.6102 2.34803
294 4 1.17402 22.3063 0
295 4 2.34803 21.1323 0
323 4 1.17402 23.4803 1.17402
324 4 2.34803 23.4803 0
811 4 2.34803 21.1323 2.34803
843 4 0 23.4803 2.34803
846 4 2.34803 23.4803 2.34803
8495 2 0 21.1323 0
8496 2 1.17402 22.3063 0
8528 2 0 23.4803 0
9014 2 0 21.1323 2.34803
296 4 3.52205 22.3063 0
297 4 5.87008 21.1323 1.17402
325 4 3.52205 23.4803 1.17402
326 4 5.87008 23.4803 1.17402
812 4 3.52205 22.3063 2.34803
814 4 4.69606 21.1323 2.34803
8497 2 3.52205 22.3063 0
8498 2 3.52205 21.1323 1.17402
8499 2 4.69606 21.1323 0
8500 2 4.69606 22.3063 1.17402
8532 2 4.69606 23.4803 0
9015 2 3.52205 22.3063 2.34803
9049 2 4.69606 23.4803 2.34803
298 4 8.21811 22.3063 0
299 4 8.21811 21.1323 1.17402
300 4 7.04409 22.3063 1.17402
301 4 9.39213 21.1323 0
328 4 8.21811 23.4803 1.17402
329 4 9.39213 23.4803 0
817 4 7.04409 21.1323 2.34803
852 4 9.39213 23.4803 2.34803
8501 2 8.21811 22.3063 0
8502 2 8.21811 21.1323 1.17402
8503 2 7.04409 22.3063 1.17402
8504 2 9.39213 21.1323 0
8507 2 9.39213 22.3063 1.17402
9018 2 8.21811 22.3063 2.34803
9019 2 9.39213 21.1323 2.34803
9053 2 7.04409 23.4803 2.34803
9055 2 9.39213 23.4803 2.34803
302 4 10.5661 21.1323 1.17402
303 4 12.9142 22.3063 0
304 4 11.7402 22.3063 1.17402
332 4 11.7402 23.4803 0
819 4 11.7402 21.1323 2.34803
820 4 12.9142 22.3063 2.34803
856 4 11.7402 23.4803 2.34803
8505 2 10.5661 22.3063 0
8506 2 10.5661 21.1323 1.17402
8508 2 11.7402 21.1323 0
8509 2 12.9142 22.3063 0
8536 2 10.5661 23.4803 1.17402
8537 2 11.7402 23.4803 0
8538 2 12.9142 23.4803 1.17402
9020 2 10.5661 22.3063 2.34803
305 4 15.2622 22.3063 0
306 4 15.2622 21.1323 1.17402
334 4 14.0882 23.4803 0
823 4 14.0882 21.1323 2.34803
825 4 16.4362 21.1323 2.34803
860 4 16.4362 23.4803 2.34803
8510 2 14.0882 21.1323 0
8511 2 15.2622 22.3063 0
8512 2 14.0882 22.3063 1.17402
8513 2 16.4362 21.1323 0
8540 2 14.0882 23.4803 0
8542 2 15.2622 23.4803 1.17402
9023 2 16.4362 21.1323 2.34803
9063 2 16.4362 23.4803 2.34803
307 4 17.6102 22.3063 0
308 4 18.7843 21.1323 0
309 4 19.9583 22.3063 0
338 4 17.6102 23.4803 1.17402
339 4 18.7843 23.4803 0
341 4 19.9583 23.4803 1.17402
826 4 17.6102 22.3063 2.34803
8514 2 19.9583 22.3063 0
8515 2 19.9583 21.1323 1.17402
8516 2 18.7843 22.3063 1.17402
8545 2 17.6102 23.4803 1.17402
8546 2 18.7843 23.4803 0
8548 2 19.9583 23.4803 1.17402
9024 2 17.6102 22.3063 2.34803
9027 2 18.7843 21.1323 2.34803
9028 2 19.9583 22.3063 2.34803
312 4 23.4803 22.3063 1.17402
343 4 21.1323 23.4803 0
345 4 22.3063 23.4803 1.17402
346 4 23.4803 23.4803 0
828 4 21.1323 21.1323 2.34803
830 4 23.4803 21.1323 2.34803
866 4 23.4803 23.4803 2.34803
8517 2 22.3063 22.3063 0
8518 2 21.1323 22.3063 1.17402
8519 2 23.4803 21.1323 0
8521 2 23.4803 22.3063 1.17402
8550 2 22.3063 23.4803 1.17402
9030 2 23.4803 21.1323 2.34803
310 4 24.6543 22.3063 0
311 4 24.6543 21.1323 1.17402
313 4 27.0024 22.3063 0
347 4 25.8283 23.4803 0
832 4 25.8283 21.1323 2.34803
833 4 27.0024 22.3063 2.34803
870 4 25.8283 23.4803 2.34803
8520 2 24.6543 21.1323 1.17402
8522 2 27.0024 22.3063 0
8552 2 24.6543 23.4803 1.17402
9031 2 24.6543 22.3063 2.34803
9069 2 25.8283 23.4803 2.34803
314 4 28.1764 21.1323 0
315 4 29.3504 22.3063 0
348 4 28.1764 23.4803 0
349 4 29.3504 23.4803 1.17402
834 4 29.3504 22.3063 2.34803
8523 2 28.1764 21.1323 0
9035 2 28.1764 21.1323 2.34803
316 4 30.5244 21.1323 0
317 4 31.6984 22.3063 0
318 4 31.6984 21.1323 1.17402
319 4 30.5244 22.3063 1.17402
320 4 32.8724 21.1323 0
352 4 32.8724 23.4803 0
837 4 30.5244 21.1323 2.34803
838 4 31.6984 22.3063 2.34803
8524 2 31.6984 22.3063 0
8525 2 32.8724 21.1323 0
8556 2 30.5244 23.4803 0
8557 2 31.6984 23.4803 1.17402
9038 2 30.5244 21.1323 2.34803
9076 2 30.5244 23.4803 2.34803
321 4 36.3945 22.3063 0
354 4 34.0465 23.4803 1.17402
841 4 36.3945 22.3063 2.34803
874 4 35.2205 23.4803 2.34803
8526 2 34.0465 21.1323 1.17402
8527 2 36.3945 22.3063 0
9040 2 34.0465 22.3063 2.34803
9042 2 35.2205 21.1323 2.34803
9043 2 36.3945 22.3063 2.34803
9080 2 35.2205 23.4803 2.34803
322 4 1.17402 24.6543 0
357 4 0 25.8283 0
358 4 1.17402 27.0024 0
359 4 1.17402 25.8283 1.17402
360 4 0 27.0024 1.17402
361 4 2.34803 25.8283 0
362 4 2.34803 27.0024 1.17402
844 4 1.17402 24.6543 2.34803
876 4 0 25.8283 2.34803
879 4 2.34803 25.8283 2.34803
8529 2 0 24.6543 1.17402
8531 2 2.34803 24.6543 1.17402
8561 2 0 25.8283 0
8562 2 1.17402 25.8283 1.17402
8563 2 2.34803 25.8283 0
9045 2 1.17402 24.6543 2.34803
9082 2 1.17402 27.0024 2.34803
327 4 4.69606 24.6543 1.17402
363 4 4.69606 25.8283 0
364 4 5.87008 25.8283 1.17402
849 4 5.87008 24.6543 2.34803
8530 2 3.52205 24.6543 0
8533 2 5.87008 24.6543 0
8564 2 3.52205 25.8283 1.17402
8565 2 4.69606 25.8283 0
8566 2 5.87008 25.8283 1.17402
8567 2 4.69606 27.0024 1.17402
9046 2 3.52205 24.6543 2.34803
9050 2 5.87008 24.6543 2.34803
9084 2 3.52205 27.0024 2.34803
9085 2 4.69606 25.8283 2.34803
9086 2 5.87008 27.0024 2.34803
331 4 9.39213 24.6543 1.17402
365 4 7.04409 25.8283 0
366 4 8.21811 25.8283 1.17402
367 4 7.04409 27.0024 1.17402
851 4 8.21811 24.6543 2.34803
882 4 7.04409 25.8283 2.34803
883 4 8.21811 27.0024 2.34803