ITEM: TIMESTEP
0
ITEM: NUMBER OF ATOMS
50688
ITEM: BOX BOUNDS xy xz yz pp pp pp
-40.1340523 46.7921028 6.6580572
-43.8030052 43.8030052 0.0
-43.7915344 43.7915344 0.0
ITEM: ATOMS id type x y z VoronoiIndex1 VoronoiIndex2 VoronoiIndex3 VoronoiIndex4 VoronoiIndex5 VoronoiIndex6 VoronoiIndex7 VoronoiIndex8 VoronoiIndex9 AtomicVolume
2 2 -12.6000004 -19.8500004 -9.8690004 0 0 0 1 10 1 1 0 0 12.3999949
4 2 -29.2000008 -20.7099991 -19.6000004 0 0 0 0 12 0 0 0 0 11.6393996
15 4 -6.605 -26.6000004 -21.4699993 0 0 0 1 10 2 0 0 0 11.9029628
23 2 -15.0799999 -31.7299996 -14.0299997 0 0 0 1 10 2 0 0 0 12.4025774
32 5 -36.6100006 -21.9899998 -35.6399994 0 0 0 2 8 5 0 0 0 12.8684808
33 1 -12.9899998 -5.5819998 -26.9699994 0 0 0 0 12 0 0 0 0 11.0085602
39 4 -21.5300007 -34.2299996 -41.8499986 0 0 0 0 12 3 0 0 0 13.2537222
45 4 -3.3810001 -15.1800003 -15.6700001 0 0 0 0 12 0 0 0 0 11.0903244
46 4 -28.5499993 -11.6499996 -42.9300004 0 0 0 1 10 2 0 0 0 12.1596394
68 4 -12.5299998 -9.757 -9.6129999 0 0 1 1 8 3 1 0 0 12.163249
88 5 -30.8299999 -30.7299996 -0.5414 0 0 0 1 10 2 0 0 0 11.7412453
90 4 -11.3000002 -43.3199997 -35.6599999 0 0 1 3 5 7 0 0 0 12.0365353
93 2 -33.3699989 -19.2299996 -25.7099991 0 0 0 3 6 4 0 0 0 11.6543045
97 5 -21.8799992 -8.7019997 -0.5459 0 0 2 2 5 4 1 0 0 12.380127
106 4 -10.6499996 -32.4399987 -2.751 0 0 0 1 10 2 0 0 0 11.3200922
109 4 -32.3600006 -9.9020004 -26.4300003 0 0 0 1 12 3 0 0 0 13.7662373
114 2 -8.4209996 -40.3800011 -6.857 0 0 0 4 8 1 0 0 0 11.3373337
119 4 -33.2200012 -22.2099991 -19.1800003 0 0 0 0 12 2 0 0 0 12.7819567
141 4 -20.0900002 -10.6999998 -40.0499992 0 0 0 2 8 5 0 0 0 11.8641748
162 4 -3.2980001 -14.1300001 -34.4000015 0 0 0 0 12 2 0 0 0 12.218812
164 1 -6.4770003 -8.2069998 -40.3800011 0 0 0 1 10 2 0 0 0 11.93954
199 1 -5.402 -31.5 -27.3999996 0 0 0 5 6 2 0 0 0 12.6373425
211 2 -35.5999985 -24.5799999 -37.3600006 0 0 0 2 8 3 0 0 0 11.5401879
227 4 -16.7999993 -6.6170001 -28.6800003 0 0 0 0 12 3 0 0 0 13.1809387
237 2 -12.1199999 -38.2999992 -34.1399994 0 0 0 3 8 2 0 0 0 11.5022116
254 4 -5.711 -26.0300007 -4.421 0 0 0 4 4 6 0 0 0 11.5753165
258 2 -5.4250002 -37.4199982 -42.0099983 0 0 0 4 5 4 1 0 0 12.0840216
265 5 -33.5600014 -21.6800003 -25.5499993 0 0 0 4 4 7 0 0 0 13.1437178
275 5 -33.9399986 -21.2700005 -32.2099991 0 0 1 4 5 5 0 0 0 12.417038
286 3 -12.4899998 -33.3100014 -23.2099991 0 0 1 2 8 3 1 0 0 12.3744984
290 4 -38.0499992 -42.5299988 -3.244 0 0 0 3 6 6 0 0 0 12.5801087
293 5 -19.2800007 -8.8389998 -43.4799996 0 0 0 4 6 3 0 0 0 12.2237206
297 5 -19.2600002 -8.349 -20.3999996 0 0 0 2 8 4 0 0 0 11.939908
326 4 -23.3899994 -23.2800007 -9.8640004 0 0 0 3 6 4 0 0 0 13.0293722
329 2 -38.0099983 -25.8799992 -7.987 0 0 0 2 8 2 0 0 0 11.6611605
338 5 -24.1100006 -33.6399994 -30.2399998 0 0 0 3 6 4 0 0 0 12.2309246
349 4 -22.7600003 -42.2999992 -16.5499993 0 0 0 2 8 5 0 0 0 12.2211332
350 4 -33.2200012 -14.25 -37.2900009 0 0 0 1 10 3 0 0 0 12.4056158
364 4 -4.6469999 -21.8400002 -42.0 0 0 0 3 6 7 0 0 0 13.0472031
387 3 -15.9300004 -23.4300003 -33.4099999 0 0 0 1 10 3 0 0 0 12.6994591
397 1 -6.9580002 -27.6900006 -26.6800003 0 0 0 2 10 0 0 0 0 11.2181864
403 4 -33.5099983 -33.1500015 -14.9700004 0 0 0 3 6 3 0 0 0 11.643775
414 4 -11.5699997 -0.9502 -7.5390001 0 0 0 0 12 2 0 0 0 11.997656
415 4 -13.2700005 -3.1400001 -27.2900009 0 0 0 1 10 4 0 0 0 12.9318972
423 2 -28.6399994 -13.0600004 -26.1499996 0 0 0 0 10 2 0 0 0 11.9052154
424 3 -20.4200001 -37.5800019 -30.2900009 0 0 0 2 8 5 0 0 0 12.624012
440 2 -9.5790005 -31.3700009 -36.3600006 0 0 0 3 6 4 0 0 0 12.0895634
458 1 -34.5999985 -28.1299992 -38.7900009 0 0 0 0 12 0 0 0 0 10.8092232
461 2 -20.8600006 -0.6271 -6.3350001 0 0 0 2 8 3 0 0 0 11.7158518
463 3 -36.4099999 -3.915 -14.1199999 0 0 1 0 10 3 1 0 0 12.6943226
469 2 -7.164 -15.8299999 -6.8449998 0 0 0 3 6 4 0 0 0 11.5791588
477 2 -18.1599999 -18.7600003 -26.2199993 0 0 0 2 8 4 0 0 0 12.3210888
478 5 -12.5100003 -10.0900002 -32.2599983 0 0 0 2 8 5 0 0 0 12.6956129
483 4 -9.8059998 -6.8150001 -30.6800003 0 0 0 2 10 0 0 0 0 11.1693125
485 4 -14.9300004 -17.2999992 -4.2220001 0 0 0 0 12 2 0 0 0 12.631506
495 4 -32.0400009 -25.0699997 -1.856 0 0 0 1 10 2 0 0 0 11.2236252
508 4 -21.1100006 -23.5 -14.3900004 0 0 0 1 10 4 0 0 0 13.2877083
511 4 -19.9099998 -24.4599991 -36.4099999 0 0 0 3 6 5 0 0 0 12.8152619
514 2 -14.1099997 -25.1299992 -39.4900017 0 0 2 2 6 5 0 0 0 12.0429688
537 5 -19.5400009 -19.5300007 -13.8500004 0 0 0 2 10 3 0 0 0 12.2744742
544 3 -30.6900006 -12.6099997 -39.2099991 0 0 0 2 8 3 0 0 0 12.0041714
546 2 -15.8999996 -13.0799999 -33.5900002 0 0 1 2 7 3 0 0 0 11.5880528
553 4 -31.3700009 -27.5 -5.4109998 0 0 0 0 12 2 0 0 0 12.1748982
554 5 -18.0 -39.2299996 -18.5900002 0 0 0 1 10 2 0 0 0 11.1580181
567 2 -7.6900001 -43.0200005 -18.1499996 0 0 0 3 6 5 0 0 0 12.3244238
574 4 -29.8899994 -23.4699993 -16.4200001 0 0 0 1 10 4 0 0 0 13.0410566
579 5 -18.2000008 -26.4099999 -25.1299992 0 0 1 3 4 4 1 0 0 11.9122096
621 2 -27.4699993 -32.6699982 -7.1770001 0 0 0 3 8 2 0 0 0 11.9010812
639 5 -36.4900017 -11.9799996 -28.8400002 0 0 0 4 4 7 0 0 0 12.4179382
644 2 -14.3500004 -8.3859997 -20.7600003 0 0 0 0 12 0 0 0 0 10.9349824
670 4 -25.1399994 -19.3199997 -40.619999 0 0 0 2 10 1 0 0 0 12.143219
690 2 -17.5200005 -32.8300019 -36.7000008 0 0 0 2 8 2 0 0 0 11.5711413
691 5 -37.5400009 -9.8859998 -40.6399994 0 0 1 3 9 1 0 0 0 12.2422247
699 4 -5.5809999 -22.5799999 -27.4699993 0 0 0 2 10 3 0 0 0 13.3587065
701 5 -16.4300003 -32.1199989 -2.975 0 0 0 3 8 3 0 0 0 12.4639826
702 5 -6.1929998 -34.8400002 -13.9799996 0 0 0 0 12 0 0 0 0 11.2113924
718 4 -20.7800007 -13.9399996 -30.8199997 0 0 0 1 10 4 0 0 0 12.4215527
733 4 -16.4400006 -20.1800003 -25.3600006 0 0 0 2 8 5 0 0 0 12.8837024
740 2 -33.1500015 -37.3300018 -42.0800018 0 0 0 0 12 0 0 0 0 11.5346203
766 4 -28.5200005 -11.7799998 -12.8599998 0 0 1 2 9 2 0 0 0 11.4597845
773 2 -13.1300001 -26.3999996 -30.2099991 0 0 0 1 10 2 0 0 0 10.977109
779 5 -10.5100003 -34.7999993 -18.7099991 0 0 0 3 6 6 0 0 0 12.2093048
800 2 -35.8800012 -37.3100014 -19.6599999 0 0 1 1 8 3 1 0 0 11.6089211
804 2 -8.4619999 -1.513 -39.9700012 0 0 0 3 8 2 0 0 0 12.3142815
824 5 -25.3299999 -22.5599995 -2.0829999 0 0 0 2 8 5 0 0 0 12.3071547
833 4 -37.2700005 -18.7800007 -35.9399986 0 0 1 3 6 2 1 0 0 11.9997226
839 2 -23.75 -41.1199989 -2.132 0 0 0 3 8 3 0 0 0 12.2930508
853 4 -31.7099991 -8.2580004 -28.7800007 0 0 1 1 8 3 1 0 0 12.2090607
857 5 -27.7600003 -14.6700001 -17.5 0 0 0 1 10 3 0 0 0 12.6513663
858 4 -23.7399998 -9.9639998 -4.2129998 0 0 0 1 10 4 0 0 0 13.0151348
907 5 -23.5200005 -27.0900002 -43.5499993 0 0 0 1 10 4 0 0 0 12.6001969
912 5 -20.6499996 -42.9399986 -39.2900009 0 0 0 0 12 0 0 0 0 11.3626375
913 1 -11.8800002 -10.5200005 -23.5100003 0 0 0 2 10 0 0 0 0 11.7265253
918 4 -13.54 -18.8600006 -33.9799996 0 0 0 1 10 3 0 0 0 12.371686
919 5 -3.629 -15.0100002 -9.4130001 0 0 1 2 7 6 0 0 0 13.581831
927 5 -15.3400002 -25.2600002 -29.4599991 0 0 0 0 12 3 0 0 0 12.7945719
934 4 -21.1900005 -7.7080002 -27.0300007 0 0 0 0 12 0 0 0 0 11.3117294
935 2 -26.7800007 -5.7230001 -25.9799996 0 0 0 2 8 2 0 0 0 11.5596733
939 2 -37.7400017 -36.75 -31.1100006 0 0 0 2 8 2 0 0 0 11.5602141
949 2 -23.7399998 -5.3330002 -32.2299996 0 0 0 2 9 1 1 0 0 12.3703413
959 4 -19.8299999 -24.8799992 -9.1239996 0 0 0 1 12 2 0 0 0 12.7602577
961 2 -15.6899996 -40.5900002 -41.4500008 0 0 1 0 11 1 0 0 0 12.0265217
969 2 -31.7000008 -9.5780001 -12.04 0 0 0 3 6 4 0 0 0 11.781476
979 2 -7.8909998 -14.1899996 -20.1100006 0 0 1 2 5 4 0 0 0 11.186183
990 5 -23.8600006 -24.5499993 -42.4399987 0 0 1 3 7 1 2 0 0 11.8670808
1001 4 -8.2489996 -20.6700001 -23.9599992 0 0 1 2 9 3 0 0 0 13.4960909
1015 5 -37.7900009 -39.0800018 -14.0 0 0 0 2 8 4 0 0 0 13.1154614
1033 2 -22.4500008 -34.1100006 -11.0299997 0 0 0 1 10 2 0 0 0 11.3389006
1051 4 -15.4099999 -15.6400004 -18.2900009 0 0 0 2 10 1 0 0 0 11.6952076
1064 5 -4.6620002 -19.9400006 -31.3400002 0 0 1 3 5 5 0 0 0 12.1000128
1065 2 -8.9799996 -19.3999996 -8.4639998 0 0 0 1 10 2 0 0 0 11.6318217
1075 4 -34.4199982 -1.583 -34.9300004 0 0 0 4 6 2 0 0 0 11.8123799
1086 1 -14.9200002 -38.8800012 -24.1499996 0 0 0 1 10 2 0 0 0 11.6338206
1089 3 -26.7199993 -32.8199997 -38.2099991 0 0 0 1 10 4 0 0 0 12.5496235
1102 1 -10.3100004 -36.7900009 -37.5800019 0 0 0 0 12 0 0 0 0 11.3304443
1110 2 -22.8999996 -21.3799992 -5.4930001 0 0 1 3 7 3 0 0 0 12.3413143
1111 5 -34.5900002 -5.4850002 -5.9380002 0 0 0 1 10 2 0 0 0 11.4278479
1122 4 -18.3600006 -23.6800003 -15.4200001 0 0 0 2 8 4 0 0 0 12.3327761
1131 2 -5.81 -2.935 -21.0 0 0 0 3 6 4 0 0 0 12.66187
1133 2 -8.9469996 -42.619999 -7.9860002 0 0 0 4 6 3 0 0 0 11.1268587
1138 4 -32.1199989 -28.7700005 -0.4577 0 0 0 2 8 4 0 0 0 12.0369673
1152 1 -29.8899994 -32.8800012 -0.2266 0 0 0 0 12 0 0 0 0 10.5133982
1163 2 -33.0 -18.9799996 -12.1800003 0 0 1 2 5 5 0 0 0 11.5003271
1166 5 -22.7700005 -28.6800003 -9.8409996 0 0 1 1 7 5 0 0 0 12.6126805
1170 2 -7.9829998 -4.3350001 -16.6000004 0 0 2 2 5 3 1 0 0 12.0582991
1178 1 -23.8500004 -34.2299996 -6.1420002 0 0 1 2 5 5 0 0 0 11.4717541
1195 5 -11.6199999 -39.4700012 -9.2069998 0 0 1 2 7 3 0 0 0 12.177043
1198 5 -7.2259998 -34.8899994 -38.3800011 0 0 0 1 10 2 0 0 0 11.7907152
1209 2 -11.9099998 -5.73 -9.5279999 0 0 0 1 10 2 0 0 0 11.685339
1211 5 -26.4200001 -23.1100006 -21.0300007 0 0 0 0 12 0 0 0 0 11.4674187
1219 5 -24.6700001 -32.7900009 -39.5099983 0 0 0 1 10 2 0 0 0 12.0950747
1237 2 -38.9900018 -42.0900002 -8.6149998 0 0 0 2 8 1 0 0 0 10.7893467
1238 4 -35.8600006 -32.2599983 -39.0999985 0 0 0 2 8 7 0 0 0 14.2891188
1239 2 -18.7199993 -10.4399996 -19.6000004 0 0 0 0 12 0 0 0 0 11.1000404
1251 4 -36.9399986 -31.6700001 -7.421 0 0 1 0 13 2 0 0 0 13.2197075
1256 4 -13.96 -6.138 -8.3509998 0 0 0 1 12 2 0 0 0 13.3337984
1259 2 -34.8600006 -43.6599999 -15.8400002 0 0 0 0 12 0 0 0 0 11.0904455
1262 4 -28.5699997 -21.8700008 -14.8400002 0 0 0 2 8 4 0 0 0 12.2416439
1280 4 -35.9199982 -27.5599995 -32.2200012 0 0 0 0 12 2 0 0 0 11.9877958
1286 5 -5.803 -11.2399998 -36.5200005 0 0 0 2 8 5 0 0 0 12.4051867
1289 2 -6.9130002 -10.6800003 -23.1499996 0 0 0 1 10 2 0 0 0 11.9882994
1299 2 -6.915 -15.9399996 -40.3499985 0 0 0 0 12 0 0 0 0 11.3315191
1303 4 -12.2600002 -20.6399994 -35.4199982 0 0 0 0 12 0 0 0 0 10.9212256
1304 5 -10.54 -18.6100006 -15.6099997 0 0 0 1 10 2 0 0 0 11.5240164
1315 2 -36.7799988 -34.2400017 -42.9199982 0 0 0 0 12 0 0 0 0 11.0102434
1319 2 -19.5599995 -28.3500004 -1.3020001 0 0 1 1 9 3 0 0 0 11.3986254
1336 4 -8.8190003 -5.0949998 -23.5200005 0 0 0 1 10 4 0 0 0 12.887578
1337 4 -14.1599999 -19.9500008 -36.6100006 0 0 0 1 10 2 0 0 0 11.5593462
1340 2 -26.4400006 -23.9300004 -38.8499986 0 0 1 3 4 5 1 0 0 12.2828999
1342 2 -36.0099983 -31.9500008 -32.7400017 0 0 0 0 12 3 0 0 0 12.5927353
1343 2 -22.9799996 -4.6199999 -34.8899994 0 0 0 2 8 4 0 0 0 12.0891352
1352 5 -10.9700004 -15.3299999 -42.5699997 0 0 1 0 9 3 0 0 0 11.292778
1372 2 -16.7099991 -23.4400006 -28.7099991 0 0 1 3 5 5 0 0 0 12.197753
1399 4 -36.4799996 -17.3999996 -2.0940001 0 0 0 3 6 4 0 0 0 11.1970825
1407 5 -34.2200012 -6.6100002 -24.8700008 0 0 0 0 12 0 0 0 0 11.0558376
1408 1 -19.3600006 -34.7599983 -7.9860002 0 0 0 1 10 2 0 0 0 11.0462217
1414 2 -30.0699997 -19.0 -31.1100006 0 0 0 2 8 2 0 0 0 11.5093165
1419 2 -32.4900017 -43.6599999 -15.54 0 0 1 0 11 1 0 0 0 11.4532528
1421 2 -16.3600006 -36.2099991 -33.0800018 0 0 0 3 6 5 0 0 0 11.8200493
1437 4 -36.7200012 -19.5499993 -20.2199993 0 0 0 1 10 4 0 0 0 12.3898859
1495 5 -14.1400003 -23.2299996 -6.7659998 0 0 0 2 10 2 0 0 0 12.8506536
1502 4 -4.527 -13.2299996 -38.3499985 0 0 0 3 6 5 0 0 0 12.4480133
1505 2 -25.4899998 -18.9799996 -43.0299988 0 0 0 2 10 0 0 0 0 11.5721674
1521 5 -14.3199997 -24.7099991 -3.0409999 0 0 0 5 6 2 0 0 0 11.7624493
1526 4 -15.6800003 -9.0620003 -35.2400017 0 0 1 0 11 3 0 0 0 12.4851961
1527 5 -15.8999996 -40.4900017 -35.5999985 0 0 2 4 4 2 2 0 0 11.9476862
1529 2 -12.6199999 -37.0999985 -26.4099999 0 0 0 3 6 3 0 0 0 12.072052
1539 5 -29.3999996 -1.426 -30.3899994 0 0 0 4 6 4 0 0 0 11.7323599
1541 5 -34.8400002 -24.2800007 -43.6599999 0 0 0 1 10 4 0 0 0 12.5170555
1546 4 -9.3050003 -42.1199989 -38.4099999 0 0 2 2 5 5 1 0 0 12.2938757
1552 4 -33.2299996 -40.7000008 -29.5799999 0 0 0 3 8 3 0 0 0 12.3134222
1555 2 -12.8500004 -19.2800007 -41.9599992 0 0 0 1 10 2 0 0 0 11.9502288
1566 5 -5.704 -7.8920002 -18.4200001 0 0 0 1 10 3 0 0 0 12.8386336
1585 4 -33.7700005 -27.8600006 -6.1830001 0 0 0 3 8 4 0 0 0 12.4505892
1593 2 -22.6399994 -3.662 -29.3299999 0 0 0 1 10 2 0 0 0 11.6377211
1595 4 -36.3899994 -16.9799996 -28.5699997 0 0 0 4 5 4 1 0 0 12.442688
1597 5 -5.0970001 -17.6499996 -6.0009999 0 0 0 2 8 5 0 0 0 13.0270977
1611 5 -14.9099998 -7.9180002 -0.3746 0 0 0 1 10 2 0 0 0 11.5635462
1617 4 -17.8299999 -2.4990001 -38.3800011 0 0 1 1 8 3 1 0 0 11.6174031
1625 2 -36.4700012 -34.9900018 -29.6000004 0 0 0 2 7 1 1 0 0 11.7612381
1626 2 -16.5400009 -35.8199997 -27.8199997 0 0 0 0 12 0 0 0 0 10.7681818
1651 2 -2.5060001 -2.165 -6.5250001 0 0 0 4 6 2 0 0 0 11.7075682
1656 4 -8.9209996 -3.993 -18.9300004 0 0 0 2 8 4 0 0 0 12.2997761
1658 4 -35.9799996 -14.8999996 -6.264 0 0 0 0 12 2 0 0 0 12.0953741
1660 4 -31.8799992 -5.56 -25.7399998 0 0 0 0 12 2 0 0 0 12.4940863
1670 2 -22.5100003 -22.8500004 -24.4300003 0 0 0 4 8 2 0 0 0 12.4262905
1683 4 -26.5400009 -15.7100001 -38.7900009 0 0 0 1 9 2 1 0 0 12.0744906
1686 5 -9.0780001 -17.4400006 -26.4899998 0 0 0 1 10 2 0 0 0 12.1393919
1687 2 -20.6900006 -29.2800007 -30.5799999 0 0 2 2 5 4 1 0 0 11.3608046
1707 4 -15.0299997 -30.1800003 -3.316 0 0 0 0 12 0 0 0 0 11.756074
1727 5 -17.9799996 -9.7810002 -15.5900002 0 0 1 2 9 1 0 0 0 11.4334698
1733 4 -6.8150001 -26.9099998 -29.2099991 0 0 1 3 5 5 0 0 0 12.397357
1741 3 -21.4899998 -36.9399986 -37.0200005 0 0 0 4 6 4 0 0 0 12.1931772
1749 5 -34.0 -24.4699993 -29.6900006 0 0 1 3 7 4 0 0 0 13.1063795
1755 2 -35.5800019 -8.9490004 -21.0200005 0 0 0 3 6 4 0 0 0 11.7851334
1759 1 -15.5 -20.75 -6.4850002 0 0 0 1 10 2 0 0 0 11.7652493
1771 5 -16.8899994 -13.6400004 -14.2600002 0 0 0 1 10 2 0 0 0 11.6895104
1772 2 -16.6499996 -10.5299998 -4.936 0 0 0 3 8 0 0 0 0 11.7807112
1786 2 -9.3120003 -18.7900009 -1.52 0 0 1 2 6 3 1 0 0 11.359128
1795 2 -8.7110005 -8.8809996 -11.75 0 0 0 1 10 2 0 0 0 11.5691929
1796 4 -25.1800003 -4.4190002 -36.5600014 0 0 0 1 10 3 0 0 0 12.4350252
1798 5 -26.8400002 -21.25 -28.6800003 0 0 0 4 4 5 0 0 0 11.7892943
1804 5 -33.7900009 -14.6800003 -32.5900002 0 0 0 3 8 4 0 0 0 12.9993278
1810 2 -24.3400002 -39.9599992 -31.6000004 0 0 0 0 12 0 0 0 0 11.3922539
1826 4 -39.3499985 -39.2999992 -12.0600004 0 0 0 2 8 4 0 0 0 12.7428208
1834 1 -10.7100001 -27.4799996 -15.8800002 0 0 1 4 4 3 1 0 0 11.4973984
1835 2 -12.3900004 -2.998 -15.5 0 0 1 2 7 4 0 0 0 12.2063971
1844 2 -26.9500008 -42.1800003 -29.7000008 0 0 0 3 6 3 0 0 0 11.1632185
1849 5 -6.4980002 -32.4000015 -9.5909996 0 0 0 4 5 3 1 0 0 11.9692584
1850 4 -26.2399998 -27.3400002 -19.5100003 0 0 0 2 10 2 0 0 0 12.7605229
1870 5 -10.3199997 -30.5400009 -25.9500008 0 0 0 0 12 2 0 0 0 12.5111428
1876 4 -31.3999996 -28.9400006 -35.7999993 0 0 0 0 12 3 0 0 0 12.6961851
1893 4 -26.7800007 -7.1279998 -20.0 0 0 0 0 12 4 0 0 0 13.3426991
1908 2 -34.2999992 -8.9519998 -25.0400009 0 0 0 0 12 0 0 0 0 11.5615702
1914 2 -26.5200005 -6.56 -36.0400009 0 0 0 0 12 0 0 0 0 10.8189087
1919 4 -7.783 -12.0 -2.0109999 0 0 0 1 10 4 0 0 0 12.1480417
1923 4 -7.9380002 -7.6100002 -9.8339997 0 0 1 3 5 6 0 0 0 12.5818501
1927 2 -36.0200005 -27.8700008 -34.9799996 0 0 1 1 9 4 0 0 0 12.2424727
1928 2 -31.0 -11.9200002 -12.25 0 0 0 4 4 6 0 0 0 11.3846321
1934 3 -25.6200009 -20.5599995 -21.7900009 0 0 0 2 10 2 0 0 0 13.0193205
1937 4 -32.9000016 -41.1899986 -24.6100006 0 0 0 3 7 4 1 0 0 12.6489887
1955 5 -20.1399994 -7.6609998 -8.6540003 0 0 0 4 6 5 0 0 0 12.8645068
1958 5 -28.4599991 -0.9975 -11.0600004 0 0 0 0 12 0 0 0 0 10.6640501
1960 4 -25.6299992 -35.2700005 -16.2999992 0 0 0 1 10 3 0 0 0 13.0518494
1967 4 -14.0100002 -9.6040001 -29.8799992 0 0 0 1 10 2 0 0 0 11.9808456
1980 2 -10.6999998 -14.04 -39.1899986 0 0 0 2 8 2 0 0 0 11.1509714
2006 4 -19.5 -40.4700012 -38.2099991 0 0 0 3 8 4 0 0 0 12.6385832
2013 4 -13.3400002 -13.5799999 -1.64 0 0 0 2 8 7 0 0 0 13.2694197
2014 4 -10.4600001 -42.7200012 -9.8240004 0 0 0 3 6 3 0 0 0 11.7089653
2021 5 -35.7000008 -20.2999992 -41.9700012 0 0 0 1 10 4 0 0 0 13.8444854
2034 4 -27.0 -30.3400002 -39.3800011 0 0 0 4 4 6 0 0 0 11.2408009
2062 4 -28.1700001 -33.4199982 -21.4300003 0 0 0 1 10 2 0 0 0 11.689766
2079 4 -5.7100001 -11.4700003 -30.1399994 0 0 0 3 6 6 0 0 0 12.2082214
2085 4 -12.8299999 -38.8300019 -28.1200008 0 0 0 2 8 5 0 0 0 13.3674832
2108 1 -23.0900002 -15.9399996 -0.2761 0 0 0 4 8 0 0 0 0 10.9652414
2110 1 -9.3439999 -19.5400009 -32.5299988 0 0 0 3 8 2 0 0 0 11.4044724
2113 1 -35.8800012 -3.935 -31.4200001 0 0 0 0 12 0 0 0 0 11.0585442
2118 5 -7.25 -15.29 -22.0799999 0 0 0 2 8 5 0 0 0 12.3858729
2133 1 -14.9499998 -42.6399994 -42.4799996 0 0 0 0 12 0 0 0 0 10.858777
2147 4 -36.869999 -13.9899998 -20.0499992 0 0 0 0 12 2 0 0 0 11.8286524
2149 4 -13.29 -28.9699994 -37.0900002 0 0 0 1 10 2 0 0 0 11.6917162
2161 2 -12.8999996 -33.7200012 -8.6300001 0 0 0 2 8 2 0 0 0 11.8102484
2195 2 -21.5799999 -36.0900002 -15.3100004 0 0 0 2 8 4 0 0 0 11.7392979
2208 4 -37.1500015 -27.8600006 -39.1300011 0 0 0 2 8 2 2 0 0 12.417654
2216 5 -14.8599998 -18.25 -29.3500004 0 0 0 2 8 4 0 0 0 12.2223444
2229 4 -27.7600003 -36.0200005 -25.7199993 0 0 0 2 8 4 0 0 0 12.3636904
2232 5 -37.0499992 -26.8199997 -10.2299996 0 0 0 0 12 2 0 0 0 12.1905317
2234 5 -30.0799999 -22.7099991 -33.0200005 0 0 0 1 10 3 0 0 0 12.0215206
2238 4 -26.5799999 -11.9200002 -14.1099997 0 0 0 2 10 0 0 0 0 10.8244133
2243 2 -14.5600004 -25.6399994 -15.75 0 0 0 0 12 0 0 0 0 11.3461247
2246 4 -27.4200001 -7.3720002 -5.0510001 0 0 0 0 12 2 0 0 0 12.1973505
2247 2 -16.6700001 -25.3700009 -19.1299992 0 0 1 2 7 2 0 0 0 10.633174
2256 4 -15.2700005 -15.75 -41.7099991 0 0 0 0 12 4 0 0 0 13.7572432
2266 2 -9.96 -3.731 -25.0900002 0 0 0 3 6 4 0 0 0 11.4690314
2270 5 -22.3899994 -20.5400009 -35.2000008 0 0 0 3 10 1 0 0 0 12.716794
2272 4 -21.6200009 -24.3400002 -39.0299988 0 0 0 1 10 2 0 0 0 12.3626585
2277 5 -11.54 -28.0100002 -42.0200005 0 0 0 3 6 5 0 0 0 12.2752514
2278 4 -38.6100006 -35.75 -37.4700012 0 0 0 2 10 1 0 0 0 12.9971582
2282 4 -29.3700009 -37.2799988 -6.0510001 0 0 0 2 8 4 0 0 0 11.9773388
2283 4 -4.7280002 -15.5299998 -21.8299999 0 0 0 3 6 4 0 0 0 12.5476809
2287 4 -26.8899994 -7.1490002 -15.7600003 0 0 0 3 9 2 1 0 0 12.7191525
2288 4 -17.75 -2.2060001 -22.5 0 0 1 1 9 3 0 0 0 12.8624992
2294 4 -27.6399994 -5.0869999 -37.7999993 0 0 0 0 12 2 0 0 0 11.685977
2295 5 -21.3700009 -26.6700001 -39.6899987 0 0 0 2 10 3 0 0 0 12.2613659
2298 4 -19.5599995 -21.5499993 -15.2399998 0 0 0 2 8 4 0 0 0 12.2388582
2309 4 -16.2299996 -11.04 -24.3400002 0 0 0 2 9 1 1 0 0 12.6456757
2313 4 -6.6160002 -35.4300003 -3.9920002 0 0 0 3 6 4 0 0 0 12.7668534
2315 2 -36.6899987 -38.8199997 -21.2299996 0 0 0 2 8 2 0 0 0 11.1775484
2322 1 -24.9099998 -13.6400004 -11.2799997 0 0 1 2 6 1 1 1 0 11.3646221
2346 5 -11.8800002 -20.2800007 -37.9599992 0 0 0 1 10 2 0 0 0 11.6242066
2347 4 -30.2600002 -2.0810001 -0.9962 0 0 0 3 8 2 0 0 0 11.7685309
2365 2 -3.6429999 -8.5489998 -26.9099998 0 0 0 1 10 2 0 0 0 11.3855267
2388 4 -21.3199997 -30.0300007 -8.1780005 0 0 0 1 10 4 0 0 0 13.7652798
2394 2 -20.6700001 -6.2069998 -6.7849999 0 0 0 3 8 1 0 0 0 11.183301
2412 5 -31.5699997 -37.4000015 -9.6590004 0 0 2 0 10 2 0 0 0 12.403203
2414 1 -14.9700004 -37.9399986 -7.8660002 0 0 1 0 9 3 0 0 0 11.2084913
2423 5 -4.4749999 -17.6399994 -32.5699997 0 0 0 1 10 4 0 0 0 13.5174475
2446 5 -10.8500004 -10.5100003 -18.9099998 0 0 0 1 10 2 0 0 0 11.1508255
2457 1 -34.1100006 -40.5800019 -12.9399996 0 0 0 1 10 2 0 0 0 11.3703995
2464 4 -17.7299996 -35.0600014 -14.6599999 0 0 0 0 12 0 0 0 0 11.3180771
2469 5 -6.7690001 -6.1199999 -36.9700012 0 0 0 1 10 4 0 0 0 12.5834217
2479 4 -12.4099999 -3.421 -8.25 0 0 0 1 10 3 0 0 0 11.9047346
2492 2 -4.8210001 -12.8199997 -28.3400002 0 0 0 1 10 2 0 0 0 11.9957334
2499 4 -10.2200003 -38.9199982 -0.7385 0 0 0 2 8 4 0 0 0 12.1616545
2506 2 -11.5100003 -37.1500015 -11.2399998 0 0 0 2 8 4 0 0 0 11.7104121
2507 2 -26.4799996 -39.9799996 -33.0699997 0 0 0 1 10 2 0 0 0 12.2106352
2509 4 -18.0599995 -11.6300001 -41.3100014 0 0 1 4 1 8 0 0 0 12.4700566
2515 4 -17.5300007 -0.3507 -10.1899996 0 0 0 1 10 4 0 0 0 12.2683277
2529 4 -35.3699989 -15.5699997 -37.5499993 0 0 0 2 10 1 0 0 0 11.9404574
2536 5 -18.7199993 -3.937 -26.2099991 0 0 0 1 10 2 0 0 0 12.1796846
2542 2 -5.6269999 -19.5900002 -37.8499986 0 0 0 0 12 0 0 0 0 11.0129213
2545 2 -17.9799996 -20.8799992 -37.6500016 0 0 0 0 12 0 0 0 0 11.0493221
2570 2 -19.9099998 -28.7600003 -38.2200012 0 0 0 0 12 0 0 0 0 10.7621537
2574 4 -28.8299999 -0.8639 -26.3400002 0 0 0 3 6 4 2 0 0 13.0138292
2585 3 -31.6800003 -4.9959998 -3.425 0 0 0 2 8 4 0 0 0 12.5408716
2593 4 -17.8700008 -29.6800003 -39.0600014 0 0 0 0 12 2 0 0 0 12.0268679
2597 5 -36.9000016 -32.9799996 -21.2700005 0 0 0 0 12 0 0 0 0 11.1480084
2606 4 -8.4720001 -31.6100006 -8.0710001 0 0 1 4 3 8 0 0 0 12.7203121
2614 4 -27.9799996 -14.8999996 -2.905 0 0 0 3 6 4 0 0 0 12.4544468
2634 2 -21.9500008 -32.1399994 -9.6520005 0 0 1 4 4 4 1 0 0 12.4849434
2635 2 -28.3199997 -19.1299992 -4.0970001 0 0 0 2 8 2 0 0 0 11.3599205
2646 5 -14.5900002 -29.8299999 -10.5500002 0 0 0 0 12 2 0 0 0 12.2736445
2649 4 -38.2700005 -40.4700012 -4.7610002 0 0 0 3 8 3 0 0 0 12.925889
2659 2 -28.5100003 -22.9200002 -24.9899998 0 0 0 3 6 4 0 0 0 11.4694672
2665 5 -20.9099998 -19.4099999 -41.4000015 0 0 1 2 6 6 1 0 0 13.3002873
2667 4 -34.5699997 -23.0400009 -12.6300001 0 0 1 5 2 5 1 1 0 12.7180243
2690 4 -19.9599992 -2.2100001 -4.7480002 0 0 0 2 8 2 0 0 0 11.5359974
2694 4 -18.2900009 -32.8199997 -32.8100014 0 0 0 1 10 3 0 0 0 12.2947302
2704 5 -6.6160002 -5.7550001 -39.4700012 0 0 2 1 8 3 0 0 0 12.650775
2711 5 -7.3759999 -16.3999996 -17.0499992 0 0 1 2 7 3 0 0 0 11.9405986
2713 2 -27.1800003 -20.2099991 -41.7900009 0 0 0 2 8 4 0 0 0 12.2826052
2717 2 -23.6800003 -25.0900002 -39.9599992 0 0 0 4 6 0 2 1 0 11.6594162
2731 4 -34.3600006 -34.9799996 -18.2800007 0 0 0 2 8 5 0 0 0 13.637394
2749 4 -11.6499996 -16.0200005 -37.8800012 0 0 0 5 3 6 1 0 0 13.5004702
2764 2 -24.4200001 -34.5200005 -2.053 0 0 0 0 12 0 0 0 0 11.2756748
2766 4 -23.6700001 -23.7600003 -26.5599995 0 0 0 3 6 4 0 0 0 12.0896559
2769 4 -19.0400009 -30.4200001 -15.2700005 0 0 1 1 8 3 1 0 0 11.7960511
2778 4 -15.6599999 -29.2600002 -17.2399998 0 0 0 1 10 2 0 0 0 12.0330334
2783 4 -10.3100004 -29.5200005 -21.5799999 0 0 0 3 6 4 0 0 0 12.109539
2800 5 -29.6499996 -43.1500015 -8.3789997 0 0 0 3 6 2 2 0 0 11.4063759
2802 5 -28.9599992 -26.7700005 -13.3999996 0 0 0 3 7 4 1 0 0 13.2184496
2818 4 -31.3799992 -15.0600004 -17.9500008 0 0 0 3 6 5 0 0 0 12.805337
2823 2 -19.6000004 -30.0100002 -17.5100003 0 0 0 2 8 3 0 0 0 11.4144278
2825 5 -16.8299999 -9.1169996 -20.4699993 0 0 0 1 10 2 0 0 0 11.8276797
2832 4 -25.9099998 -1.7410001 -1.3380001 0 0 0 1 12 2 0 0 0 12.9501314
2834 5 -22.0400009 -31.9099998 -12.1499996 0 0 0 3 8 2 0 0 0 12.80262
2836 4 -21.3799992 -14.3900004 -26.4599991 0 0 0 3 6 6 0 0 0 12.9279786
2839 5 -28.1499996 -16.3199997 -0.792 0 0 0 3 6 4 0 0 0 12.1030598
2861 4 -9.4040003 -33.869999 -31.7399998 0 0 0 2 10 2 0 0 0 12.6657038
2863 5 -24.7800007 -34.9099998 -38.3899994 0 0 0 1 12 2 0 0 0 12.7862759
2878 2 -14.7200003 -18.1900005 -14.4600001 0 0 0 3 6 4 0 0 0 11.6403055
2884 2 -16.7399998 -32.75 -19.0300007 0 0 0 0 12 0 0 0 0 10.9873524
2910 4 -24.8999996 -0.9274 -24.0100002 0 0 0 1 12 2 0 0 0 13.7058144
2945 5 -4.415 -24.4200001 -17.2600002 0 0 0 3 6 3 0 0 0 11.885358
2954 5 -20.0499992 -35.2599983 -39.0299988 0 0 0 0 12 2 0 0 0 12.5877495
2956 2 -18.25 -32.1300011 -28.6000004 0 0 0 3 6 4 0 0 0 11.6370192
2963 4 -31.5599995 -6.6409998 -41.2200012 0 0 0 1 12 2 0 0 0 12.7024641
2973 4 -37.0800018 -19.2299996 -29.3099995 0 0 2 2 6 2 4 0 0 12.4656487
2979 4 -25.7199993 -32.5400009 -0.9907 0 0 0 0 12 3 0 0 0 13.1442165
2992 4 -34.6800003 -2.4920001 -37.4500008 0 0 1 3 7 5 0 0 0 12.8853456
2998 2 -33.9900018 -37.869999 -9.184 0 0 1 2 6 3 1 0 0 12.046504
3012 4 -37.5299988 -28.9500008 -3.849 0 0 0 1 10 5 0 0 0 13.6522494
3014 5 -14.3999996 -3.171 -30.2000008 0 0 0 2 10 2 0 0 0 13.123621
3016 1 -6.467 -38.7200012 -38.2400017 0 0 0 0 12 0 0 0 0 10.4610586
3025 5 -13.6400004 -9.3760004 -36.5600014 0 0 0 2 8 4 0 0 0 12.4302283
3032 4 -36.7299996 -35.1300011 -17.8899994 0 0 0 1 10 2 0 0 0 12.3344193
3049 4 -31.0 -13.4499998 -36.7700005 0 0 0 2 8 4 0 0 0 12.0185013
3056 5 -12.5299998 -32.6100006 -13.0 0 0 0 4 6 4 0 0 0 11.5969849
3059 4 -25.5100003 -30.2399998 -15.3000002 0 0 0 2 8 6 0 0 0 12.9614564
3072 4 -20.25 -13.8000002 -33.3800011 0 0 0 1 10 4 0 0 0 12.1254253
3076 2 -30.6800003 -10.4799996 -43.0699997 0 0 0 1 12 2 0 0 0 13.3797274
3093 2 -3.4730001 -14.1800003 -30.0699997 0 0 0 2 8 4 0 0 0 11.2870655
3095 4 -25.5499993 -16.0300007 -21.0900002 0 0 2 3 4 5 0 0 0 12.0440674
3096 2 -33.7599983 -31.2600002 -41.2000008 0 0 0 1 10 2 0 0 0 12.5266419
3100 2 -17.9599992 -43.3800011 -17.5900002 0 0 0 0 12 2 0 0 0 12.4554148
3104 1 -19.7900009 -9.783 -37.6100006 0 0 0 2 8 3 0 0 0 11.4100266
3117 2 -26.4799996 -3.0929999 -18.0400009 0 0 0 1 10 2 0 0 0 12.0637474
3134 5 -33.0 -17.1299992 -41.4399987 0 0 2 2 5 4 1 0 0 11.9585
3138 5 -8.5319996 -9.3210001 -22.2199993 0 0 1 2 7 5 0 0 0 12.5552655
3146 4 -12.3500004 -19.25 -14.2100001 0 0 0 0 12 2 0 0 0 12.3786621
3159 5 -32.5600014 -34.4500008 -21.5699997 0 0 0 3 6 3 0 0 0 11.8823662
3182 4 -5.9330002 -38.0 -29.6000004 0 0 0 4 4 6 0 0 0 12.21381
3188 5 -13.9099998 -22.5200005 -21.8299999 0 0 0 1 10 2 0 0 0 12.2257137
3193 5 -32.1699982 -35.4799996 -3.7249999 0 0 0 0 12 0 0 0 0 10.9527074
3200 2 -11.5699997 -2.8120001 -29.5499993 0 0 0 0 12 0 0 0 0 11.0104856
3201 4 -12.6999998 -29.5 -26.2800007 0 0 0 1 10 2 0 0 0 11.6453934
3202 5 -22.7700005 -35.9700012 -12.5600004 0 0 0 2 8 4 0 0 0 11.9891196
3218 2 -27.8899994 -2.8570002 -9.6409998 0 0 0 3 6 4 0 0 0 11.5232573
3224 4 -15.2700005 -30.6599999 -0.9974 0 0 1 3 5 5 0 0 0 12.898636
3234 4 -22.4400006 -25.3899994 -0.8589 0 0 0 1 10 2 0 0 0 12.0346384
3240 5 -27.2199993 -20.4799996 -39.1899986 0 0 0 3 6 5 0 0 0 11.9661618
3246 4 -15.3900004 -15.7799998 -24.7399998 0 0 0 4 6 6 0 0 0 12.813592
3247 5 -32.7000008 -7.4460001 -6.388 0 0 1 3 6 5 1 0 0 13.1150665
3252 2 -7.5190001 -19.7600003 -39.3699989 0 0 0 0 12 0 0 0 0 11.1920404
3262 5 -13.6000004 -38.6899987 -36.4500008 0 0 3 2 5 3 0 1 0 11.8731356
3263 5 -15.87 -28.1299992 -32.7099991 0 0 0 1 10 2 0 0 0 12.5663519
3268 4 -23.1299992 -3.501 -15.8000002 0 0 1 1 9 0 2 0 0 11.7597552
3294 4 -19.6000004 -43.7999993 -4.2519999 0 0 2 2 5 4 1 1 0 13.3298006
3308 5 -12.3999996 -13.75 -15.1800003 0 0 0 1 10 2 0 0 0 11.897997
3315 4 -5.6350003 -30.6100006 -30.3099995 0 0 0 0 12 3 0 0 0 12.6316481
3320 2 -24.6299992 -36.7700005 -40.2599983 0 0 0 0 12 0 0 0 0 11.2149954
3321 4 -27.8799992 -42.7799988 -20.2000008 0 0 0 1 10 2 0 0 0 12.2789908
3328 5 -16.6200009 -43.0699997 -8.5500002 0 0 0 0 12 2 0 0 0 11.7633581
3334 4 -38.5900002 -27.8400002 -28.0400009 0 0 0 2 8 5 0 0 0 13.0152073
3335 2 -11.4600001 -9.7720003 -14.3299999 0 0 0 0 12 0 0 0 0 11.5976868
3336 4 -22.1100006 -13.8900004 -28.7800007 0 0 1 1 9 3 0 0 0 12.1247673
3340 4 -26.5300007 -28.4400006 -40.9700012 0 0 0 3 6 4 0 0 0 12.1498079
3373 2 -16.7099991 -17.8299999 -23.8500004 0 0 0 1 10 4 0 0 0 12.5289889
3376 5 -19.6399994 -38.5999985 -25.4300003 0 0 1 2 7 4 0 0 0 13.0281057
3378 1 -16.5499993 -2.6659999 -40.4799996 0 0 2 2 4 2 2 0 0 10.8350802
3390 4 -15.6800003 -11.9899998 -12.3599997 0 0 0 0 12 3 0 0 0 13.6251793
3392 4 -7.651 -42.5299988 -3.0840001 0 0 1 1 9 4 0 0 0 12.7585583
3403 2 -34.2700005 -41.5499993 -9.0450001 0 0 0 0 12 0 0 0 0 11.0102863
3404 2 -8.1400003 -38.4099999 -24.1299992 0 0 1 3 7 1 0 0 0 11.7410374
3405 5 -34.6599999 -1.937 -17.4799996 0 0 2 1 7 4 1 0 0 13.1543922
3415 2 -25.7000008 -39.2900009 -19.0300007 0 0 0 0 12 0 0 0 0 10.920374
3417 4 -8.0100002 -31.5 -43.3400002 0 0 0 3 8 3 0 0 0 11.4756556
3431 2 -12.7700005 -24.0699997 -19.9599992 0 0 0 2 8 4 0 0 0 12.007021
3466 2 -30.5400009 -22.5400009 -35.8300019 0 0 0 1 10 2 0 0 0 12.5069313
3481 4 -17.1900005 -28.4599991 -26.0599995 0 0 0 2 10 3 0 0 0 12.6346979
3494 4 -17.7800007 -40.0800018 -42.4300003 0 0 0 1 10 2 0 0 0 12.0611019
3508 4 -14.0500002 -25.1200008 -5.2820001 0 0 0 2 10 1 0 0 0 12.4857683
3511 5 -25.2399998 -17.0400009 -36.619999 0 0 0 0 14 3 0 0 0 14.9468556
3524 5 -27.3299999 -27.7900009 -31.1100006 0 0 1 4 3 4 2 0 0 11.7798863
3534 4 -14.1400003 -9.3769999 -41.9599992 0 0 1 4 4 4 3 0 0 13.0700216
3543 4 -10.8000002 -40.7000008 -11.1800003 0 0 1 2 7 4 0 0 0 12.6279335
3565 4 -29.7299996 -36.3699989 -18.6800003 0 0 0 0 12 0 0 0 0 11.4961958
3594 4 -13.1499996 -30.0400009 -13.1300001 0 0 0 0 12 2 0 0 0 12.0745688
3623 5 -12.5699997 -25.5599995 -12.6800003 0 0 0 2 8 2 0 0 0 11.4298888
3645 4 -18.0200005 -7.474 -16.2099991 0 0 0 3 8 1 1 0 0 12.2476483
3647 4 -20.3999996 -26.4899998 -24.2099991 0 0 0 0 12 0 0 0 0 11.8208981
3656 3 -7.2919998 -34.7400017 -10.0699997 0 0 0 2 10 1 0 0 0 11.4774771
3671 5 -9.8210001 -4.2800002 -8.9099998 0 0 0 1 10 3 0 0 0 11.4653092
3691 4 -33.1300011 -23.1399994 -6.2480002 0 0 1 1 9 3 0 0 0 12.3707657
3726 2 -31.4799996 -19.3899994 -6.4970002 0 0 1 2 7 4 0 0 0 11.4544535
3729 2 -18.7299996 -17.0100002 -6.7090001 0 0 0 0 12 2 0 0 0 12.3219719
3747 2 -36.2599983 -18.9799996 -9.9119998 0 0 0 1 10 2 0 0 0 12.0295248
3750 5 -25.9500008 -26.7900009 -13.2799997 0 0 0 3 6 6 0 0 0 12.4184742
3753 5 -15.1099997 -26.6900006 -27.4099999 0 0 0 1 10 2 0 0 0 11.4131489
3761 4 -17.9899998 -6.843 -9.6630001 0 0 0 1 10 3 0 0 0 12.5773926
3771 4 -25.8199997 -31.7399998 -13.0 0 0 0 2 8 5 0 0 0 13.2425528
3779 2 -24.6599999 -15.6700001 -8.5019999 0 0 0 4 6 3 0 0 0 11.6155768
3786 5 -4.5580001 -10.8199997 -22.5799999 0 0 0 0 12 0 0 0 0 11.0756588
3789 5 -34.6300011 -29.1499996 -13.5 0 0 0 3 5 5 1 0 0 12.4666147