ITEM: TIMESTEP
0
ITEM: NUMBER OF ATOMS
50688
ITEM: BOX BOUNDS xy xz yz pp pp pp
-20.3673 76.7280426 16.8157444
-22.2210007 65.3610001 0.0
-22.2210007 65.3610001 0.0
ITEM: ATOMS id type x y z VoronoiIndex1 VoronoiIndex2 VoronoiIndex3 VoronoiIndex4 VoronoiIndex5 VoronoiIndex6 VoronoiIndex7 VoronoiIndex8 VoronoiIndex9 AtomicVolume
7 2 -15.9799996 -13.7100001 -2.961 0 0 0 1 10 2 0 0 0 11.5646506
22 5 23.6700001 6.5289998 8.0270004 0 0 0 0 12 0 0 0 0 11.3452845
28 2 0.668 5.0900002 -10.4200001 0 0 0 3 6 2 0 0 0 11.4114285
36 2 6.9320002 -14.75 -19.3899994 0 0 0 4 8 0 0 0 0 11.6991196
38 5 3.378 -11.3999996 16.7600003 0 0 0 1 10 3 0 0 0 12.9558726
42 2 6.4710002 -3.6180001 -21.3999996 0 0 0 0 12 0 0 0 0 11.3050738
43 5 -1.591 13.0 11.0699997 0 0 0 2 8 5 0 0 0 13.0603743
50 2 8.6949997 -3.3859999 -22.0799999 0 0 0 2 10 0 0 0 0 11.2217436
61 4 -16.3199997 -8.3319998 -3.8220001 0 0 0 0 12 2 0 0 0 12.5498505
98 2 -1.993 -8.4680004 18.8999996 0 0 0 0 12 0 0 0 0 11.1521387
112 2 22.3899994 5.5349999 20.0300007 0 0 1 1 9 3 0 0 0 11.54986
145 4 -10.0900002 -22.1200008 -19.6399994 0 0 0 0 12 2 0 0 0 12.2690458
146 4 1.294 7.3130002 -11.3599997 0 0 0 1 12 3 0 0 0 13.0681458
171 2 1.6870001 -1.0750001 -3.0079999 0 0 2 2 4 6 0 0 0 12.1530819
176 5 5.6739998 -20.4099999 12.1400003 0 0 0 2 8 4 0 0 0 12.8453188
177 5 14.8000002 14.54 -20.4599991 0 0 0 0 12 2 0 0 0 12.8124161
181 5 -11.8199997 -11.1300001 5.855 0 0 0 0 12 0 0 0 0 10.887497
203 5 19.5499993 -4.1960001 -2.524 0 0 0 2 8 4 0 0 0 12.292944
216 2 13.2799997 16.5699997 10.25 0 0 0 2 8 3 0 0 0 11.6906748
219 4 6.3039999 -2.671 16.1499996 0 0 0 2 8 2 2 0 0 11.7196188
220 2 -3.276 17.3500004 -6.435 0 0 0 1 10 3 0 0 0 12.5435782
240 2 -1.115 10.5299998 6.4000001 0 0 0 0 12 0 0 0 0 11.4929972
241 2 22.25 12.54 -2.4170001 0 0 0 1 12 1 0 0 0 12.6888132
243 4 7.844 17.4599991 -2.0739999 0 0 0 1 10 2 0 0 0 12.2171898
244 5 -12.3900004 -12.5500002 -20.3199997 0 0 0 0 10 2 0 0 0 12.411418
245 1 12.7100001 -17.8199997 5.4770003 0 0 0 2 8 3 0 0 0 12.0037251
249 4 -10.8500004 -5.936 18.9500008 0 0 0 1 12 2 0 0 0 12.6132555
262 2 -2.787 2.7330001 9.3769999 0 0 0 3 6 4 0 0 0 11.1349325
263 1 -11.8400002 -2.7820001 -16.3700009 0 0 0 1 10 2 0 0 0 11.8194886
266 5 13.0799999 -17.9400006 16.6399994 0 0 1 2 8 2 1 0 0 12.0037575
270 4 20.5400009 -13.6400004 -2.059 0 0 0 1 10 3 0 0 0 11.9695864
283 5 -4.7709999 10.5799999 -11.1499996 0 0 0 1 10 2 0 0 0 11.0546522
295 4 26.0300007 21.2600002 2.102 0 0 0 0 12 2 0 0 0 12.5404644
298 4 -4.448 16.6399994 3.013 0 0 0 5 7 5 1 0 0 14.6197663
311 5 -12.6899996 13.9399996 -3.3840001 0 0 0 2 10 2 0 0 0 12.1264486
318 5 -7.573 -14.2299996 -6.0500002 0 0 0 5 4 4 0 0 0 12.7027512
322 4 -14.04 -8.5629998 3.3039999 0 0 0 0 12 2 0 0 0 12.3695631
334 4 20.5499993 -5.1269999 -6.9450002 0 0 0 2 8 4 0 0 0 12.3885021
336 4 -15.4300003 -16.4599991 -2.204 0 0 0 1 10 3 0 0 0 11.9274282
362 5 -13.9700004 -9.7539997 -3.7390001 0 0 1 1 9 2 2 0 0 13.2715778
372 5 5.77 -19.7700005 3.7349999 0 0 1 2 5 5 0 0 0 11.4799671
377 5 -3.48 15.8100004 -1.62 0 0 0 3 6 6 0 0 0 12.3117123
398 1 -6.257 0.445 -1.34 0 0 0 0 12 0 0 0 0 10.4469214
409 2 19.0300007 -3.7090001 -17.2900009 0 0 0 1 10 2 0 0 0 11.3742399
416 2 -13.7299996 -21.1700001 -11.4499998 0 0 2 3 3 6 1 0 0 11.579505
419 2 19.8999996 -16.4500008 -5.8870002 0 0 0 0 12 0 0 0 0 11.7763806
428 4 17.6200009 -6.684 4.6479998 0 0 1 2 6 3 1 0 0 12.0831966
431 2 -4.2729998 19.7999993 -19.5799999 0 0 0 2 8 3 0 0 0 12.2396841
442 4 -2.4300001 -20.7099991 -12.3000002 0 0 0 3 8 4 0 0 0 12.9344244
452 4 -18.2800007 -21.8899994 -20.3899994 0 0 0 0 12 0 0 0 0 11.6996594
482 4 2.3740001 -0.5564 -19.6399994 0 0 0 6 4 4 0 0 0 12.1121464
498 2 25.8899994 9.9350004 -11.9700004 0 0 0 3 6 4 0 0 0 11.5352946
506 4 -7.4120002 0.04024 16.6900006 0 0 0 5 4 4 0 0 0 12.0087481
527 5 5.981 -5.0710001 4.8649998 0 0 0 2 8 4 0 0 0 11.941514
530 4 20.7999993 -9.7060004 -6.995 0 0 0 4 6 5 0 0 0 12.9093514
531 5 17.7000008 6.7290001 12.2600002 0 0 0 0 12 0 0 0 0 11.3985987
536 2 26.9300004 19.5900002 17.6599999 0 0 0 1 10 2 0 0 0 11.7402277
537 2 2.79 17.7099991 4.8260002 0 0 1 4 3 6 0 0 0 11.839694
539 2 -4.3439999 -21.6399994 -16.2800007 0 0 0 3 6 5 0 0 0 11.6961737
548 4 -4.7649999 -8.132 1.625 0 0 0 2 8 4 0 0 0 12.7563715
553 4 6.2160001 4.316 -21.5400009 0 0 1 1 8 3 1 0 0 12.3268757
554 2 23.4099999 2.438 4.4429999 0 0 1 1 9 4 0 0 0 12.3713818
561 4 5.6570001 15.0699997 -5.9499998 0 0 0 4 4 7 0 0 0 12.1935568
564 4 -8.0059996 4.6830001 -11.3900004 0 0 0 3 8 2 0 0 0 12.842353
569 2 4.7389999 -3.1300001 4.4000001 0 0 0 2 7 2 1 0 0 11.8923054
587 5 20.2600002 17.2999992 16.9400006 0 0 0 0 12 0 0 0 0 11.6510353
597 2 -5.5770002 -17.2999992 -13.4099999 0 0 0 3 6 5 0 0 0 11.6374913
613 5 12.0699997 -5.0229998 -1.5700001 0 0 1 5 3 7 0 0 0 12.4901905
618 2 -3.707 6.053 -12.5600004 0 0 0 2 10 0 0 0 0 11.4910574
623 4 17.3799992 16.8799992 5.1199999 0 0 1 3 5 2 2 0 0 11.8630372
638 5 -16.7700005 -8.7530003 9.3100004 0 0 0 2 8 2 0 0 0 11.244297
642 4 26.4400006 13.2200003 19.4500008 0 0 0 0 12 0 0 0 0 11.4758435
643 5 -14.6099997 3.843 1.899 0 0 0 2 8 2 0 0 0 10.867239
645 5 -9.8789998 17.5599995 5.349 0 0 0 2 10 2 0 0 0 12.2698393
649 4 14.7100001 -19.1000004 9.0419998 0 0 0 0 12 2 0 0 0 12.5111838
654 4 -0.4925 -16.9699994 1.5 0 0 0 2 8 4 0 0 0 12.967085
657 4 17.9599992 -10.9300004 15.7700005 0 0 2 2 6 6 0 0 0 12.8574582
671 2 -1.704 -9.757 9.316 0 0 0 0 12 0 0 0 0 11.073988
672 2 23.8700008 20.9699994 -17.7099991 0 0 0 2 8 4 0 0 0 11.8054495
699 5 15.04 3.902 3.494 0 0 0 2 8 3 0 0 0 12.0575419
701 4 19.1100006 -0.9242 20.1299992 0 0 0 2 11 1 0 0 0 12.7710629
726 5 15.4899998 -8.2209997 8.7810002 0 0 1 0 10 3 1 0 0 12.5530195
727 5 -10.8800002 -21.0400009 21.2399998 0 0 0 4 6 4 0 0 0 12.9101296
729 1 -3.3410001 -21.6700001 9.5209999 0 0 0 2 8 1 0 0 0 10.4757347
731 5 21.0900002 -7.4250002 1.628 0 0 0 3 8 2 0 0 0 11.5641155
741 4 3.973 16.6700001 2.866 0 0 0 2 8 6 0 0 0 12.6806355
742 4 8.7449999 2.813 9.7349997 0 0 0 3 8 3 0 0 0 12.8486586
745 4 6.0619998 21.1599999 -21.0900002 0 0 0 2 8 5 0 0 0 13.204464
755 5 10.6000004 -14.5100003 -17.9500008 0 0 1 3 5 6 0 0 0 12.9287796
758 2 4.04 10.6599999 13.7799998 0 0 0 2 8 2 0 0 0 11.235075
760 1 6.744 9.8669996 -17.2000008 0 0 0 2 8 3 0 0 0 11.4493637
762 5 15.1400003 -5.3790002 -7.8730002 0 0 0 3 8 5 0 0 0 13.5096054
765 1 -1.8120001 13.7200003 -21.7600003 0 0 0 4 6 2 0 0 0 11.2306538
803 2 22.1900005 -5.1869998 -8.6490002 0 0 1 1 9 0 2 0 0 11.7844353
809 2 25.0699997 20.2299996 -0.4082 0 0 0 0 12 2 0 0 0 11.6827641
818 5 5.085 8.962 6.929 0 0 0 2 9 4 1 0 0 13.8388405
842 5 7.0760002 1.31 -6.0910001 0 0 0 2 8 4 0 0 0 12.7948199
849 4 -4.6560002 3.5250001 11.0900002 0 0 0 4 8 1 0 0 0 11.6060066
850 5 7.31 17.4300003 -18.3299999 0 0 0 2 8 5 0 0 0 12.9833822
882 3 -7.165 16.4699993 16.3099995 0 0 0 4 5 4 1 0 0 12.1506538
899 4 -5.7719999 -9.4659996 -0.4099 0 0 0 0 12 2 0 0 0 12.4819727
901 4 2.8900002 18.2000008 -1.064 0 0 1 4 7 2 0 0 0 11.9917222
915 5 -9.9060002 -22.1800003 -3.964 0 0 0 2 8 4 0 0 0 12.9540072
926 5 -2.727 7.4000001 8.1709995 0 0 0 5 4 2 2 0 0 11.4539652
936 1 2.5510001 12.7600003 -15.4799996 0 0 0 5 4 3 0 0 0 11.6864424
941 5 -1.289 4.87 15.1800003 0 0 1 2 7 5 0 0 0 12.4037447
945 5 19.0699997 -16.6000004 12.1899996 0 0 0 4 4 6 0 0 0 11.9295436
946 4 -7.0100002 -13.4300003 20.8999996 0 0 0 0 12 2 0 0 0 12.1390514
950 3 -6.2849999 -2.0190001 5.7519999 0 0 0 2 8 6 0 1 0 13.9029532
951 5 9.3290005 15.6400004 -1.011 0 0 0 2 8 3 0 0 0 11.9114656
958 5 10.8400002 7.5850001 -1.0470001 0 0 0 3 6 6 0 0 0 12.3916845
961 2 0.3471 18.5799999 -17.9699994 0 0 1 2 7 3 0 0 0 11.2391167
962 4 -11.3000002 -14.6400004 -11.3699999 0 0 0 1 10 3 0 0 0 12.0785151
963 5 -13.5900002 -12.3699999 -15.1899996 0 0 1 4 3 5 2 0 0 11.9558792
990 4 13.3000002 17.5100003 -2.027 0 0 0 1 10 2 0 0 0 11.8763542
993 4 18.1399994 1.902 -12.6999998 0 0 1 2 8 2 1 0 0 12.6263209
995 1 -3.411 -17.2199993 13.3400002 0 0 0 0 12 2 0 0 0 12.0236025
1007 2 -1.11 -4.9970002 -2.7780001 0 0 0 0 12 0 0 0 0 11.1464806
1021 4 21.7900009 1.803 -11.7100001 0 0 0 3 6 5 0 0 0 12.0147095
1023 2 19.9300004 -20.1399994 18.8099995 0 0 0 1 10 3 0 0 0 11.7818747
1025 1 -2.3410001 -12.7700005 11.79 0 0 1 3 5 5 0 0 0 11.929862
1027 4 13.7100001 -9.962 8.6569996 0 0 0 1 12 2 0 0 0 12.8885022
1047 4 -7.1370001 19.9200002 1.008 0 0 0 2 10 4 0 0 0 13.6228495
1050 1 -3.6640001 -10.3199997 18.9200002 0 0 0 0 12 0 0 0 0 11.5558443
1051 4 7.3530002 15.2299996 -20.8899994 0 0 0 4 4 6 0 0 0 12.7327843
1055 2 6.7979999 5.2579999 -6.586 0 0 0 3 5 4 1 0 0 11.3966179
1056 5 23.2399998 2.4649999 7.0430002 0 0 0 3 6 4 0 0 0 11.9237652
1057 4 8.7250004 -7.7449999 -11.5900002 0 0 0 2 10 0 0 0 0 11.4010086
1059 4 -7.4369998 12.6999998 1.403 0 0 0 3 6 4 0 0 0 12.162858
1079 2 18.2700005 -14.3000002 -16.8799992 0 0 1 3 5 5 0 0 0 12.3261662
1089 4 8.3059998 -20.3899994 -16.6399994 0 0 0 0 12 3 0 0 0 12.5773764
1098 4 16.1700001 -18.7700005 20.2900009 0 0 0 1 12 3 0 0 0 13.6040411
1102 5 14.1999998 -19.4699993 -15.9700004 0 0 0 0 12 0 0 0 0 10.6369448
1110 5 -2.096 -3.0079999 18.9599992 0 0 0 1 12 1 0 0 0 12.5847111
1118 1 10.3500004 -13.8900004 0.4594 0 0 0 3 6 4 0 0 0 11.7414494
1128 2 -1.2230001 -19.3999996 1.048 0 0 0 0 12 0 0 0 0 11.0393229
1153 5 2.915 -15.3000002 18.3999996 0 0 1 1 9 2 2 0 0 12.3479529
1159 4 -0.6036001 -9.9530002 15.2299996 0 0 0 1 10 2 0 0 0 11.674696
1167 4 -4.6929999 19.75 -13.5200005 0 0 0 2 10 3 0 0 0 13.3481817
1169 2 12.5299998 2.2509999 -19.6499996 0 0 0 2 10 1 0 0 0 11.7610369
1178 2 5.4130001 4.0939999 11.04 0 0 0 1 10 2 0 0 0 11.6322499
1183 4 23.9899998 12.1400003 -15.5200005 0 0 0 2 8 3 0 0 0 12.0024452
1187 5 -1.006 18.2000008 -14.6199999 0 0 1 1 9 4 0 0 0 12.4568968
1188 4 11.87 16.0799999 7.9580002 0 0 0 3 8 4 0 0 0 12.855465
1190 2 1.189 -17.6299992 -16.7600003 0 0 1 1 9 2 0 0 0 11.1119137
1195 2 19.5900002 -12.8100004 -20.25 0 0 0 0 12 0 0 0 0 11.236249
1217 5 16.5300007 -10.1000004 -15.8199997 0 0 0 1 10 2 0 0 0 11.8888874
1218 5 23.0799999 -1.222 -1.895 0 0 0 3 6 5 0 0 0 11.778678
1222 1 -6.0739999 15.96 -1.928 0 0 0 4 6 1 0 0 0 11.5315399
1244 3 -12.8599998 -10.5699997 -9.1680002 0 0 0 0 12 0 0 0 0 11.1363392
1247 1 10.4399996 2.425 -18.3099995 0 0 1 3 7 3 0 0 0 12.4194546
1261 4 7.1149998 16.6399994 19.4099999 0 0 0 0 12 2 0 0 0 12.5388041
1264 2 11.1899996 17.5400009 10.3500004 0 0 1 2 7 3 0 0 0 10.8263102
1272 4 20.2600002 19.0400009 -9.6359997 0 0 0 2 8 4 0 0 0 12.2271328
1280 5 -11.0799999 1.259 -11.5 0 0 1 2 7 5 0 0 0 12.5355511
1283 4 16.4300003 2.017 12.96 0 0 1 2 7 4 0 0 0 11.2289
1288 5 -14.5600004 -9.1590004 15.7799998 0 0 0 5 4 4 0 0 0 12.3615866
1293 4 17.3299999 -19.7199993 0.5367 0 0 0 2 8 4 0 0 0 12.5787754
1299 4 -7.4829998 -10.8599998 6.4780002 0 0 1 3 5 6 0 0 0 12.5421334
1302 4 4.1279998 -1.795 -18.2999992 0 0 1 3 5 5 0 0 0 12.1086149
1303 2 -6.421 5.5219999 -0.1675 0 0 0 2 8 2 0 0 0 11.8162422
1305 5 9.1420002 14.04 5.1279998 0 0 2 3 5 4 1 0 0 12.4228459
1320 2 -13.0900002 11.6599999 12.7799998 0 0 1 2 7 3 0 0 0 11.5336275
1333 5 19.5499993 -21.8999996 -3.8280001 0 0 0 0 12 2 0 0 0 12.3149157
1339 5 2.5450001 2.3870001 3.8310001 0 0 0 2 8 4 0 0 0 12.3402434
1342 4 -8.2209997 18.4599991 17.6399994 0 0 0 2 10 2 0 0 0 12.6142922
1350 4 22.4200001 16.2199993 0.04766 0 0 0 1 10 3 0 0 0 12.809166
1363 2 -11.9399996 -4.1760001 2.5710001 0 0 0 4 4 5 0 0 0 11.4685793
1365 4 12.3500004 -9.9259996 -16.7600003 0 0 0 3 7 4 1 0 0 12.5676222
1374 4 16.2600002 -10.5100003 -18.4599991 0 0 0 1 10 5 0 0 0 13.1460905
1377 4 -8.8590002 -3.7430001 -12.1999998 0 0 1 1 9 2 0 0 0 11.1898785
1387 3 -18.2800007 -21.9300004 6.658 0 0 0 3 10 2 0 0 0 12.8854532
1403 4 16.2399998 -12.6899996 -16.2299996 0 0 1 0 11 4 0 0 0 13.0080299
1414 4 19.7199993 -10.2399998 -4.5710001 0 0 0 1 10 2 0 0 0 12.3577538
1434 5 -12.4300003 10.1499996 -10.0100002 0 0 0 1 9 2 1 0 0 11.985898
1445 2 0.9806 2.846 8.401 0 0 0 0 12 0 0 0 0 11.6910906
1456 4 -12.6499996 -10.0100002 -20.0400009 0 0 0 5 6 3 0 0 0 12.8244114
1457 4 -10.4300003 3.5610001 4.2189999 0 0 0 0 12 4 0 0 0 13.4186754
1463 4 7.3870001 16.8899994 0.2642 0 0 0 2 10 2 0 0 0 12.9945508
1471 5 17.6399994 -8.0080004 -19.7199993 0 0 0 4 8 3 0 0 0 12.8931514
1477 2 -7.0630002 -5.947 -19.7600003 0 0 0 0 12 0 0 0 0 11.522851
1478 2 20.1299992 17.6599999 5.7919998 0 0 0 4 6 4 0 0 0 11.8236647
1485 4 0.5947 -22.1599999 -4.7930002 0 0 1 2 9 1 0 0 0 11.6949396
1492 5 -2.848 18.9300004 8.6809998 0 0 0 4 4 6 0 0 0 11.6503964
1502 5 0.1132 5.5900002 -2.312 0 0 1 2 6 3 1 0 0 11.7966118
1505 4 -3.7890001 20.5300007 21.3500004 0 0 0 2 8 5 0 0 0 13.1947384
1509 5 1.188 -19.3099995 16.75 0 0 0 2 8 4 0 0 0 12.2126665
1515 5 -12.2799997 1.0140001 -19.0 0 0 0 1 10 2 0 0 0 11.7013273
1523 2 -8.5860005 12.8400002 -20.4200001 0 0 0 2 8 3 0 0 0 11.6574459
1543 1 21.9599992 5.586 -0.7504 0 0 1 2 5 4 0 0 0 11.5606613
1545 4 0.9064 -8.5959997 -16.2199993 0 0 0 0 12 0 0 0 0 12.5922652
1556 5 10.4700003 -6.678 -7.7550001 0 0 0 1 12 2 0 0 0 12.4936781
1583 2 -8.6000004 -7.3350001 2.786 0 0 0 4 6 5 0 0 0 12.5849724
1599 4 16.7600003 18.5799999 -20.8899994 0 0 0 2 8 4 0 0 0 12.0985718
1605 5 12.4700003 11.4200001 -2.6970001 0 0 0 1 10 3 0 0 0 12.2689972
1607 4 -2.174 10.8000002 18.4699993 0 0 0 3 9 2 1 0 0 13.9126234
1615 4 14.4600001 20.5900002 0.5438 0 0 0 3 8 3 0 0 0 11.9261476
1634 5 14.8000002 18.8400002 -6.0970001 0 0 0 3 6 6 0 0 0 12.6364222
1642 4 5.0409999 -19.6100006 6.2030001 0 0 0 2 8 4 0 0 0 12.7654696
1657 5 -8.823 16.8099995 13.2799997 0 0 0 3 6 3 0 0 0 11.3122549
1663 2 -11.3100004 -3.4489999 10.8900004 0 0 0 0 12 0 0 0 0 11.2324572
1669 4 -13.3699999 -20.2600002 -5.4580002 0 0 0 1 10 4 0 0 0 12.6079541
1671 4 25.2000008 18.6800003 -2.5769999 0 0 0 1 10 3 0 0 0 12.094305
1672 4 22.1499996 -4.3979998 12.0500002 0 0 0 1 10 3 0 0 0 12.3606701
1677 2 21.7800007 -3.8220001 -14.3400002 0 0 0 0 12 0 0 0 0 10.6392012
1694 2 5.0050001 -17.5300007 -3.796 0 0 1 3 6 2 3 0 0 11.6978112
1698 4 -10.0699997 -1.174 20.6599999 0 0 0 2 8 2 2 0 0 13.1851864
1702 2 1.919 -10.4200001 14.5500002 0 0 1 1 8 1 1 0 0 11.5413504
1706 4 1.68 1.896 -7.2670002 0 0 0 5 4 4 0 0 0 12.46556
1722 5 -5.8600002 -1.804 -2.2739999 0 0 0 1 10 2 0 0 0 11.5196648
1726 5 -1.768 -8.4499998 -6.0370002 0 0 0 0 12 0 0 0 0 11.5774699
1730 5 15.1899996 20.25 8.4119997 0 0 0 3 6 4 0 0 0 11.4865618
1734 2 -2.332 18.3700009 21.4799996 0 0 0 4 4 4 0 0 0 11.1853046
1766 4 -12.1599999 -18.6700001 -3.27 0 0 0 0 12 2 0 0 0 12.2374401
1774 4 -4.5310002 1.048 -12.6599999 0 0 0 0 12 3 0 0 0 13.1851368
1782 2 26.6800003 16.1599999 12.29 0 0 0 3 5 4 1 0 0 11.2709522
1795 4 1.035 20.1700001 -13.96 0 0 0 0 12 0 0 0 0 10.9254056
1807 4 13.5900002 -8.3570004 14.6000004 0 0 0 1 10 3 0 0 0 12.6997776
1812 4 6.2389999 -8.0530005 15.3599997 0 0 0 2 10 3 0 0 0 12.6025286
1814 5 26.0400009 16.3099995 -8.3470001 0 0 0 1 10 3 0 0 0 11.9779396
1818 4 -9.5170002 1.106 16.6800003 0 0 0 2 8 5 0 0 0 13.2176447
1829 5 -9.1160002 15.3000002 -19.4500008 0 0 0 1 12 2 0 0 0 12.852667
1847 4 -0.6926 -21.4500008 -10.6999998 0 0 0 2 10 0 0 0 0 11.1952066
1851 1 -1.214 19.9599992 16.3500004 0 0 0 0 12 0 0 0 0 11.2025538
1865 2 7.5619998 -6.5380001 5.777 0 0 0 2 8 4 0 0 0 12.1896429
1873 4 -3.04 -19.5300007 6.7319999 0 0 0 3 8 3 0 0 0 12.2985125
1879 5 16.6800003 -16.1499996 -17.2999992 0 0 1 2 7 4 0 0 0 12.3728142
1882 2 9.3479996 10.8500004 14.6000004 0 0 0 2 8 2 0 0 0 11.1032867
1897 4 15.5699997 -0.4747 16.1100006 0 0 0 2 10 3 0 0 0 12.6468096
1899 2 20.9300004 2.0320001 3.9030002 0 0 0 3 6 5 0 0 0 12.0698729
1905 4 -14.6400004 -5.7160001 12.0699997 0 0 0 1 12 1 0 0 0 11.9935246
1906 2 -5.4130001 16.2299996 0.4361 0 0 0 2 10 0 0 0 0 11.6294756
1920 5 6.3540001 -5.2540002 7.461 0 0 0 0 12 3 0 0 0 13.173378
1927 2 26.4799996 14.3599997 -4.553 0 0 1 1 9 3 0 0 0 11.8549194
1942 5 -0.6774 -19.7900009 15.3999996 0 0 0 1 10 2 0 0 0 11.6797085
1947 5 0.3668 6.3400002 10.6800003 0 0 0 3 6 5 0 0 0 12.4947691
1951 4 9.8240004 20.2399998 16.8600006 0 0 0 1 10 3 0 0 0 12.2030211
1960 2 21.3099995 8.0970001 0.1692 0 0 0 4 5 4 1 0 0 12.5593672
1965 2 -10.2399998 1.5670001 -20.8400002 0 0 0 1 10 2 0 0 0 12.3310251
1970 2 20.2199993 19.7700005 -19.2299996 0 0 0 0 12 0 0 0 0 11.7023001
1975 4 -10.1000004 2.842 -18.7399998 0 0 0 2 10 3 0 0 0 12.4604054
1976 5 23.8299999 17.0799999 15.2100001 0 0 1 2 7 2 2 0 0 11.9237786
1990 5 1.958 -8.8500004 -6.3169999 0 0 1 4 4 4 1 0 0 12.0167589
2013 5 0.7039 11.3999996 -4.9460002 0 0 1 2 7 2 0 0 0 12.2137327
2020 2 -5.5250001 -8.8780004 -17.3400002 0 0 0 0 12 0 0 0 0 11.0833387
2029 4 -1.379 2.6540001 16.0900002 0 0 0 3 6 4 0 0 0 11.8547212
2041 5 13.2100001 0.8055 16.7999993 0 0 0 1 10 2 0 0 0 12.3437214
2054 4 10.25 -3.306 7.0240002 0 0 1 0 11 3 0 0 0 12.8794814
2066 5 -11.5299998 -17.3899994 10.4499998 0 0 0 1 10 4 0 0 0 12.2417069
2077 4 21.2399998 0.4809 -9.4280005 0 0 0 1 10 3 0 0 0 11.5724325
2085 5 24.2900009 18.5900002 -17.7199993 0 0 1 0 9 3 0 0 0 11.7576409
2089 1 -16.7299996 -4.5159998 12.4899998 0 0 2 2 6 3 0 1 0 12.0847693
2091 4 19.2999992 -7.935 -13.4600001 0 0 0 3 6 4 0 0 0 11.9414388
2097 5 -4.8080001 -7.4489999 -1.142 0 0 0 1 10 4 0 0 0 13.3371019
2104 2 12.0500002 -18.8700008 -15.7799998 0 0 0 0 12 0 0 0 0 11.1516304
2116 5 7.7950001 -13.8299999 -11.3699999 0 0 0 2 10 2 0 0 0 12.3871975
2124 5 11.0799999 -15.75 13.6000004 0 0 0 1 10 2 0 0 0 11.46875
2126 5 9.4589997 -6.2670002 -13.3100004 0 0 0 4 8 1 0 0 0 12.2174282
2144 4 8.6049996 7.0640001 5.5060001 0 0 1 1 9 3 0 0 0 11.9070492
2147 1 7.9330002 -14.0500002 -15.79 0 0 0 2 10 1 0 0 0 11.8262997
2148 2 12.8199997 10.9300004 -6.7090001 0 0 1 2 7 3 0 0 0 11.5009575
2151 2 -12.0699997 6.836 21.0900002 0 0 0 2 10 0 0 0 0 11.4510985
2163 2 -2.5880001 15.8100004 10.6899996 0 0 0 3 6 3 0 0 0 11.6058245
2180 5 -2.6960001 0.9918 -10.2799997 0 0 0 1 10 5 0 0 0 13.3417883
2183 2 16.6499996 6.0890002 -12.9399996 0 0 0 3 6 4 0 0 0 12.4202032
2208 2 7.1760001 12.6700001 4.993 0 0 0 2 6 4 0 0 0 11.180624
2211 1 26.0200005 16.2800007 5.487 0 0 0 0 12 0 0 0 0 11.0060053
2214 2 -0.2651 -0.4992 -4.1069999 0 0 1 3 5 4 0 0 0 12.1546755
2219 5 14.4600001 -18.4400006 11.6300001 0 0 0 3 7 2 1 0 0 11.656024
2224 5 -14.2700005 -18.25 -17.4699993 0 0 2 1 7 3 1 0 0 11.7569103
2228 5 -8.901 16.4899998 -14.8800002 0 0 0 2 8 2 0 0 0 11.3223572
2231 5 9.3909998 20.9699994 21.4099999 0 0 0 3 10 2 0 0 0 12.342659
2232 3 -0.9154 -17.7299996 -9.4799996 0 0 0 4 6 3 0 0 0 11.6962576
2265 2 15.9700004 0.2795 -13.1000004 0 0 0 0 12 0 0 0 0 11.6969567
2273 5 6.1069999 -20.8799992 9.4849997 0 0 0 1 10 4 0 0 0 13.165575
2274 1 18.1200008 4.877 6.0619998 0 0 0 0 12 0 0 0 0 11.5886326
2276 4 25.3199997 9.3719998 -7.6680002 0 0 0 3 6 4 0 0 0 11.4864455
2284 5 15.5200005 14.7100001 -15.1000004 0 0 1 2 9 2 1 0 0 13.0389652
2285 4 -12.4799996 -7.8169999 -21.8999996 0 0 0 1 10 2 0 0 0 12.4791813
2298 5 14.4799996 21.1399994 -7.1690002 0 0 0 3 5 4 1 0 0 12.4038401
2304 4 8.9469996 -8.257 10.9200002 0 0 0 1 10 4 0 0 0 13.086956
2311 5 22.1700001 -3.4100001 5.6199999 0 0 0 0 12 3 0 0 0 13.6622029
2317 4 -6.935 2.2090001 20.7700005 0 0 1 3 4 4 1 0 0 11.841221
2322 4 1.8020001 -7.3600001 -8.6379996 0 0 0 3 8 4 0 0 0 12.7822027
2326 4 23.4300003 5.0159998 10.3199997 0 0 0 0 12 3 0 0 0 12.9846774
2337 5 12.3500004 -9.0900002 -14.6099997 0 0 2 1 7 1 3 0 0 11.9608202
2341 4 13.5900002 -5.7410002 -14.5500002 0 0 1 2 6 4 1 0 0 12.0896225
2351 5 25.0400009 9.4250002 -16.2099991 0 0 0 1 10 4 0 0 0 12.7809391
2368 2 -2.3440001 -15.3000002 -15.3400002 0 0 0 1 10 2 0 0 0 12.1243267
2369 5 1.607 14.0900002 -10.6800003 0 0 0 1 10 2 0 0 0 11.9687596
2385 4 -12.4300003 3.118 14.0200005 0 0 0 3 8 3 0 0 0 11.7972689
2386 2 22.4400006 20.7999993 -22.0499992 0 0 0 2 8 2 0 0 0 12.1625099
2407 2 -0.8469 7.7979999 2.175 0 0 0 2 7 2 1 0 0 12.0934849
2414 1 12.6400004 -12.6899996 -16.8099995 0 0 2 2 6 4 0 0 0 11.8239289
2427 4 -11.8500004 1.226 -16.6800003 0 0 0 0 12 3 0 0 0 12.4910193
2429 5 13.9799996 -17.5300007 21.0200005 0 0 0 3 8 2 0 0 0 12.3751049
2441 2 -13.1499996 -17.1000004 8.8009997 0 0 1 3 8 1 1 0 0 12.7170105
2442 4 15.0600004 1.951 -20.6100006 0 0 0 0 12 3 0 0 0 13.1366577
2443 5 20.8600006 20.1499996 1.515 0 0 0 1 10 4 0 0 0 12.6191626
2446 2 2.1719999 -9.6129999 -12.5900002 0 0 0 0 12 0 0 0 0 11.8058787
2451 2 -16.3899994 -4.2389999 1.5670001 0 0 0 0 12 0 0 0 0 10.8735324
2457 4 9.969 3.5480001 7.7820001 0 0 0 2 10 2 0 0 0 12.570982
2482 5 -12.8199997 0.8167 -21.5699997 0 0 1 0 11 1 0 0 0 12.4021988
2489 2 1.232 -4.9660002 -7.9980002 0 0 0 3 6 4 0 0 0 12.6190615
2496 4 3.4230001 6.619 7.4200001 0 0 0 3 10 0 2 0 0 13.7694741
2506 2 -8.7229996 19.6100006 -0.9491 0 0 1 1 9 2 0 0 0 11.904603
2513 5 18.8299999 17.6900006 -20.1900005 0 0 0 3 8 4 0 0 0 12.1972151
2521 2 -2.332 14.0600004 8.9130002 0 0 1 2 9 2 0 0 0 12.0566044
2523 4 12.3699999 11.7799998 21.0599995 0 0 0 1 10 4 0 0 0 12.3237333
2527 1 -14.2100001 -11.29 -13.2700005 0 0 1 2 6 2 1 0 0 11.2263813
2541 2 -7.85 15.1800003 20.2000008 0 0 1 6 3 2 2 0 0 12.3311644
2548 2 -10.6400004 -6.4380002 -17.4400006 0 0 1 3 6 2 1 0 0 11.8405734
2553 2 -9.5810004 2.98 -12.4099999 0 0 0 2 8 2 0 0 0 11.2668514
2557 4 2.401 16.6499996 -14.79 0 0 0 0 12 2 0 0 0 12.5880289
2562 5 -0.4013 19.1800003 -20.3099995 0 0 0 5 4 4 0 0 0 11.8405152
2564 4 6.8670002 8.4499998 -11.7200003 0 0 1 0 11 1 0 0 0 11.6658173
2573 5 9.9919996 -3.914 13.8999996 0 0 0 3 6 4 0 0 0 12.512558
2574 2 -10.6899996 -21.6200009 3.914 0 0 0 2 8 1 0 0 0 11.0384655
2581 2 21.1700001 -10.2600002 5.6079998 0 0 0 0 12 0 0 0 0 11.8076983
2594 2 5.263 -1.904 -7.2820001 0 0 0 0 12 0 0 0 0 10.8143692
2596 4 15.5900002 14.4200001 19.4300003 0 0 0 1 10 5 0 0 0 13.6502505
2600 1 15.8500004 -7.0110002 -1.678 0 0 0 0 12 0 0 0 0 10.7431698
2619 5 -10.2100001 -7.1539998 20.9899998 0 0 0 0 12 2 0 0 0 11.8357582
2627 4 -4.5089998 -15.0699997 -16.6900006 0 0 0 2 8 4 0 0 0 12.6461344
2632 4 0.1741 0.7850001 -20.7800007 0 0 0 2 8 4 0 0 0 12.1146069
2644 2 7.836 18.5699997 9.3210001 0 0 0 0 12 0 0 0 0 11.6427803
2647 4 12.1800003 -5.875 -18.7299996 0 0 0 1 10 4 0 0 0 12.0320759
2657 4 -8.2959995 18.8099995 -15.7399998 0 0 0 1 10 2 0 0 0 12.368309
2666 2 16.3099995 -4.6890002 8.7869997 0 0 2 0 9 2 1 0 0 11.9735156
2675 4 -12.5299998 5.895 9.9309998 0 0 0 2 10 3 0 0 0 13.0648375
2695 4 -5.9860002 -7.1110001 20.9099998 0 0 0 0 12 2 0 0 0 12.2369852
2700 1 17.4200001 0.6032 5.2870002 0 0 0 2 8 3 0 0 0 11.8535824
2722 5 -11.3400002 19.3400002 0.5551 0 0 0 2 10 3 0 0 0 13.0508184
2752 2 21.2099991 16.25 -4.6300001 0 0 0 2 8 2 0 0 0 11.3259182
2760 5 -6.4419999 0.1399 -19.9899998 0 0 0 0 12 2 0 0 0 12.7489128
2768 2 8.0629997 5.7329998 -4.507 0 0 0 4 4 5 0 0 0 12.215621
2774 4 8.9049998 0.8409 7.23 0 0 0 0 12 3 0 0 0 12.5845976
2778 4 5.48 10.8599998 15.9899998 0 0 0 1 10 3 0 0 0 12.4941674
2782 4 -15.4899998 -20.9300004 13.29 0 0 0 1 10 4 0 0 0 13.4782772
2790 4 0.5383 17.2800007 3.517 0 0 0 3 8 2 0 0 0 12.2034864
2799 4 -1.143 -11.8800002 -22.0 0 0 0 3 8 5 0 0 0 13.8402262
2800 4 -11.29 16.0799999 -20.8899994 0 0 0 3 6 4 0 0 0 11.5355196
2802 5 -4.0409999 12.0500002 12.1000004 0 0 0 0 12 0 0 0 0 11.4455338
2820 4 11.4899998 -11.0900002 9.1590004 0 0 0 1 10 3 0 0 0 11.9366474
2823 4 -12.6300001 12.96 18.6800003 0 0 0 3 8 4 0 0 0 12.1800623
2824 4 17.2000008 7.1609998 5.6030002 0 0 0 2 8 4 0 0 0 12.5371762
2837 5 21.6399994 3.549 5.5430002 0 0 0 3 8 3 0 0 0 11.7514439
2848 4 11.75 -17.7199993 1.011 0 0 0 4 5 4 0 0 0 11.5800362
2880 5 18.9799996 -20.9699994 -17.0799999 0 0 1 2 9 3 0 0 0 12.8038512
2885 2 19.8700008 17.8799992 -17.7299996 0 0 0 3 6 2 2 0 0 11.8859434
2895 4 1.285 -19.7600003 -4.606 0 0 0 5 5 4 0 0 0 12.2712708
2899 5 14.1899996 -12.4799996 -1.6770001 0 0 0 1 10 3 0 0 0 12.1313334
2906 4 16.3999996 9.7959996 1.904 0 0 0 4 4 4 2 0 0 12.900242
2908 5 -2.6530001 8.2959995 0.5968001 0 0 0 5 6 4 0 0 0 12.0341263
2914 2 -3.7190001 -1.976 -6.7030001 0 0 0 2 8 2 0 0 0 11.4940548
2932 4 -14.4300003 -14.3100004 -1.29 0 0 0 0 12 2 0 0 0 12.461277
2955 4 -9.9239998 9.1260004 -13.3599997 0 0 1 3 5 4 2 0 0 12.0909424
2975 5 5.25 -4.112 -6.454 0 0 0 0 12 0 0 0 0 11.518487
2985 4 -4.9780002 3.3150001 -16.5699997 0 0 0 1 10 3 0 0 0 12.2752466
2988 2 20.1399994 -16.7700005 8.2790003 0 0 1 2 7 4 0 0 0 11.9603158
2993 4 10.8299999 -0.7064 10.3400002 0 0 0 3 6 5 0 0 0 11.915845
2994 4 -14.7700005 -14.7100001 -14.4399996 0 0 0 1 10 4 0 0 0 12.585414
3004 5 8.8929996 -2.379 -9.0679998 0 0 0 2 10 3 0 0 0 12.7485667
3009 4 4.8670002 -10.4600001 -7.5339999 0 0 1 0 11 1 0 0 0 11.2261477
3020 5 12.3599997 20.2399998 -9.842 0 0 0 4 5 2 3 0 0 12.3987303
3023 2 17.75 -9.4709997 -10.4300003 0 0 0 3 6 4 0 0 0 11.9194794
3034 4 22.25 -7.718 13.9899998 0 0 0 3 6 5 0 0 0 11.644454
3060 4 -7.6370001 21.2199993 -16.1100006 0 0 1 1 9 3 0 0 0 12.0559759
3068 2 2.9200002 3.5850001 6.89 0 0 0 3 7 2 1 0 0 12.3810949
3090 5 15.8599998 -10.0699997 20.1700001 0 0 1 2 9 4 0 0 0 13.3930102
3100 4 -4.8660002 1.826 0.1546 0 0 0 0 12 2 0 0 0 11.7158623
3115 4 -1.6970001 7.5770002 -1.421 0 0 1 3 6 3 1 0 0 11.850955
3118 4 0.1652 -3.02 -3.6440001 0 0 0 2 9 2 1 0 0 12.8496686
3129 2 20.0900002 -17.4500008 -13.0900002 0 0 0 4 4 4 0 0 0 11.5226183
3133 5 24.4400006 9.672 -21.2999992 0 0 0 1 10 2 0 0 0 11.9773208
3134 2 4.204 7.3959999 -14.6000004 0 0 1 1 9 5 0 0 0 12.5742255
3150 2 21.0 19.1399994 7.4369998 0 0 0 1 10 2 0 0 0 11.3795147
3152 4 -4.263 -17.1599999 -15.3599997 0 0 0 0 12 0 0 0 0 11.3610602
3154 4 24.7700005 12.3800001 -3.556 0 0 0 1 10 2 0 0 0 12.3920536
3158 2 9.3730002 -7.4369998 4.0819998 0 0 0 3 8 2 0 0 0 11.8812562
3159 5 -3.2249999 15.0699997 -6.8039999 0 0 0 5 4 4 0 0 0 11.4419022
3165 5 9.4589997 -15.4200001 18.6499996 0 0 1 1 9 3 0 0 0 12.3855877
3167 2 -5.0679998 2.566 19.2999992 0 0 0 3 6 4 0 0 0 11.5453997
3174 4 -7.2579999 -0.02446 -5.3569999 0 0 0 2 8 4 0 0 0 12.2935686
3178 4 15.6999998 -10.0600004 10.87 0 0 0 2 10 3 0 0 0 12.6420775
3180 2 20.9799996 20.3500004 -6.921 0 0 0 3 6 3 0 0 0 11.5226259
3182 4 13.0600004 -18.7199993 -18.4200001 0 0 0 0 12 4 0 0 0 13.3957501
3185 5 -1.022 5.6490002 5.3629999 0 0 0 1 10 2 0 0 0 11.484231
3186 5 3.5 -1.51 -1.398 0 0 0 0 12 2 0 0 0 13.2390556
3199 5 11.8800002 20.8799992 0.0639 0 0 0 1 10 2 0 0 0 11.6577969
3201 5 -11.5200005 17.6900006 -12.8599998 0 0 0 3 5 4 1 0 0 11.5363674
3220 4 -5.599 19.0799999 -15.8999996 0 0 0 2 10 3 0 0 0 13.5974999
3222 4 11.3000002 -2.4660001 -9.8549996 0 0 1 3 7 3 0 0 0 11.4018936
3234 4 -9.8710004 -7.4289999 5.2420001 0 0 0 2 8 5 0 0 0 13.0284405
3240 1 2.2679999 8.691 -13.3199997 0 0 0 1 10 3 0 0 0 12.3687697
3241 4 -9.9530002 20.5799999 -14.8500004 0 0 1 0 9 3 0 0 0 12.1246529
3246 5 -4.2789998 -21.3899994 4.5310002 0 0 1 1 8 4 1 0 0 13.5592528
3267 5 1.4830001 -13.9399996 -7.7199998 0 0 0 1 10 5 0 0 0 13.3958559
3286 5 8.7180004 -7.9640002 15.2200003 0 0 0 0 12 0 0 0 0 11.5569601
3287 5 13.1400003 15.3599997 -16.6800003 0 0 0 4 4 6 0 0 0 13.0818882
3298 5 1.074 -21.2900009 14.5799999 0 0 1 2 9 2 0 0 0 12.4788704
3301 5 21.0900002 16.5900002 -7.3569999 0 0 0 1 10 4 0 0 0 12.7875071
3303 5 18.6100006 2.5880001 -15.1099997 0 0 1 0 9 3 0 0 0 11.6168108
3305 5 24.3700009 4.7709999 -4.112 0 0 0 1 10 3 0 0 0 12.9339276
3315 4 0.6399001 -10.3900004 9.9560004 0 0 1 3 5 6 0 0 0 12.2124872
3337 5 -12.2100001 -16.8299999 1.396 0 0 0 4 4 6 0 0 0 12.5826006
3343 5 -7.975 18.7600003 -7.48 0 0 0 3 5 3 1 0 0 11.4785338
3357 4 -11.0500002 13.3699999 -7.6180001 0 0 0 1 10 3 0 0 0 11.9541646
3387 5 21.6800003 17.5699997 -19.4300003 0 0 0 1 10 2 2 0 0 13.2020235
3406 5 -12.96 6.942 -0.2348 0 0 0 1 10 4 0 0 0 12.8157435
3414 2 21.4699993 21.1499996 -4.8800002 0 0 0 3 8 2 0 0 0 11.3675118
3433 4 1.287 18.0300007 -12.8400002 0 0 0 0 12 2 0 0 0 11.7550574
3438 5 16.2000008 -17.6100006 -21.6800003 0 0 1 3 5 6 0 0 0 14.0728207
3444 5 9.7519999 -13.4399996 3.059 0 0 0 2 10 1 0 0 0 12.3646069
3446 4 7.6570001 -10.29 6.8730002 0 0 1 2 7 4 0 0 0 12.8550158
3454 2 12.3400002 16.0799999 1.6310001 0 0 0 2 8 2 0 0 0 12.0517283
3463 1 26.5400009 17.1700001 7.507 0 0 1 2 6 2 1 0 0 11.5120096
3465 5 -14.8999996 0.5584 -9.5170002 0 0 2 3 6 4 0 0 0 12.7182427
3467 4 0.5723 -5.651 -10.2200003 0 0 0 0 12 0 0 0 0 12.340559
3481 4 -2.1630001 -14.3900004 -17.7000008 0 0 0 1 10 2 0 0 0 12.1739912
3489 2 -9.2150002 -7.092 -19.4400006 0 0 0 1 12 2 0 0 0 12.7125283
3497 2 20.1299992 12.1199999 8.6090002 0 0 0 3 8 3 0 0 0 11.349906
3501 4 5.632 -6.6620002 9.4300003 0 0 0 2 7 2 1 0 0 11.867671
3516 4 14.9300004 -9.2939997 2.5880001 0 0 0 0 12 2 0 0 0 12.1308212
3529 5 9.7130003 -8.4919997 -2.2780001 0 0 0 1 10 3 0 0 0 11.8985024
3540 4 -0.04026 3.8299999 -8.4460001 0 0 0 1 10 2 0 0 0 11.627863
3544 4 -13.1999998 2.885 21.1599999 0 0 0 0 12 2 0 0 0 12.6811667
3561 5 -4.5760002 13.0600004 8.4189997 0 0 0 0 12 0 0 0 0 11.5156889
3563 2 -15.1899996 -7.1149998 -21.9699994 0 0 0 1 10 2 0 0 0 12.2051506
3571 4 0.01646 10.7600003 2.2030001 0 0 0 2 10 3 0 0 0 13.0945091
3587 4 17.2600002 -20.25 -21.0599995 0 0 0 1 10 4 0 0 0 12.6960497
3597 2 10.8100004 -0.007353 -9.6090002 0 0 0 5 4 3 0 0 0 11.7834673
3613 4 -0.1263 15.9700004 -13.9300004 0 0 0 2 8 4 0 0 0 12.3632622
3614 4 -7.3839998 1.937 7.8470002 0 0 0 2 8 5 0 0 0 12.0049906
3617 5 -15.96 -22.0799999 0.3462 0 0 0 2 6 4 0 0 0 12.1243239
3634 5 12.4700003 -13.3699999 -6.3579998 0 0 0 1 10 4 0 0 0 12.0033245
3636 4 2.774 -16.1700001 -0.7539 0 0 0 1 10 3 0 0 0 12.0115376
3638 4 24.5799999 6.079 -11.7100001 0 0 1 2 8 3 1 0 0 12.6374169
3648 2 -5.1020002 16.1599999 5.5029998 0 0 0 3 6 2 0 0 0 12.026329
3659 4 18.0400009 -3.326 21.1499996 0 0 2 1 10 1 0 0 0 12.677495
3662 2 -3.3870001 4.547 19.1499996 0 0 0 3 8 1 0 0 0 11.3998642
3666 2 21.7600003 -11.6199999 -5.5100003 0 0 0 2 10 2 0 0 0 12.5961104
3675 1 2.507 15.7799998 18.3899994 0 0 0 2 10 0 0 0 0 11.5012436
3678 2 -8.5600004 -2.589 -10.0200005 0 0 0 1 10 2 0 0 0 11.2097292
3690 5 -11.5900002 -14.1400003 3.2650001 0 0 1 3 8 3 1 0 0 13.6045189
3708 3 5.5409999 -4.0999999 -4.0739999 0 0 0 3 6 6 0 0 0 12.1041985
3714 4 3.661 -12.3000002 -21.1499996 0 0 0 2 10 4 0 0 0 14.1126785