LAMMPS (29 Oct 2020)
Lattice spacing in x,y,z = 3.5800000 3.5800000 3.5800000
Created orthogonal box = (0.0000000 0.0000000 0.0000000) to (35.800000 35.800000 35.800000)
  1 by 1 by 1 MPI processor grid
Created 4000 atoms
  create_atoms CPU = 0.001 seconds
4000 atoms in group fe_group
Setting atom values ...
  1989 settings made for type/fraction
2011 atoms in group ni_group
Setting atom values ...
  2011 settings made for type
Neighbor list info ...
  update every 1 steps, delay 10 steps, check yes
  max neighbors/atom: 2000, page size: 100000
  master list distance cutoff = 6.5
  ghost atom cutoff = 6.5
  binsize = 3.25, bins = 12 12 12
  2 neighbor lists, perpetual/occasional/extra = 2 0 0
  (1) pair meam/c, perpetual
      attributes: full, newton on
      pair build: full/bin/atomonly
      stencil: full/bin/3d
      bin: standard
  (2) pair meam/c, perpetual, half/full from (1)
      attributes: half, newton on
      pair build: halffull/newton
      stencil: none
      bin: none
0 0 
Per MPI rank memory allocation (min/avg/max) = 17.05 | 17.05 | 17.05 Mbytes
Step KinEng PotEng Press Temp 
       0            0   -17563.527    161.50794            0 
100 18.5309996741533 
     100    9.5788835            0    4.0913518       18.531 
200 309.116598737955 
     200    159.78587            0    25.130265     309.1166 
300 303.88712969163 
     300     157.0827            0    6.2525488    303.88713 
400 299.409877936588 
     400    154.76836            0    2.1471625    299.40988 
500 299.604219669876 
     500    154.86881            0    1.2603901    299.60422 
600 300.40070809371 
     600    155.28053            0    1.0685422    300.40071 
700 300.325545226298 
     700    155.24167            0    1.0256836    300.32555 
800 299.916289321027 
     800    155.03012            0    1.0151271    299.91629 
900 299.880437848143 
     900    155.01159            0    1.0131114    299.88044 
1000 300.026516664398 
    1000     155.0871            0    1.0131819    300.02652 
1100 300.048970858345 
    1100    155.09871            0    1.0131315    300.04897 
1200 299.993148645592 
    1200    155.06985            0    1.0129181    299.99315 
1300 299.980101054206 
    1300    155.06311            0    1.0128825     299.9801 
1400 300.001330436693 
    1400    155.07408            0    1.0129561    300.00133 
1500 300.008220901703 
    1500    155.07765            0    1.0129742    300.00822 
1600 300.000053837553 
    1600    155.07342            0     1.012945    300.00005 
1700 299.996494619519 
    1700    155.07158            0    1.0129349    299.99649 
1800 299.999703952834 
    1800    155.07324            0    1.0129466     299.9997 
1900 300.001607342527 
    1900    155.07423            0    1.0129523    300.00161 
2000 300.000289936803 
    2000    155.07355            0    1.0129473    300.00029 
2100 299.999059407435 
    2100    155.07291            0    1.0129435    299.99906 
2200 299.999485064543 
    2200    155.07313            0    1.0129455    299.99949 
2300 300.025253497528 
    2300    155.08645            0    1.0130592    300.02525 
2400 304.666876367406 
    2400    157.48576            0    1.0296859    304.66688 
2500 304.997345647825 
    2500    157.65658   -1.7240579    1.0909808    304.99735 
2600 302.94718308148 
    2600    156.59683   -2.4700074   0.92083731    302.94718 
2700 305.524948579544 
    2700     157.9293   -4.8100081    1.0346777    305.52495 
2800 292.019841164418 
    2800    150.94836   -2.4453231    0.9842691    292.01984 
2900 304.721576185846 
    2900    157.51403   -2.9025085    1.0163603    304.72158 
3000 299.029174416357 
    3000    154.57157   -3.7402727   0.99101642    299.02917 
3100 294.931978175762 
    3100    152.45368   -3.1861084   0.99147331    294.93198 
3200 301.558897014885 
    3200    155.87921   -2.8882384    1.0009773     301.5589 
3300 299.841455721011 
    3300    154.99144   -6.5546746   0.97843811    299.84146 
3400 306.37191614169 
    3400    158.36711   -15.618279   0.98064115    306.37192 
3500 296.472759296895 
    3500    153.25013   -6.0210846    1.0803802    296.47276 
3600 292.46559229259 
    3600    151.17878   -19.386716    1.2318268    292.46559 
3700 305.358192419851 
    3700    157.84311   -19.524047   0.90744663    305.35819 
3800 295.799504901048 
    3800    152.90211     -29.0487    1.1760235     295.7995 
3900 306.155688178881 
    3900    158.25534   -25.999588   0.91342036    306.15569 
4000 303.514984820826 
    4000    156.89033   -22.427631   0.86108698    303.51498 
4100 288.95164650063 
    4100    149.36238   -41.382565    1.1920538    288.95165 
4200 301.943130778851 
    4200    156.07782   -39.745255   0.94805165    301.94313 
4300 292.603722796202 
    4300    151.25018    -42.03229    1.1169882    292.60372 
4400 302.888167676651 
    4400    156.56632   -55.718873   0.85880317    302.88817 
4500 298.335701529745 
    4500     154.2131   -48.741976   0.90062808     298.3357 
4600 296.100978111496 
    4600    153.05795   -65.510313    1.2668885    296.10098 
4700 301.022671415996 
    4700    155.60203   -73.101393    1.0021395    301.02267 
4800 304.49807844934 
    4800     157.3985   -69.224893   0.94965825    304.49808 
4900 312.544129886685 
    4900     161.5576   -81.123897    1.0070473    312.54413 
5000 310.267690242206 
    5000    160.38088   -86.792674   0.82209454    310.26769 
5100 304.14540850384 
    5100     157.2162    -94.81683    1.0690831    304.14541 
5200 301.05204909017 
    5200    155.61721   -107.96296    1.2260759    301.05205 
5300 304.345652566543 
    5300    157.31971     -110.424   0.92673395    304.34565 
5400 302.875049999249 
    5400    156.55954   -114.95887    0.9607367    302.87505 
5500 293.613639024274 
    5500    151.77221   -118.08246    1.0182778    293.61364 
5600 299.723449012838 
    5600    154.93044   -111.07867    1.0693695    299.72345 
5700 301.780112971786 
    5700    155.99356   -123.55054    1.0724814    301.78011 
5800 294.663848024802 
    5800    152.31508   -132.66231    0.7179785    294.66385 
5900 301.724126901394 
    5900    155.96462   -136.28428   0.84341272    301.72413 
6000 305.333211881538 
    6000    157.83019    -141.7215   0.66076358    305.33321 
6100 290.367092837762 
    6100    150.09404   -153.76217    1.2144066    290.36709 
6200 309.705263353855 
    6200    160.09016   -161.45915   0.89193291    309.70526 
6300 306.15342052337 
    6300    158.25417   -172.13761   0.84484561    306.15342 
6400 315.694857085402 
    6400    163.18625   -177.00971   0.63219294    315.69486 
6500 301.098399510596 
    6500    155.64117   -176.51977   0.69190691     301.0984 
6600 295.484071110641 
    6600    152.73906   -193.55613    1.2072941    295.48407 
6700 299.403506542059 
    6700    154.76506   -174.47763   0.78616125    299.40351 
6800 298.170638753134 
    6800    154.12778    -188.4989     1.028857    298.17064 
6900 306.209199498955 
    6900      158.283   -195.29845   0.98423191     306.2092 
7000 303.547422529467 
    7000     156.9071   -197.38409   0.96246266    303.54742 
7100 309.375809083932 
    7100    159.91986   -204.57669   0.38193014    309.37581 
7200 281.976727730057 
    7200    145.75696   -205.39649    1.4475858    281.97673 
7300 292.865232408415 
    7300    151.38535   -204.85895    1.2427712    292.86523 
7400 307.267776140422 
    7400    158.83019   -210.21283   0.80899487    307.26778 
7500 291.497004886298 
    7500     150.6781    -222.3687    1.0556259      291.497 
7600 303.742716987642 
    7600    157.00805   -220.54394   0.93602682    303.74272 
7700 299.812121374337 
    7700    154.97628   -229.75603    1.3051721    299.81212 
7800 305.308065598713 
    7800     157.8172   -243.35154    1.2481023    305.30807 
7900 295.666438518216 
    7900    152.83333   -238.56387    1.1522135    295.66644 
8000 307.803197881749 
    8000    159.10696   -245.63699   0.95494244     307.8032 
8100 293.209714971017 
    8100    151.56342   -240.14981    1.1525234    293.20971 
8200 302.536809173813 
    8200     156.3847   -242.18623   0.83830852    302.53681 
8300 299.303069164312 
    8300    154.71314   -242.61729    1.0908421    299.30307 
8400 312.23921075576 
    8400    161.39998   -254.04688   0.90755819    312.23921 
8500 294.555077961578 
    8500    152.25885   -248.43246    1.1561915    294.55508 
8600 307.942121143297 
    8600    159.17877   -259.30838   0.93731994    307.94212 
8700 288.508547889723 
    8700    149.13333   -263.14884     1.207019    288.50855 
8800 309.9175473531 
    8800    160.19989   -269.42604   0.95223506    309.91755 
8900 309.657603218129 
    8900    160.06552   -277.51637    1.0944366     309.6576 
9000 310.27313722205 
    9000     160.3837   -265.31039   0.82061801    310.27314 
9100 299.434979559884 
    9100    154.78133   -277.96527    1.1361605    299.43498 
9200 298.230209491941 
    9200    154.15857    -275.9417   0.81518067    298.23021 
9300 295.64440453865 
    9300    152.82194   -279.50063    1.1535631     295.6444 
9400 296.898568849225 
    9400    153.47023   -277.32942    1.1229764    296.89857 
9500 286.380004532165 
    9500    148.03307   -284.10732    1.2423261       286.38 
9600 317.439007776641 
    9600    164.08782   -292.78039    0.8171756    317.43901 
9700 314.579039280151 
    9700    162.60947   -297.94064   0.89727467    314.57904 
9800 287.652935261663 
    9800    148.69106   -287.04823    1.1328355    287.65294 
9900 305.619525366946 
    9900    157.97819   -315.10173    1.0347422    305.61953 
10000 300.229802977421 
   10000    155.19218   -305.49163    1.0628138     300.2298 
Loop time of 27.1776 on 1 procs for 10000 steps with 4000 atoms

Performance: 31.791 ns/day, 0.755 hours/ns, 367.951 timesteps/s
98.9% CPU use with 1 MPI tasks x no OpenMP threads

MPI task timing breakdown:
Section |  min time  |  avg time  |  max time  |%varavg| %total
---------------------------------------------------------------
Pair    | 16.599     | 16.599     | 16.599     |   0.0 | 61.08
Neigh   | 5.959      | 5.959      | 5.959      |   0.0 | 21.93
Comm    | 0.20312    | 0.20312    | 0.20312    |   0.0 |  0.75
Output  | 0.9844     | 0.9844     | 0.9844     |   0.0 |  3.62
Modify  | 3.2456     | 3.2456     | 3.2456     |   0.0 | 11.94
Other   |            | 0.1864     |            |       |  0.69

Nlocal:        4000.00 ave        4000 max        4000 min
Histogram: 1 0 0 0 0 0 0 0 0 0
Nghost:        364.000 ave         364 max         364 min
Histogram: 1 0 0 0 0 0 0 0 0 0
Neighs:        178.000 ave         178 max         178 min
Histogram: 1 0 0 0 0 0 0 0 0 0
FullNghs:      356.000 ave         356 max         356 min
Histogram: 1 0 0 0 0 0 0 0 0 0

Total # of neighbors = 356
Ave neighs/atom = 0.089
Neighbor list builds = 760
Dangerous builds = 617
10000 300.229802977421 
Per MPI rank memory allocation (min/avg/max) = 37.83 | 37.83 | 37.83 Mbytes
Step KinEng PotEng Press Temp 
   10000    155.19218   -305.49163    1.0628138     300.2298 
10100 321.192640707672 
   10100    166.02811   -324.50338    1.0430834    321.19264 
10200 332.364885169456 
   10200    171.80317   -318.91118    1.0079365    332.36489 
10300 326.52272796611 
   10300    168.78329   -310.69784    1.0541978    326.52273 
10400 316.31040299275 
   10400    163.50443   -310.43687    1.0586837     316.3104 
10500 316.938691519753 
   10500     163.8292   -329.55895    1.0735939    316.93869 
10600 325.24282780767 
   10600     168.1217   -327.17626    1.0334709    325.24283 
10700 320.43058682086 
   10700     165.6342   -309.81741    1.1185544    320.43059 
10800 327.323452396338 
   10800     169.1972   -342.53026   0.95948224    327.32345 
10900 353.337982135326 
   10900     182.6444   -347.66205   0.93930334    353.33798 
11000 354.110265573388 
   11000     183.0436   -332.36562   0.88096652    354.11027 
11100 355.71180044795 
   11100    183.87146   -345.57067    1.0183068     355.7118 
11200 380.168027448293 
   11200    196.51316   -334.42356   0.91380459    380.16803 
11300 360.937511780824 
   11300    186.57269   -348.98211    1.1407491    360.93751 
11400 370.844182697039 
   11400    191.69356   -344.55034   0.96440373    370.84418 
11500 351.681739218671 
   11500    181.78827    -342.1927   0.78321441    351.68174 
11600 352.376191989672 
   11600    182.14724   -340.62872   0.99013052    352.37619 
11700 395.033849266636 
   11700    204.19747     -344.862   0.99536481    395.03385 
11800 401.529211802193 
   11800    207.55499   -355.16311   0.87202883    401.52921 
11900 398.935685025369 
   11900    206.21437    -353.2611    1.0134012    398.93569 
12000 416.315209991102 
   12000    215.19804   -354.54183   0.94440468    416.31521 
12100 432.592746878881 
   12100    223.61209   -363.55412   0.80543248    432.59275 
12200 395.772793519586 
   12200    204.57944    -368.6348    1.3145348    395.77279 
12300 440.279095590498 
   12300    227.58525   -361.85476    1.0772106     440.2791 
12400 414.224049196087 
   12400     214.1171   -358.98834   0.97713969    414.22405 
12500 403.529815580296 
   12500    208.58913   -355.29777    1.0600739    403.52982 
12600 431.765729611492 
   12600    223.18459   -355.94742   0.91667101    431.76573 
12700 434.087629635835 
   12700    224.38481   -351.16746    1.0048116    434.08763 
12800 435.486076943066 
   12800    225.10768   -346.01471   0.98813714    435.48608 
12900 444.406435634966 
   12900    229.71872   -359.65516   0.95790432    444.40644 
13000 476.728423116989 
   13000    246.42632    -377.5129    1.0377837    476.72842 
13100 451.855560491046 
   13100    233.56925   -358.53954     1.010934    451.85556 
13200 449.722108263933 
   13200    232.46645   -367.72294   0.97121057    449.72211 
13300 476.882078458086 
   13300    246.50574    -366.0796    1.0214051    476.88208 
13400 450.212227762488 
   13400     232.7198   -368.49729    1.1076213    450.21223 
13500 489.721353812432 
   13500    253.14251   -371.65347    1.0139247    489.72135 
13600 485.949429987523 
   13600    251.19276   -358.58852   0.96411445    485.94943 
13700 461.479984366595 
   13700    238.54423   -371.45442     1.029687    461.47998 
13800 503.342798086406 
   13800    260.18359   -374.28556    1.0765856     503.3428 
13900 484.441746156931 
   13900    250.41342   -359.22851   0.98567605    484.44175 
14000 511.971292533581 
   14000    264.64376   -372.72709   0.99345736    511.97129 
14100 519.505160388107 
   14100     268.5381   -371.69125    1.0403805    519.50516 
14200 509.306470498101 
   14200    263.26628   -381.97656   0.98091929    509.30647 
14300 498.431813317381 
   14300    257.64505   -375.95098    1.0287118    498.43181 
14400 489.536625346292 
   14400    253.04702   -371.10415   0.98919761    489.53663 
14500 504.551156399233 
   14500     260.8082   -377.34397   0.87693405    504.55116 
14600 519.437546487497 
   14600    268.50315   -366.75469   0.96001823    519.43755 
14700 538.009142041087 
   14700    278.10302   -375.01257    1.0019248    538.00914 
14800 539.561527354643 
   14800    278.90546   -373.14996    1.0539239    539.56153 
14900 549.348141262452 
   14900    283.96427   -377.23962    1.0315081    549.34814 
15000 544.208300768077 
   15000    281.30743   -377.18946    1.0282139     544.2083 
15100 549.973297614629 
   15100    284.28742    -368.9642   0.93866047     549.9733 
15200 554.703405818599 
   15200    286.73247   -381.69857   0.97980354    554.70341 
15300 584.915781570993 
   15300    302.34959   -383.33076    1.0131227    584.91578 
15400 559.505502765452 
   15400    289.21473    -391.2694   0.89004776     559.5055 
15500 593.289197054478 
   15500     306.6779   -396.75978    1.0257489     593.2892 
15600 578.852183052504 
   15600    299.21525   -385.48754    0.9031668    578.85218 
15700 558.265911169637 
   15700    288.57397   -373.62015   0.99563457    558.26591 
15800 607.275709188778 
   15800    313.90769   -387.43526    1.0825154    607.27571 
15900 609.846878670595 
   15900    315.23675   -383.79365    1.0594103    609.84688 
16000 612.262492495185 
   16000    316.48541   -390.27866    1.1225961    612.26249 
16100 597.650809121612 
   16100    308.93247     -401.955   0.98676602    597.65081 
16200 595.200786485543 
   16200    307.66602   -394.51098   0.98053483    595.20079 
16300 593.930288363575 
   16300    307.00929   -403.36814    1.0478694    593.93029 
16400 607.047319428867 
   16400    313.78963   -404.32534   0.99559383    607.04732 
16500 642.768048646018 
   16500    332.25408   -397.97861    1.0631753    642.76805 
16600 623.856878754059 
   16600    322.47868   -396.23713    1.1445878    623.85688 
16700 630.757788708577 
   16700    326.04584   -392.72731    1.0249724    630.75779 
16800 641.152878201769 
   16800    331.41918   -384.06846    1.0920683    641.15288 
16900 634.511857413546 
   16900    327.98636     -393.642    1.0841827    634.51186 
17000 653.697329565293 
   17000    337.90355   -397.44798    1.0122773    653.69733 
17100 661.331272180205 
   17100    341.84962   -402.64805    1.0894406    661.33127 
17200 661.80433784476 
   17200    342.09415   -397.95683    1.0297014    661.80434 
17300 656.991640686075 
   17300    339.60642   -394.25198   0.91553267    656.99164 
17400 685.417399632866 
   17400    354.30001   -398.68921   0.93645442     685.4174 
17500 707.271069103617 
   17500    365.59642   -393.02082    1.0317824    707.27107 
17600 665.87494756779 
   17600     344.1983   -397.53299     1.021666    665.87495 
17700 688.836512906502 
   17700    356.06739   -401.55057   0.93844044    688.83651 
17800 708.251641044652 
   17800    366.10329   -412.37887    1.0451828    708.25164 
17900 680.759929932323 
   17900    351.89251   -405.07276   0.99653799    680.75993 
18000 697.393889982796 
   18000     360.4908   -409.85947   0.98511229    697.39389 
18100 720.434787734816 
   18100     372.4009   -408.61761    1.0249779    720.43479 
18200 703.142172556991 
   18200    363.46215   -411.91385    1.0081562    703.14217 
18300 705.26352823339 
   18300     364.5587    -402.9785    1.0072638    705.26353 
18400 727.628882635602 
   18400    376.11961   -402.76544   0.94370361    727.62888 
18500 735.485782220075 
   18500    380.18093   -403.18356    1.0058713    735.48578 
18600 722.688344351816 
   18600    373.56579   -407.83152   0.94524988    722.68834 
18700 726.904968866714 
   18700    375.74541   -409.92324    1.0531245    726.90497 
18800 743.083473183034 
   18800    384.10826    -406.8913    1.0451224    743.08347 
18900 744.09110941992 
   18900    384.62912   -414.25546    1.0557402    744.09111 
19000 756.826086698193 
   19000    391.21197   -399.81004    1.0116912    756.82609 
19100 743.602779769762 
   19100    384.37669   -397.40569   0.98195283    743.60278 
19200 784.222165299877 
   19200    405.37331   -416.24263    1.0722904    784.22217 
19300 760.33593200057 
   19300    393.02625   -395.47442   0.94787121    760.33593 
19400 788.157523219863 
   19400    407.40755   -418.68867    1.0199621    788.15752 
19500 772.687557397999 
   19500    399.41095   -411.10886    1.0456444    772.68756 
19600 745.447278896805 
   19600    385.33014   -411.62211   0.96687872    745.44728 
19700 806.806550124901 
   19700    417.04744   -413.39574    1.1154918    806.80655 
19800 807.190670883885 
   19800      417.246   -421.33754    1.0218059    807.19067 
19900 782.021624132404 
   19900    404.23583    -410.9762   0.94070663    782.02162 
20000 798.259696183206 
   20000    412.62947   -405.29743    1.0066571     798.2597 
20100 828.183357285157 
   20100    428.09735   -404.18473    1.0834932    828.18336 
20200 793.114224425388 
   20200    409.96972   -403.31359   0.99100421    793.11422 
20300 799.546753810592 
   20300    413.29477   -405.78334   0.94648984    799.54675 
20400 830.814136578614 
   20400    429.45723   -400.95717   0.86901141    830.81414 
20500 827.37373990474 
   20500    427.67885   -405.66801     1.004034    827.37374 
20600 849.162970837642 
   20600    438.94195   -410.36981   0.90852619    849.16297 
20700 846.146789955488 
   20700    437.38285   -417.45479    1.0024506    846.14679 
20800 835.369440791365 
   20800    431.81192   -425.68635    1.0532559    835.36944 
20900 851.794918865961 
   20900    440.30244   -416.09429   0.99915041    851.79492 
21000 841.941790871395 
   21000    435.20924   -410.93365    1.0190168    841.94179 
21100 823.939536855939 
   21100    425.90367   -413.66147     1.030998    823.93954 
21200 870.925816384144 
   21200    450.19141    -426.0391    1.0093727    870.92582 
21300 865.051637996561 
   21300    447.15498   -427.27824   0.98000103    865.05164 
21400 853.138038578824 
   21400    440.99671   -426.26741   0.99558891    853.13804 
21500 887.32766729875 
   21500    458.66972   -412.19075   0.99901344    887.32767 
21600 875.502082037501 
   21600    452.55694   -409.92952   0.99596464    875.50208 
21700 907.798440395905 
   21700    469.25129   -419.29517    1.1044257    907.79844 
21800 873.529030266303 
   21800    451.53704   -408.81665    1.0143249    873.52903 
21900 902.061061402225 
   21900    466.28557   -413.02848   0.99129823    902.06106 
22000 885.79963193299 
   22000    457.87986   -422.40551   0.99056193    885.79963 
22100 904.318299339615 
   22100    467.45237    -419.4059    1.0322216     904.3183 
22200 931.462314535599 
   22200    481.48341   -414.88835    1.0471156    931.46231 
22300 936.775446438207 
   22300    484.22983   -430.18426    0.9505761    936.77545 
22400 946.077437934911 
   22400    489.03814   -425.13052     1.033004    946.07744 
22500 914.758716098943 
   22500    472.84914     -429.239    1.0951515    914.75872 
22600 916.177424629855 
   22600    473.58248   -415.62315    1.0172454    916.17742 
22700 921.195800142664 
   22700    476.17654   -426.17174   0.94454882     921.1958 
22800 931.402675653246 
   22800    481.45259   -417.17394   0.92454173    931.40268 
22900 916.488734600647 
   22900     473.7434    -422.4183    1.0161243    916.48873 
23000 937.004354053021 
   23000    484.34816    -412.4038    0.9967216    937.00435 
23100 953.795341999985 
   23100    493.02761   -422.76703    0.9903415    953.79534 
23200 956.079445795617 
   23200    494.20829   -418.30985    1.1010849    956.07945 
23300 986.983863225403 
   23300    510.18313   -432.95105    1.0807609    986.98386 
23400 955.570683780421 
   23400     493.9453   -424.19526   0.98241844    955.57068 
23500 966.774675617193 
   23500    499.73677   -405.69605   0.99766314    966.77468 
23600 949.760309235775 
   23600    490.94185   -416.18024   0.90088258    949.76031 
23700 978.021348640593 
   23700    505.55031    -414.3787   0.99143437    978.02135 
23800 1006.78968944696 
   23800    520.42099   -416.91787    1.0682272    1006.7897 
23900 967.185382063415 
   23900    499.94907   -414.82072     1.020086    967.18538 
24000 1014.26523245271 
   24000    524.28518   -427.21241     1.030758    1014.2652 
24100 1006.46189027165 
   24100    520.25154    -419.0376    1.0351536    1006.4619 
24200 1001.11274643543 
   24200    517.48651   -431.36698    1.0470095    1001.1127 
24300 1025.7826352198 
   24300    530.23866   -416.85665   0.99115869    1025.7826 
24400 1020.01120091044 
   24400    527.25534   -417.58795    1.1053035    1020.0112 
24500 1031.99497517146 
   24500    533.44988   -429.00115   0.97019672     1031.995 
24600 1025.16501899973 
   24600     529.9194   -440.15036   0.97311178     1025.165 
24700 1023.08599685049 
   24700    528.84473   -429.25961    1.0667387     1023.086 
24800 1020.69266579238 
   24800    527.60759   -423.57019     1.003987    1020.6927 
24900 1033.73687790106 
   24900    534.35029   -425.24355   0.99269237    1033.7369 
25000 1024.45254512058 
   25000    529.55112   -421.36649   0.96487528    1024.4525 
25100 1048.71035624615 
   25100    542.09025   -434.06375    1.0066315    1048.7104 
25200 1080.18651472157 
   25200    558.36064   -436.47605     1.030795    1080.1865 
25300 1061.17222771265 
   25300    548.53194   -425.70555    1.0403314    1061.1722 
25400 1072.40782805878 
   25400    554.33975   -423.89259    1.0192678    1072.4078 
25500 1084.87033329487 
   25500    560.78176    -424.8163    1.0061899    1084.8703 
25600 1056.62817768234 
   25600    546.18307   -421.78008    1.0022131    1056.6282 
25700 1099.25839801012 
   25700    568.21911     -438.046    1.0382243    1099.2584 
25800 1108.30440444534 
   25800    572.89509   -423.44879     1.042675    1108.3044 
25900 1082.15688692189 
   25900    559.37914   -423.47686    1.0129596    1082.1569 
26000 1109.24701028847 
   26000    573.38234   -431.03511    1.0354738     1109.247 
26100 1093.23786480572 
   26100    565.10703   -436.77171   0.99078137    1093.2379 
26200 1096.28825980371 
   26200    566.68381   -431.01879   0.96317134    1096.2883 
26300 1122.7790143206 
   26300    580.37718   -427.83878    1.1043919     1122.779 
26400 1159.49087111081 
   26400    599.35396   -438.88232    1.0615106    1159.4909 
26500 1146.3518492633 
   26500    592.56225   -436.23828     1.081387    1146.3518 
26600 1129.99394864991 
   26600    584.10666   -431.06491   0.98276242    1129.9939 
26700 1113.45530979544 
   26700    575.55765   -428.90576    1.0023969    1113.4553 
26800 1163.05024644586 
   26800    601.19384   -428.43195    1.0027627    1163.0502 
26900 1107.6890662379 
   26900    572.57702   -434.50373   0.99890178    1107.6891 
27000 1184.76510419115 
   27000    612.41849   -436.40975    1.0479347    1184.7651 
27100 1171.55086614811 
   27100     605.5879   -438.82928    1.0121052    1171.5509 
27200 1160.36468417461 
   27200    599.80564   -445.04614    0.8441548    1160.3647 
27300 1146.08727950591 
   27300    592.42549   -438.91354    1.0179868    1146.0873 
27400 1169.46004277364 
   27400    604.50713   -433.68946   0.99332143      1169.46 
27500 1171.50405696412 
   27500    605.56371    -433.4121   0.95552913    1171.5041 
27600 1182.46017106864 
   27600    611.22705   -437.99441    1.0501054    1182.4602 
27700 1204.52875453663 
   27700    622.63455   -441.67881   0.96268913    1204.5288 
27800 1179.94152973767 
   27800    609.92513   -435.51095    1.0342746    1179.9415 
27900 1162.34243368097 
   27900    600.82796   -426.04489   0.96596199    1162.3424 
28000 1215.15997711329 
   28000    628.12995   -438.96477    1.0325338      1215.16 
28100 1182.42950177954 
   28100    611.21119   -440.98944    1.0232965    1182.4295 
28200 1199.52196939073 
   28200    620.04648   -441.22197    1.0181072     1199.522 
28300 1217.61637436355 
   28300    629.39969   -440.48412    1.0734645    1217.6164 
28400 1226.87261554595 
   28400    634.18434   -428.36062    1.0543306    1226.8726 
28500 1183.35839557198 
   28500    611.69135   -436.52662    1.0025706    1183.3584 
28600 1266.93520258848 
   28600    654.89315   -437.25954    1.0458821    1266.9352 
28700 1239.63515353134 
   28700    640.78144   -439.78399    1.0686719    1239.6352 
28800 1259.35537181054 
   28800    650.97505   -450.80379   0.96394262    1259.3554 
28900 1241.69758207496 
   28900    641.84754   -427.42262    1.0365654    1241.6976 
29000 1230.80146871315 
   29000    636.21521   -428.28413    1.0335496    1230.8015 
29100 1233.60969131948 
   29100    637.66681    -436.0699   0.98818665    1233.6097 
29200 1248.56315328218 
   29200    645.39643   -442.89394    1.0309305    1248.5632 
29300 1242.28199764732 
   29300    642.14963   -432.62971   0.96874042     1242.282 
29400 1277.68869595032 
   29400    660.45175   -446.52468    1.0668561    1277.6887 
29500 1255.14851548401 
   29500    648.80048   -443.37242    1.0090219    1255.1485 
29600 1269.67089565514 
   29600    656.30726   -437.03344    1.0128809    1269.6709 
29700 1253.79242610741 
   29700     648.0995   -453.01706   0.97356084    1253.7924 
29800 1316.29119372248 
   29800    680.40582    -441.1773    1.0372129    1316.2912 
29900 1300.61808734729 
   29900    672.30421   -433.66941    1.0252767    1300.6181 
30000 1336.76228335261 
   30000    690.98756   -442.91696     1.045465    1336.7623 
30100 1321.33828540206 
   30100    683.01472   -438.57241   0.95187913    1321.3383 
30200 1260.14033153181 
   30200     651.3808   -441.98333    1.0009934    1260.1403 
30300 1316.32822911742 
   30300    680.42496   -444.44554    1.0410493    1316.3282 
30400 1293.22846017712 
   30400    668.48443    -449.5828    1.0012459    1293.2285 
30500 1331.7698716282 
   30500    688.40692   -451.05534    1.0098982    1331.7699 
30600 1320.07706880039 
   30600    682.36278   -435.25971    1.0219941    1320.0771 
30700 1313.03382658854 
   30700    678.72205   -455.55801   0.98770035    1313.0338 
30800 1348.73734344911 
   30800     697.1776   -445.33166    1.0400875    1348.7373 
30900 1324.73289976875 
   30900    684.76943   -435.97996    1.0390273    1324.7329 
31000 1370.30592256456 
   31000    708.32664   -444.32128    1.0498387    1370.3059 
31100 1370.924476473 
   31100    708.64638   -452.73248    1.0011604    1370.9245 
31200 1367.57531811438 
   31200    706.91516   -439.73775    1.0598995    1367.5753 
31300 1328.65943909031 
   31300     686.7991   -438.99205    1.0471595    1328.6594 
31400 1352.59378087364 
   31400    699.17104   -434.11017    1.0123143    1352.5938 
31500 1381.73853035696 
   31500    714.23629   -442.27637    1.0739848    1381.7385 
31600 1401.97844606687 
   31600    724.69853   -445.88994    1.0341648    1401.9784 
31700 1379.86848874083 
   31700    713.26964   -440.56712    1.0132789    1379.8685 
31800 1384.91368307386 
   31800    715.87756   -441.41787    1.0789759    1384.9137 
31900 1397.70148274892 
   31900    722.48772   -439.71179    1.0055137    1397.7015 
32000 1399.24254511705 
   32000    723.28431   -442.82796    1.0967763    1399.2425 
32100 1399.73483363069 
   32100    723.53878   -431.59339   0.99184835    1399.7348 
32200 1422.21183014156 
   32200    735.15739   -436.93038    1.0016878    1422.2118 
32300 1416.03721500191 
   32300    731.96567   -442.82362   0.96237553    1416.0372 
32400 1425.95792230478 
   32400    737.09379   -442.37925    1.0422321    1425.9579 
32500 1445.23354689604 
   32500    747.05758   -447.01899    1.0892736    1445.2335 
32600 1412.26625538494 
   32600    730.01641   -445.38027   0.97156491    1412.2663 
32700 1413.70168862993 
   32700    730.75841   -440.72455     1.031064    1413.7017 
32800 1419.03326416515 
   32800    733.51436   -442.80996    1.0001212    1419.0333 
32900 1450.98121248439 
   32900    750.02861   -442.36897     1.000573    1450.9812 
33000 1469.76048249489 
   33000    759.73583   -437.07257     1.007512    1469.7605 
33100 1431.10582395599 
   33100     739.7548   -440.55564   0.95047973    1431.1058 
33200 1440.60481695375 
   33200    744.66494   -442.64484    1.0367459    1440.6048 
33300 1482.45879170228 
   33300    766.29973   -427.33219    1.0235387    1482.4588 
33400 1469.36578643446 
   33400    759.53181   -426.43434    1.0597257    1469.3658 
33500 1473.40794340301 
   33500    761.62124   -430.45622   0.99386575    1473.4079 
33600 1479.72828348487 
   33600     764.8883   -424.03457   0.96266806    1479.7283 
33700 1481.48556270972 
   33700    765.79666   -431.99871    1.0439866    1481.4856 
33800 1440.17276010285 
   33800     744.4416   -433.60316   0.98609827    1440.1728 
33900 1473.63221963408 
   33900    761.73718   -425.33222   0.98903848    1473.6322 
34000 1490.3949955551 
   34000    770.40204    -431.0148   0.98684622     1490.395 
34100 1514.81522543719 
   34100    783.02514   -424.49676     1.035916    1514.8152 
34200 1528.90981673759 
   34200    790.31079   -433.06163    1.0228455    1528.9098 
34300 1511.38386330427 
   34300    781.25143   -436.93112    1.0273956    1511.3839 
34400 1468.50585898624 
   34400     759.0873   -432.09913    1.0091779    1468.5059 
34500 1557.56754105818 
   34500    805.12429   -431.04899    0.9524517    1557.5675 
34600 1534.77700423906 
   34600    793.34361   -421.93307   0.98165435     1534.777 
34700 1533.24943087336 
   34700    792.55399   -433.95201    1.0016172    1533.2494 
34800 1538.53936848171 
   34800    795.28842   -429.89853    1.0125494    1538.5394 
34900 1538.68224764881 
   34900    795.36227   -430.26583    1.0138241    1538.6822 
35000 1554.12866730615 
   35000     803.3467   -423.71635    1.0499884    1554.1287 
35100 1525.04779285646 
   35100    788.31447    -423.0855   0.98185032    1525.0478 
35200 1513.02632400401 
   35200    782.10043    -432.1411     1.005017    1513.0263 
35300 1530.4615547287 
   35300     791.1129   -426.05139   0.96128281    1530.4616 
35400 1550.29507469513 
   35400    801.36507   -441.11774     1.002191    1550.2951 
35500 1566.94177413428 
   35500    809.96994   -426.49108   0.98512413    1566.9418 
35600 1593.57033483696 
   35600    823.73455   -429.60606    1.0072194    1593.5703 
35700 1589.85008543015 
   35700    821.81151   -434.15743    1.0236928    1589.8501 
35800 1586.06068728493 
   35800    819.85272   -425.01124    1.0139176    1586.0607 
35900 1641.65252086557 
   35900    848.58877   -423.14904   0.99312505    1641.6525 
36000 1572.6136588746 
   36000     812.9018   -438.66766    1.0065664    1572.6137 
36100 1589.39491556662 
   36100    821.57622   -427.96067    1.0557005    1589.3949 
36200 1611.50585761691 
   36200    833.00562   -436.45888   0.99240904    1611.5059 
36300 1624.69522665227 
   36300    839.82335   -431.04956    1.0113008    1624.6952 
36400 1618.3670166849 
   36400    836.55223   -433.38637    1.0553773     1618.367 
36500 1634.81341932679 
   36500    845.05356   -424.50205    1.0420609    1634.8134 
36600 1633.55569748472 
   36600    844.40343   -424.64768     1.003927    1633.5557 
36700 1630.02391777463 
   36700    842.57781   -430.03827    1.0541253    1630.0239 
36800 1646.22377872825 
   36800    850.95171    -419.0236    1.0278803    1646.2238 
36900 1633.2848872656 
   36900    844.26345   -425.70749    1.0098698    1633.2849 
37000 1655.97034339385 
   37000    855.98982   -426.25704    1.0142788    1655.9703 
37100 1691.35361864953 
   37100    874.27983    -419.4201     1.074181    1691.3536 
37200 1654.46751464646 
   37200    855.21299   -429.88344    1.0602886    1654.4675 
37300 1624.0884866382 
   37300    839.50972   -423.41559   0.97221039    1624.0885 
37400 1626.87254749339 
   37400    840.94884   -421.56431   0.93873368    1626.8725 
37500 1661.64568822239 
   37500    858.92347   -426.72911    1.0029117    1661.6457 
37600 1677.66021466121 
   37600    867.20156   -423.00883    1.0391576    1677.6602 
37700 1694.15887881278 
   37700     875.7299   -416.78849   0.99619657    1694.1589 
37800 1657.09036598879 
   37800    856.56877    -432.7125    1.0246985    1657.0904 
37900 1669.58402967174 
   37900    863.02688   -412.11463    0.9530484     1669.584 
38000 1701.60658941498 
   38000    879.57971   -434.49591    1.0213549    1701.6066 
38100 1681.41668021466 
   38100    869.14332   -424.52566    1.0144633    1681.4167 
38200 1728.97177542093 
   38200    893.72508   -437.16167     1.022205    1728.9718 
38300 1712.88059924582 
   38300    885.40737   -426.81731    1.0229159    1712.8806 
38400 1742.81176427992 
   38400    900.87913    -428.6594    1.0374206    1742.8118 
38500 1704.71291749248 
   38500     881.1854   -432.39911   0.99732079    1704.7129 
38600 1707.73216186253 
   38600    882.74609   -427.01713   0.97731429    1707.7322 
38700 1763.20594555325 
   38700    911.42111   -418.39636     1.071629    1763.2059 
38800 1749.33877766252 
   38800    904.25302   -434.20494    1.0444548    1749.3388 
38900 1744.19478002577 
   38900    901.59403   -411.76286    1.0124961    1744.1948 
39000 1752.45939137529 
   39000     905.8661   -419.22771    1.0001811    1752.4594 
39100 1740.50360642491 
   39100    899.68602    -423.2054    1.0261119    1740.5036 
39200 1710.58061407934 
   39200    884.21848   -411.23914   0.95430675    1710.5806 
39300 1785.00938996116 
   39300    922.69156   -427.10029    1.0108781    1785.0094 
39400 1815.10506133565 
   39400    938.24835   -424.19302    1.0144688    1815.1051 
39500 1831.29660566613 
   39500    946.61795   -414.15944    1.0141876    1831.2966 
39600 1753.49330706417 
   39600    906.40054   -423.82417    1.0118373    1753.4933 
39700 1745.72008600255 
   39700    902.38247   -427.73809    1.0029794    1745.7201 
39800 1806.96589307635 
   39800    934.04112   -422.78009    1.0673358    1806.9659 
39900 1787.3668664406 
   39900    923.91017   -421.62796     1.015089    1787.3669 
40000 1786.73546794695 
   40000    923.58379     -421.582   0.99821014    1786.7355 
40100 1831.83413570134 
   40100     946.8958   -409.62112    1.0468384    1831.8341 
40200 1817.04645054159 
   40200    939.25188    -430.1866    1.0152723    1817.0465 
40300 1800.6786188339 
   40300    930.79116   -414.89133   0.98751876    1800.6786 
40400 1815.20661180576 
   40400    938.30085   -415.59764   0.98673791    1815.2066 
40500 1817.26298398712 
   40500    939.36381    -422.5199   0.96233792     1817.263 
40600 1839.78399932149 
   40600    951.00518   -418.02573    1.0002218     1839.784 
40700 1803.55922375351 
   40700    932.28018   -426.69529   0.99926462    1803.5592 
40800 1794.25340310485 
   40800    927.46989   -420.32719   0.96618766    1794.2534 
40900 1825.18830072552 
   40900    943.46049   -427.00208    1.0368659    1825.1883 
41000 1856.26713393669 
   41000    959.52549   -420.71907    1.0170726    1856.2671 
41100 1850.04588183899 
   41100    956.30966   -418.81729    1.0070733    1850.0459 
41200 1865.25865002046 
   41200    964.17331   -428.90421    1.0356976    1865.2587 
41300 1893.96152989156 
   41300    979.01015   -420.33381    1.0228476    1893.9615 
41400 1847.375565408 
   41400    954.92934   -416.64413     1.009766    1847.3756 
41500 1859.43239243229 
   41500    961.16165   -430.86058    1.0408901    1859.4324 
41600 1899.71505397755 
   41600    981.98422   -411.02768    1.0158762    1899.7151 
41700 1879.68506250688 
   41700    971.63049   -421.93026   0.99045842    1879.6851 
41800 1891.84084947356 
   41800    977.91395   -426.31908    1.0063765    1891.8408 
41900 1869.08207036782 
   41900    966.14968   -417.50636   0.99180098    1869.0821 
42000 1902.12356414687 
   42000     983.2292   -413.53783    1.0332897    1902.1236 
42100 1916.88118988128 
   42100    990.85759   -423.27924    1.0722786    1916.8812 
42200 1906.18187975863 
   42200    985.32699   -415.33636     1.009054    1906.1819 
42300 1877.66010288792 
   42300    970.58376   -415.43725   0.99970707    1877.6601 
42400 1885.19681508958 
   42400    974.47957   -418.48373   0.98409604    1885.1968 
42500 1906.06897673275 
   42500    985.26863   -416.45214   0.97111129     1906.069 
42600 1911.75150246456 
   42600    988.20599   -417.67483    0.9578832    1911.7515 
42700 1986.54855963091 
   42700    1026.8694   -424.72425    1.0593059    1986.5486 
42800 1945.25015202333 
   42800    1005.5218   -432.68482    1.0220132    1945.2502 
42900 1920.91449438614 
   42900    992.94245    -420.7939    1.0007179    1920.9145 
43000 1928.7142185086 
   43000    996.97421   -419.18801    1.0003796    1928.7142 
43100 1903.85326631333 
   43100     984.1233   -422.09285    1.0098326    1903.8533 
43200 1987.1688664215 
   43200    1027.1901   -426.90129    1.0506097    1987.1689 
43300 1949.99619283054 
   43300    1007.9751   -421.57997     1.017776    1949.9962 
43400 1989.55591161125 
   43400     1028.424   -408.12599    1.0372518    1989.5559 
43500 1933.28306972731 
   43500     999.3359    -432.1098   0.98977686    1933.2831 
43600 1967.85586432484 
   43600     1017.207   -408.37519   0.98928766    1967.8559 
43700 1939.5224802012 
   43700    1002.5611   -416.20457   0.96001596    1939.5225 
43800 1991.19031818525 
   43800    1029.2688   -419.50336    1.0112369    1991.1903 
43900 2018.89155536918 
   43900    1043.5879   -416.43456    1.0253954    2018.8916 
44000 2023.27129745046 
   44000    1045.8518   -421.41478     1.013895    2023.2713 
44100 2009.37057912789 
   44100    1038.6664   -419.48027    1.0093127    2009.3706 
44200 2017.22644781798 
   44200    1042.7272   -422.72523   0.98966369    2017.2264 
44300 2009.50235427666 
   44300    1038.7345   -425.03421    1.0136173    2009.5024 
44400 2003.57822783274 
   44400    1035.6723   -421.20135     1.032027    2003.5782 
44500 1994.66076977845 
   44500    1031.0627   -420.89094   0.95935352    1994.6608 
44600 2062.56524463085 
   44600    1066.1633   -423.17056    1.0170888    2062.5652 
44700 2010.93443833361 
   44700    1039.4748   -422.09346    1.0173146    2010.9344 
44800 2039.5602044628 
   44800    1054.2718    -420.8081    1.0085124    2039.5602 
44900 2014.24867428966 
   44900    1041.1879   -431.08908     1.016778    2014.2487 
45000 2028.28232736633 
   45000    1048.4421   -422.10736   0.98895869    2028.2823 
45100 2061.90817327886 
   45100    1065.8237   -427.92329    1.0063761    2061.9082 
45200 2096.57084295051 
   45200    1083.7412   -431.94344    1.0337309    2096.5708 
45300 2080.05443688829 
   45300    1075.2037   -418.65784    1.0538171    2080.0544 
45400 2049.99096254238 
   45400    1059.6635   -422.95315   0.97247807     2049.991 
45500 2094.79109350362 
   45500    1082.8212   -420.53377    1.0108231    2094.7911 
45600 2066.4210564162 
   45600    1068.1564   -420.76741   0.99443859    2066.4211 
45700 2080.73304386621 
   45700    1075.5545   -423.69409     1.015556     2080.733 
45800 2126.48044219172 
   45800    1099.2018   -427.77675    1.0378244    2126.4804 
45900 2024.50873543922 
   45900    1046.4915   -424.26636   0.98996254    2024.5087 
46000 2080.52556248393 
   46000    1075.4472   -423.78464    1.0172203    2080.5256 
46100 2097.90931941482 
   46100    1084.4331   -412.89104    1.0057362    2097.9093 
46200 2127.89786976106 
   46200    1099.9345   -434.26621    1.0108339    2127.8979 
46300 2117.77060621087 
   46300    1094.6996   -415.34921     1.004789    2117.7706 
46400 2087.57609113327 
   46400    1079.0917   -418.53563   0.94257068    2087.5761 
46500 2111.23168009343 
   46500    1091.3196   -418.13913   0.97540277    2111.2317 
46600 2146.82070814912 
   46600    1109.7159   -422.47773    1.0708856    2146.8207 
46700 2169.83410514821 
   46700    1121.6118   -414.93284     1.016377    2169.8341 
46800 2132.61139447963 
   46800     1102.371   -430.93044   0.99782531    2132.6114 
46900 2171.09233897298 
   46900    1122.2622   -435.08336    1.0593856    2171.0923 
47000 2150.61692613924 
   47000    1111.6782   -411.79581    1.0021813    2150.6169 
47100 2099.96951317915 
   47100     1085.498   -420.33924    1.0115993    2099.9695 
47200 2127.41022399244 
   47200    1099.6824   -436.67413    1.0106375    2127.4102 
47300 2130.63354319353 
   47300    1101.3486   -408.11623   0.99504443    2130.6335 
47400 2127.19543733125 
   47400    1099.5714   -419.92145   0.98350649    2127.1954 
47500 2190.8502836344 
   47500    1132.4753   -426.46758    1.0328911    2190.8503 
47600 2176.11911313023 
   47600    1124.8606   -422.79854    1.0044767    2176.1191 
47700 2169.03839629244 
   47700    1121.2005   -414.68096    1.0540519    2169.0384 
47800 2147.32332913012 
   47800    1109.9757   -426.42468   0.99135783    2147.3233 
47900 2153.2498814544 
   47900    1113.0392   -418.67207   0.95938413    2153.2499 
48000 2214.36612762563 
   48000    1144.6309   -409.72635   0.99959482    2214.3661 
48100 2209.7340366756 
   48100    1142.2365   -431.64593    1.0099422     2209.734 
48200 2218.0929028225 
   48200    1146.5573   -415.78179    1.0285159    2218.0929 
48300 2227.00746767171 
   48300    1151.1654    -425.8746    1.0343791    2227.0075 
48400 2223.46289793836 
   48400    1149.3331    -417.5785    1.0203034    2223.4629 
48500 2210.72250636183 
   48500    1142.7475   -405.49322   0.97139709    2210.7225 
48600 2276.67438612349 
   48600    1176.8388   -430.42117    1.0434002    2276.6744 
48700 2193.28741317523 
   48700    1133.7351    -409.8867    1.0146409    2193.2874 
48800 2252.87130701044 
   48800    1164.5347   -410.76332    1.0069705    2252.8713 
48900 2215.69279195243 
   48900    1145.3167   -412.28228   0.97475117    2215.6928 
49000 2268.05303566442 
   49000    1172.3823   -415.04147    1.0296802     2268.053 
49100 2277.6221361718 
   49100    1177.3287   -415.30971    1.0060242    2277.6221 
49200 2252.25894932248 
   49200    1164.2181   -417.13374   0.99720855    2252.2589 
49300 2244.98627838508 
   49300    1160.4588   -416.45512    1.0012926    2244.9863 
49400 2290.60367465148 
   49400     1184.039   -412.57308   0.99943726    2290.6037 
49500 2289.64199446679 
   49500    1183.5419   -421.45731    1.0267361     2289.642 
49600 2232.52185053035 
   49600    1154.0158   -416.68121     1.014739    2232.5219 
49700 2312.79496473354 
   49700    1195.5099   -421.85937    1.0181092     2312.795 
49800 2252.59754640689 
   49800    1164.3932   -406.85002   0.97432732    2252.5975 
49900 2283.95268346707 
   49900     1180.601   -422.66939    1.0172709    2283.9527 
50000 2284.40264679785 
   50000    1180.8336   -414.87987   0.97600118    2284.4026 
50100 2287.65583987287 
   50100    1182.5152   -410.45289   0.99827859    2287.6558 
50200 2333.11969683689 
   50200     1206.016   -415.04557    1.0294306    2333.1197 
50300 2288.47906791104 
   50300    1182.9407   -411.77656   0.98298448    2288.4791 
50400 2288.95603471623 
   50400    1183.1873   -407.28274    1.0023625     2288.956 
50500 2326.69959859952 
   50500    1202.6974   -422.00476     1.039514    2326.6996 
50600 2363.4803512749 
   50600    1221.7097   -416.05017   0.99970585    2363.4804 
50700 2399.57515387375 
   50700    1240.3676   -408.00497    1.0260463    2399.5752 
50800 2314.32232142026 
   50800    1196.2994   -415.15628    1.0273793    2314.3223 
50900 2304.27518347117 
   50900    1191.1059   -416.01641   0.97974455    2304.2752 
51000 2298.96453686121 
   51000    1188.3608   -412.47728   0.98148067    2298.9645 
51100 2338.61916877631 
   51100    1208.8587   -410.57779    0.9842007    2338.6192 
51200 2352.46307934059 
   51200    1216.0148   -410.18509     1.019743    2352.4631 
51300 2363.27924113132 
   51300    1221.6058   -417.12977    1.0068923    2363.2792 
51400 2419.60282259492 
   51400    1250.7201   -407.89709    1.0157274    2419.6028 
51500 2400.36222045069 
   51500    1240.7744   -414.11952    1.0052753    2400.3622 
51600 2376.15082108461 
   51600    1228.2593   -401.96196    1.0272272    2376.1508 
51700 2382.33095915905 
   51700    1231.4538   -409.49043    1.0078181     2382.331 
51800 2397.31287191108 
   51800    1239.1982    -403.0907    0.9683309    2397.3129 
51900 2407.06440826635 
   51900    1244.2388   -408.17513    1.0264354    2407.0644 
52000 2411.29550452844 
   52000    1246.4259   -411.66233    1.0101345    2411.2955 
52100 2440.93504129806 
   52100     1261.747   -404.10651    1.0348836     2440.935 
52200 2402.68214740531 
   52200    1241.9736   -409.73843   0.97911939    2402.6821 
52300 2432.51416819314 
   52300    1257.3941   -402.40052   0.98959348    2432.5142 
52400 2358.3719994736 
   52400    1219.0692   -408.70832   0.97234251     2358.372 
52500 2407.02650640111 
   52500    1244.2192   -410.22534    1.0084009    2407.0265 
52600 2475.30683604538 
   52600    1279.5141   -422.65972    1.0320477    2475.3068 
52700 2440.62477651165 
   52700    1261.5866   -399.34381   0.99722372    2440.6248 
52800 2422.39076595586 
   52800    1252.1612   -418.49053    1.0098205    2422.3908 
52900 2423.53159636164 
   52900    1252.7509   -425.02747   0.99471363    2423.5316 
53000 2402.61565116104 
   53000    1241.9392   -416.77628    1.0119376    2402.6157 
53100 2429.84093963884 
   53100    1256.0123   -408.32655    1.0204718    2429.8409 
53200 2478.79045223843 
   53200    1281.3148   -417.39666    1.0251861    2478.7905 
53300 2476.62981997631 
   53300     1280.198   -408.20381   0.98548542    2476.6298 
53400 2468.53453254447 
   53400    1276.0134    -418.7647   0.97483005    2468.5345 
53500 2497.2494496122 
   53500    1290.8565   -414.71723    1.0658121    2497.2494 
53600 2483.2327711753 
   53600    1283.6111    -415.0755    1.0457067    2483.2328 
53700 2461.76451757606 
   53700    1272.5139   -400.95648    0.9962142    2461.7645 
53800 2453.59507618292 
   53800    1268.2911   -405.74136    1.0077513    2453.5951 
53900 2497.4946418832 
   53900    1290.9833   -418.88983   0.99141702    2497.4946 
54000 2504.94255088474 
   54000    1294.8332   -406.12319    1.0382067    2504.9426 
54100 2505.7115956357 
   54100    1295.2307   -411.34119    1.0521459    2505.7116 
54200 2574.40852302018 
   54200    1330.7409   -411.37461    1.0164434    2574.4085 
54300 2511.96735922897 
   54300    1298.4644   -392.98601    0.9902979    2511.9674 
54400 2553.57825944845 
   54400    1319.9735   -408.60597    1.0142797    2553.5783 
54500 2534.05281411717 
   54500    1309.8806   -400.34409    1.0145627    2534.0528 
54600 2481.4923223435 
   54600    1282.7115   -401.18723    1.0026894    2481.4923 
54700 2549.53102374526 
   54700    1317.8814   -404.38452    1.0266912     2549.531 
54800 2504.60598134599 
   54800    1294.6592   -413.66775    0.9938037     2504.606 
54900 2545.33099107275 
   54900    1315.7104   -409.04915    1.0107884     2545.331 
55000 2555.38541062883 
   55000    1320.9076    -400.3714    1.0194903    2555.3854 
55100 2544.98558344123 
   55100    1315.5319   -410.29668    1.0288037    2544.9856 
55200 2573.35374449135 
   55200    1330.1957    -397.8358    1.0187485    2573.3537 
55300 2557.96590799801 
   55300    1322.2415   -403.86067   0.96201908    2557.9659 
55400 2558.44233095759 
   55400    1322.4878   -392.53655    1.0341445    2558.4423 
55500 2560.32252120575 
   55500    1323.4597   -414.70694    1.0337246    2560.3225 
55600 2575.93548907728 
   55600    1331.5302   -408.42134    1.0308803    2575.9355 
55700 2506.28052476543 
   55700    1295.5248   -409.11222   0.98511212    2506.2805 
55800 2577.60599507714 
   55800    1332.3937   -401.60753   0.99536308     2577.606 
55900 2671.04987090708 
   55900    1380.6959   -400.69889    1.0329206    2671.0499 
56000 2643.10239146035 
   56000    1366.2495   -408.71986    1.0721791    2643.1024 
56100 2615.42540826474 
   56100     1351.943   -396.39177    1.0251918    2615.4254 
56200 2610.43606310752 
   56200     1349.364   -403.62333    1.0350898    2610.4361 
56300 2633.00698334777 
   56300    1361.0311   -402.84726    1.0327094     2633.007 
56400 2590.27625364217 
   56400    1338.9431   -392.31178    0.9797563    2590.2763 
56500 2638.72913634075 
   56500     1363.989   -408.24273    1.0428397    2638.7291 
56600 2626.08682752824 
   56600     1357.454   -403.46963   0.99831935    2626.0868 
56700 2708.00167967523 
   56700    1399.7967   -396.14961    1.0830501    2708.0017 
56800 2575.79049440283 
   56800    1331.4553     -404.736   0.94653215    2575.7905 
56900 2606.76175218908 
   56900    1347.4647   -409.66447   0.93971477    2606.7618 
57000 2608.77290970063 
   57000    1348.5042   -401.78838    1.0324223    2608.7729 
57100 2642.5275398619 
   57100    1365.9524   -398.04871    1.0182312    2642.5275 
57200 2664.86415789245 
   57200    1377.4984   -406.29241   0.98377633    2664.8642 
57300 2703.99680436679 
   57300    1397.7266    -404.2421    1.0233398    2703.9968 
57400 2689.00196467111 
   57400    1389.9756   -404.48198    1.0373728     2689.002 
57500 2682.9704797079 
   57500    1386.8578   -410.21569    1.0674544    2682.9705 
57600 2708.46169916642 
   57600    1400.0345   -394.26843    1.0454062    2708.4617 
57700 2677.49161145989 
   57700    1384.0257   -403.80628    1.0262025    2677.4916 
57800 2712.9611816183 
   57800    1402.3603   -404.05507    1.0326029    2712.9612 
57900 2688.20996463488 
   57900    1389.5662   -405.78378     1.043818      2688.21 
58000 2733.16299487195 
   58000    1412.8029   -396.44137   0.98516879     2733.163 
58100 2720.73923241658 
   58100    1406.3809   -400.80165    1.0017412    2720.7392 
58200 2763.05382431937 
   58200    1428.2538    -398.9339    1.0125787    2763.0538 
58300 2728.82899462246 
   58300    1410.5626   -406.80158    1.0221628     2728.829 
58400 2740.54686790069 
   58400    1416.6197   -397.24329    1.0450104    2740.5469 
58500 2724.65554165331 
   58500    1408.4053   -404.81698     1.027934    2724.6555 
58600 2757.14756470678 
   58600    1425.2008   -401.38128    1.0652815    2757.1476 
58700 2706.67527323374 
   58700    1399.1111   -409.13905    1.0263161    2706.6753 
58800 2760.80783254398 
   58800    1427.0928   -397.52876    1.0325948    2760.8078 
58900 2735.62751540328 
   58900    1414.0768   -403.01827    1.0337349    2735.6275 
59000 2746.10257954789 
   59000    1419.4915   -411.24271    1.0186579    2746.1026 
59100 2799.96082611496 
   59100    1447.3314   -402.40196    1.0244331    2799.9608 
59200 2804.56405983578 
   59200    1449.7109   -400.98816   0.98960751    2804.5641 
59300 2798.52227618025 
   59300    1446.5878   -406.06614    1.0353796    2798.5223 
59400 2829.83879105152 
   59400    1462.7757   -406.64873    1.0589826    2829.8388 
59500 2806.47335499549 
   59500    1450.6978   -404.44285     1.039101    2806.4734 
59600 2818.1532050876 
   59600    1456.7353   -410.77335    1.0386409    2818.1532 
59700 2785.98386978303 
   59700    1440.1066   -406.59335    1.0360485    2785.9839 
59800 2717.07038626156 
   59800    1404.4844   -393.71944   0.95321002    2717.0704 
59900 2846.11606217943 
   59900    1471.1896   -405.92592    1.0407948    2846.1161 
60000 2831.32017555955 
   60000    1463.5414   -401.92938    1.0298023    2831.3202 
60100 2867.76726939273 
   60100    1482.3814   -401.27307   0.99519377    2867.7673 
60200 2797.19512213659 
   60200    1445.9018   -410.36134    1.0158255    2797.1951 
60300 2852.44888047779 
   60300    1474.4631   -408.29449    1.0237895    2852.4489 
60400 2854.20986748189 
   60400    1475.3734   -410.51046    1.0194087    2854.2099 
60500 2889.14346091415 
   60500     1493.431   -407.78446    1.0406317    2889.1435 
60600 2836.94983405017 
   60600    1466.4515   -398.17307    1.0429072    2836.9498 
60700 2839.63778849051 
   60700    1467.8409   -400.34781    1.0250538    2839.6378 
60800 2883.9403450109 
   60800    1490.7414   -408.10911    1.0860947    2883.9403 
60900 2815.08624469982 
   60900    1455.1499   -402.71111    1.0200367    2815.0862 
61000 2878.90315694703 
   61000    1488.1376   -397.64575    1.0189889    2878.9032 
61100 2900.10837574089 
   61100    1499.0988   -387.27714    1.0220976    2900.1084 
61200 2878.37721794941 
   61200    1487.8658   -412.80603    1.0514906    2878.3772 
61300 2887.00423646537 
   61300    1492.3252   -394.95103    1.0724164    2887.0042 
61400 2870.21917748379 
   61400    1483.6488   -407.48024    1.0142929    2870.2192 
61500 2855.59642754657 
   61500    1476.0901   -397.16648   0.99203349    2855.5964 
61600 2832.40922974781 
   61600    1464.1044   -395.05927   0.98888839    2832.4092 
61700 2859.00854026392 
   61700    1477.8539    -394.2612   0.97326488    2859.0085 
61800 2798.3361987267 
   61800    1446.4917   -390.53256   0.94819387    2798.3362 
61900 2828.51940479625 
   61900    1462.0937   -397.50984   0.95970699    2828.5194 
62000 2943.4026450346 
   62000    1521.4781   -394.14227    1.0377652    2943.4026 
62100 2935.81424105196 
   62100    1517.5556   -393.52958    1.0322512    2935.8142 
62200 2951.37372472441 
   62200    1525.5985   -391.34262    1.0245961    2951.3737 
62300 2882.25298620401 
   62300    1489.8692   -389.91711   0.95534784     2882.253 
62400 2941.98148657035 
   62400    1520.7435   -393.83002     1.001353    2941.9815 
62500 2920.80690606629 
   62500    1509.7982   -386.90442    1.0097578    2920.8069 
62600 2987.81557803463 
   62600    1544.4357   -401.89593     1.005322    2987.8156 
62700 2920.50704280021 
   62700    1509.6432    -397.7736   0.99992075     2920.507 
62800 2868.5159358762 
   62800    1482.7684   -381.45315   0.94694695    2868.5159 
62900 2907.68827973657 
   62900     1503.017   -395.46712    1.0141743    2907.6883 
63000 2928.35567348465 
   63000    1513.7002   -382.27179   0.95200797    2928.3557 
63100 2964.29415704568 
   63100    1532.2772   -397.37493   0.98604807    2964.2942 
63200 2976.68887074472 
   63200    1538.6842   -385.36796   0.99476257    2976.6889 
63300 2948.01615803863 
   63300    1523.8629   -392.58606     1.042072    2948.0162 
63400 2945.83033852886 
   63400     1522.733    -388.5231    1.0136603    2945.8303 
63500 2979.54526389125 
   63500    1540.1607   -391.06613    1.0129699    2979.5453 
63600 2919.05251753683 
   63600    1508.8913    -381.1631   0.98025619    2919.0525 
63700 2954.33119184382 
   63700    1527.1272    -382.9369   0.95929368    2954.3312 
63800 2968.3265129362 
   63800    1534.3616   -394.29808    0.9758686    2968.3265 
63900 2998.4102284851 
   63900    1549.9122    -380.4822   0.97367747    2998.4102 
64000 2979.30815148333 
   64000    1540.0381   -385.31645    1.0079497    2979.3082 
Loop time of 264.715 on 1 procs for 54000 steps with 4000 atoms

Performance: 17.625 ns/day, 1.362 hours/ns, 203.993 timesteps/s
98.3% CPU use with 1 MPI tasks x no OpenMP threads

MPI task timing breakdown:
Section |  min time  |  avg time  |  max time  |%varavg| %total
---------------------------------------------------------------
Pair    | 98.069     | 98.069     | 98.069     |   0.0 | 37.05
Neigh   | 139.6      | 139.6      | 139.6      |   0.0 | 52.74
Comm    | 3.3491     | 3.3491     | 3.3491     |   0.0 |  1.27
Output  | 5.3531     | 5.3531     | 5.3531     |   0.0 |  2.02
Modify  | 17.521     | 17.521     | 17.521     |   0.0 |  6.62
Other   |            | 0.8207     |            |       |  0.31

Nlocal:        4000.00 ave        4000 max        4000 min
Histogram: 1 0 0 0 0 0 0 0 0 0
Nghost:        139.000 ave         139 max         139 min
Histogram: 1 0 0 0 0 0 0 0 0 0
Neighs:        154.000 ave         154 max         154 min
Histogram: 1 0 0 0 0 0 0 0 0 0
FullNghs:      308.000 ave         308 max         308 min
Histogram: 1 0 0 0 0 0 0 0 0 0

Total # of neighbors = 308
Ave neighs/atom = 0.077
Neighbor list builds = 5350
Dangerous builds = 4997
64000 2979.30815148333 
Per MPI rank memory allocation (min/avg/max) = 189.1 | 189.1 | 189.1 Mbytes
Step KinEng PotEng Press Temp 
   64000    1540.0381   -385.31645    1.0079497    2979.3082 
64100 3003.16368947185 
   64100    1552.3693   -391.24303    1.0272855    3003.1637 
64200 3070.97319958283 
   64200    1587.4208   -377.14996    1.0737254    3070.9732 
64300 3020.52102095099 
   64300    1561.3415   -382.46599    1.0170395     3020.521 
64400 3032.96867283648 
   64400    1567.7758   -394.38554    1.0300347    3032.9687 
64500 2953.98987180545 
   64500    1526.9508   -377.99355    1.0076292    2953.9899 
64600 2959.75176198442 
   64600    1529.9292   -376.12212   0.99239893    2959.7518 
64700 2969.27730289946 
   64700     1534.853   -393.27118   0.98939015    2969.2773 
64800 2996.82738243756 
   64800     1549.094   -370.97333   0.98811338    2996.8274 
64900 2967.91108141065 
   64900    1534.1468   -388.12051    1.0143927    2967.9111 
65000 2969.39228127787 
   65000    1534.9125   -374.38692    1.0075086    2969.3923 
65100 2980.66051685986 
   65100    1540.7372    -385.2016    1.0339528    2980.6605 
65200 2950.97874917857 
   65200    1525.3943   -388.07101    1.0052671    2950.9787 
65300 2984.77731768801 
   65300    1542.8652   -367.42288   0.98602271    2984.7773 
65400 2954.6488164747 
   65400    1527.2914    -385.9946   0.97660462    2954.6488 
65500 2995.74660976955 
   65500    1548.5353   -386.13574   0.98963956    2995.7466 
65600 3035.42785511447 
   65600     1569.047    -378.2212    1.0087819    3035.4279 
65700 3005.27629633478 
   65700    1553.4613   -380.64456    1.0000603    3005.2763 
65800 3010.24548779804 
   65800      1556.03   -380.47904   0.97168657    3010.2455 
65900 2965.13822590903 
   65900    1532.7135   -382.40188    1.0159223    2965.1382 
66000 2953.72232604882 
   66000    1526.8125   -379.45973   0.98362806    2953.7223 
66100 2972.25384668205 
   66100    1536.3917   -392.61203    1.0433727    2972.2538 
66200 3071.37789929205 
   66200      1587.63   -381.07989    1.0472062    3071.3779 
66300 3048.12788200098 
   66300    1575.6118   -387.11953    1.0403372    3048.1279 
66400 3031.05814091073 
   66400    1566.7883   -379.44179    1.0259089    3031.0581 
66500 3030.24745307401 
   66500    1566.3692   -388.44138    1.0399206    3030.2475 
66600 2911.97157295565 
   66600    1505.2311   -373.52683    0.9776182    2911.9716 
66700 2936.57196105951 
   66700    1517.9473   -383.27275   0.95080506     2936.572 
66800 3044.500727504 
   66800    1573.7369   -387.46259    1.0618071    3044.5007 
66900 2972.63123240203 
   66900    1536.5867   -395.92019    1.0080779    2972.6312 
67000 3031.77563878601 
   67000    1567.1591   -375.73153    1.0401235    3031.7756 
67100 3081.04518552932 
   67100    1592.6271   -380.31099    1.0471752    3081.0452 
67200 2896.65510117354 
   67200    1497.3138   -378.57042   0.99348961    2896.6551 
67300 3032.03560149816 
   67300    1567.2935   -377.53719    1.0235571    3032.0356 
67400 3007.21863088952 
   67400    1554.4654   -390.74534    1.0509328    3007.2186 
67500 3010.85527400809 
   67500    1556.3452   -374.69095   0.99616318    3010.8553 
67600 2949.33373110937 
   67600     1524.544   -377.83781   0.98858715    2949.3337 
67700 3032.89670632751 
   67700    1567.7386    -387.6185    1.0493008    3032.8967 
67800 2926.35037752624 
   67800    1512.6636   -383.74997     1.004083    2926.3504 
67900 3039.05280496439 
   67900    1570.9208   -384.13253    1.0470034    3039.0528 
68000 3067.75332234032 
   68000    1585.7564   -371.18191   0.98753056    3067.7533 
68100 2924.00652998149 
   68100    1511.4521   -390.51284   0.98510833    2924.0065 
68200 3016.45598153837 
   68200    1559.2402   -390.93638    1.0642112     3016.456 
68300 3021.74934327645 
   68300    1561.9764   -382.59878    1.0170627    3021.7493 
68400 2989.15150130392 
   68400    1545.1262   -387.23174    1.0263026    2989.1515 
68500 3028.86049409859 
   68500    1565.6523    -384.1248    1.0401016    3028.8605 
68600 2995.85729982076 
   68600    1548.5926   -392.55167    1.0060551    2995.8573 
68700 3005.80789801368 
   68700    1553.7361   -383.29092    1.0111904    3005.8079 
68800 3031.00571544013 
   68800    1566.7612   -381.23023    1.0647703    3031.0057 
68900 2995.79941654877 
   68900    1548.5626   -377.26461   0.99218942    2995.7994 
69000 2961.50450889961 
   69000    1530.8352   -390.98126   0.97757398    2961.5045 
69100 3086.58320617038 
   69100    1595.4898   -380.51003    1.0691857    3086.5832 
69200 2954.92876552975 
   69200    1527.4361   -383.64907   0.99095768    2954.9288 
69300 2974.43833176016 
   69300    1537.5208   -378.27413   0.95209001    2974.4383 
69400 2930.83189935609 
   69400    1514.9802   -386.61665    1.0211567    2930.8319 
69500 2951.85152255198 
   69500    1525.8455   -384.50134    1.0163572    2951.8515 
69600 3026.38369548237 
   69600     1564.372      -385.98    1.0405723    3026.3837 
69700 2992.75916053235 
   69700    1546.9911   -392.04154    1.0139716    2992.7592 
69800 3018.88114077691 
   69800    1560.4938   -386.17954    1.0609791    3018.8811 
69900 2925.37250048576 
   69900    1512.1582   -387.24225   0.99116246    2925.3725 
70000 2947.17366472476 
   70000    1523.4274   -375.05311   0.97180411    2947.1737 
70100 3069.87394132871 
   70100    1586.8526   -389.51536    1.0404531    3069.8739 
70200 2975.93184722155 
   70200    1538.2929    -384.3296    1.0338263    2975.9318 
70300 3091.80804879448 
   70300    1598.1906   -380.93858    1.0387839     3091.808 
70400 2935.72732148339 
   70400    1517.5107   -390.78911   0.97946705    2935.7273 
70500 3067.95543961895 
   70500    1585.8609   -373.87141     1.019024    3067.9554 
70600 3061.7216698202 
   70600    1582.6386   -388.50138     1.019794    3061.7217 
70700 2926.4982682805 
   70700    1512.7401   -380.94025   0.97343838    2926.4983 
70800 3079.13946853766 
   70800     1591.642   -377.63043    1.0279878    3079.1395 
70900 2945.19806044051 
   70900    1522.4062   -379.40797   0.99078888    2945.1981 
71000 3031.71172836309 
   71000    1567.1261   -383.88632    1.0189857    3031.7117 
71100 3013.63408127174 
   71100    1557.7816   -378.49786    1.0362791    3013.6341 
71200 2975.95123225632 
   71200    1538.3029    -382.2414    1.0171509    2975.9512 
71300 2927.27101938113 
   71300    1513.1395   -379.80056   0.99529684     2927.271 
71400 3013.99118668224 
   71400    1557.9662   -379.21744    1.0243955    3013.9912 
71500 3050.67323638236 
   71500    1576.9275    -380.7911    1.0349481    3050.6732 
71600 2983.71189526733 
   71600    1542.3145    -384.0932   0.99885592    2983.7119 
71700 2963.80383457134 
   71700    1532.0238   -378.68376   0.99021503    2963.8038 
71800 2994.71323553068 
   71800    1548.0012   -373.30535   0.98335463    2994.7132 
71900 3077.89513434294 
   71900    1590.9988     -376.458    1.0134148    3077.8951 
72000 2921.86864757472 
   72000     1510.347   -375.88031   0.97802464    2921.8686 
72100 2977.87983305189 
   72100    1539.2998    -377.4214    1.0235702    2977.8798 
72200 2955.9790743703 
   72200     1527.979   -381.70983   0.95381219    2955.9791 
72300 3014.32123480813 
   72300    1558.1368   -383.94313   0.99823471    3014.3212 
72400 2968.74207445434 
   72400    1534.5764   -376.72121   0.98636869    2968.7421 
72500 2983.70822258536 
   72500    1542.3126   -389.91396    1.0090873    2983.7082 
72600 3000.17442001851 
   72600    1550.8241   -374.86774    1.0173252    3000.1744 
72700 2938.9957587353 
   72700    1519.2002   -375.97246    0.9767238    2938.9958 
72800 3006.63873333118 
   72800    1554.1656   -386.47066   0.99033018    3006.6387 
72900 2999.44163030226 
   72900    1550.4453   -380.97364    1.0412933    2999.4416 
73000 3017.05113239106 
   73000    1559.5479    -379.2593    1.0049543    3017.0511 
73100 3017.82561376373 
   73100    1559.9482   -375.48616    1.0396844    3017.8256 
73200 2989.00275026694 
   73200    1545.0494   -383.30537    1.0133237    2989.0028 
73300 2973.64146192002 
   73300    1537.1089   -386.45513    1.0095029    2973.6415 
73400 3023.64443193 
   73400     1562.956   -385.31649    1.0433285    3023.6444 
73500 3040.48357344611 
   73500    1571.6604   -374.55462    1.0305085    3040.4836 
73600 2920.25132248712 
   73600     1509.511   -384.66112   0.97292079    2920.2513 
73700 3031.2448823217 
   73700    1566.8848   -382.73999     1.025246    3031.2449 
73800 3037.56016840248 
   73800    1570.1492   -378.74717    1.0564275    3037.5602 
73900 2992.24743523332 
   73900    1546.7266   -383.13527    1.0203298    2992.2474 
74000 3020.23251815358 
   74000    1561.1924   -389.76774    1.0558586    3020.2325 
Loop time of 67.7604 on 1 procs for 10000 steps with 4000 atoms

Performance: 12.751 ns/day, 1.882 hours/ns, 147.579 timesteps/s
98.9% CPU use with 1 MPI tasks x no OpenMP threads

MPI task timing breakdown:
Section |  min time  |  avg time  |  max time  |%varavg| %total
---------------------------------------------------------------
Pair    | 17.201     | 17.201     | 17.201     |   0.0 | 25.38
Neigh   | 45.292     | 45.292     | 45.292     |   0.0 | 66.84
Comm    | 0.88876    | 0.88876    | 0.88876    |   0.0 |  1.31
Output  | 0.98725    | 0.98725    | 0.98725    |   0.0 |  1.46
Modify  | 3.2405     | 3.2405     | 3.2405     |   0.0 |  4.78
Other   |            | 0.1508     |            |       |  0.22

Nlocal:        4000.00 ave        4000 max        4000 min
Histogram: 1 0 0 0 0 0 0 0 0 0
Nghost:        139.000 ave         139 max         139 min
Histogram: 1 0 0 0 0 0 0 0 0 0
Neighs:        148.000 ave         148 max         148 min
Histogram: 1 0 0 0 0 0 0 0 0 0
FullNghs:      296.000 ave         296 max         296 min
Histogram: 1 0 0 0 0 0 0 0 0 0

Total # of neighbors = 296
Ave neighs/atom = 0.074
Neighbor list builds = 995
Dangerous builds = 960
Total wall time: 0:06:00
