LAMMPS (29 Oct 2020)
Created orthogonal box = (0.0000000 0.0000000 0.0000000) to (34.822829 34.822829 34.822829)
  1 by 1 by 1 MPI processor grid
Lattice spacing in x,y,z = 2.1937008 2.1937008 2.1937008
Created 8192 atoms
  create_atoms CPU = 0.003 seconds
Created 8192 atoms
  create_atoms CPU = 0.003 seconds
Neighbor list info ...
  update every 1 steps, delay 10 steps, check yes
  max neighbors/atom: 2000, page size: 100000
  master list distance cutoff = 6.5
  ghost atom cutoff = 6.5
  binsize = 3.25, bins = 11 11 11
  2 neighbor lists, perpetual/occasional/extra = 2 0 0
  (1) pair meam/c, perpetual
      attributes: full, newton on
      pair build: full/bin/atomonly
      stencil: full/bin/3d
      bin: standard
  (2) pair meam/c, perpetual, half/full from (1)
      attributes: half, newton on
      pair build: halffull/newton
      stencil: none
      bin: none
2.19370078740157 -nan
Per MPI rank memory allocation (min/avg/max) = 156.3 | 156.3 | 156.3 Mbytes
Step KinEng PotEng Press Temp 
       0            0    587688.63         -nan            0 
Loop time of 1.19209e-06 on 1 procs for 0 steps with 16384 atoms

167.8% CPU use with 1 MPI tasks x no OpenMP threads

MPI task timing breakdown:
Section |  min time  |  avg time  |  max time  |%varavg| %total
---------------------------------------------------------------
Pair    | 0          | 0          | 0          |   0.0 |  0.00
Neigh   | 0          | 0          | 0          |   0.0 |  0.00
Comm    | 0          | 0          | 0          |   0.0 |  0.00
Output  | 0          | 0          | 0          |   0.0 |  0.00
Modify  | 0          | 0          | 0          |   0.0 |  0.00
Other   |            | 1.192e-06  |            |       |100.00

Nlocal:        16384.0 ave       16384 max       16384 min
Histogram: 1 0 0 0 0 0 0 0 0 0
Nghost:        26341.0 ave       26341 max       26341 min
Histogram: 1 0 0 0 0 0 0 0 0 0
Neighs:    3.62245e+06 ave 3.62245e+06 max 3.62245e+06 min
Histogram: 1 0 0 0 0 0 0 0 0 0
FullNghs:  7.24489e+06 ave 7.24489e+06 max 7.24489e+06 min
Histogram: 1 0 0 0 0 0 0 0 0 0

Total # of neighbors = 7244892
Ave neighs/atom = 442.19312
Neighbor list builds = 0
Dangerous builds = 0
Total wall time: 0:00:05
