ITEM: TIMESTEP
0
ITEM: NUMBER OF ATOMS
16384
ITEM: BOX BOUNDS pp pp pp
0.0000000000000000e+00 3.4822829376247199e+01
0.0000000000000000e+00 3.4822829376247199e+01
0.0000000000000000e+00 3.4822829376247199e+01
ITEM: ATOMS id type x y z
1 4 0 0 0
2 4 1.09685 1.09685 0
3 4 3.29055 1.09685 0
4 4 3.29055 0 1.09685
5 4 2.1937 1.09685 1.09685
32 4 1.09685 2.1937 1.09685
33 4 0 3.29055 1.09685
34 4 3.29055 2.1937 1.09685
35 4 2.1937 3.29055 1.09685
522 4 3.29055 0 3.29055
523 4 2.1937 1.09685 3.29055
553 4 1.09685 3.29055 2.1937
554 4 0 3.29055 3.29055
555 4 3.29055 3.29055 2.1937
556 4 3.29055 2.1937 3.29055
557 4 2.1937 3.29055 3.29055
8193 2 0 0 0
8194 2 1.09685 1.09685 0
8195 2 1.09685 0 1.09685
8196 2 0 1.09685 1.09685
8197 2 3.29055 0 1.09685
8226 2 0 2.1937 0
8227 2 1.09685 3.29055 0
8228 2 3.29055 2.1937 1.09685
8730 2 1.09685 1.09685 2.1937
8731 2 0 1.09685 3.29055
8732 2 3.29055 1.09685 2.1937
8733 2 3.29055 0 3.29055
8734 2 2.1937 1.09685 3.29055
8760 2 2.1937 2.1937 2.1937
8761 2 3.29055 3.29055 2.1937
6 4 5.48425 0 1.09685
7 4 4.3874 1.09685 1.09685
10 4 6.5811 1.09685 1.09685
36 4 4.3874 2.1937 0
37 4 5.48425 3.29055 0
38 4 5.48425 2.1937 1.09685
39 4 4.3874 3.29055 1.09685
42 4 6.5811 3.29055 1.09685
524 4 5.48425 0 3.29055
527 4 6.5811 1.09685 3.29055
558 4 4.3874 2.1937 2.1937
559 4 5.48425 2.1937 3.29055
560 4 4.3874 3.29055 3.29055
561 4 6.5811 2.1937 2.1937
8198 2 4.3874 0 0
8199 2 5.48425 1.09685 0
8229 2 4.3874 2.1937 0
8230 2 5.48425 3.29055 0
8735 2 4.3874 0 2.1937
8736 2 5.48425 0 3.29055
8737 2 4.3874 1.09685 3.29055
8739 2 6.5811 1.09685 3.29055
8762 2 5.48425 3.29055 2.1937
8763 2 5.48425 2.1937 3.29055
8764 2 6.5811 3.29055 3.29055
8 4 7.67795 1.09685 0
9 4 7.67795 0 1.09685
11 4 8.7748 0 0
12 4 8.7748 1.09685 1.09685
40 4 7.67795 3.29055 0
41 4 7.67795 2.1937 1.09685
43 4 8.7748 2.1937 0
44 4 9.87165 3.29055 0
45 4 8.7748 3.29055 1.09685
525 4 7.67795 1.09685 2.1937
526 4 7.67795 0 3.29055
528 4 8.7748 0 2.1937
529 4 9.87165 0 3.29055
562 4 7.67795 3.29055 2.1937
563 4 9.87165 3.29055 2.1937
564 4 9.87165 2.1937 3.29055
8200 2 7.67795 1.09685 0
8201 2 9.87165 0 1.09685
8231 2 8.7748 2.1937 0
8232 2 9.87165 2.1937 1.09685
8738 2 7.67795 0 3.29055
8740 2 8.7748 0 2.1937
8741 2 8.7748 1.09685 3.29055
8765 2 9.87165 3.29055 2.1937
8766 2 9.87165 2.1937 3.29055
8767 2 8.7748 3.29055 3.29055
13 4 13.1622 0 0
46 4 12.0654 2.1937 1.09685
47 4 10.9685 3.29055 1.09685
48 4 13.1622 2.1937 0
51 4 13.1622 3.29055 1.09685
530 4 12.0654 0 3.29055
531 4 10.9685 1.09685 3.29055
565 4 10.9685 2.1937 2.1937
566 4 12.0654 3.29055 2.1937
567 4 12.0654 2.1937 3.29055
568 4 13.1622 2.1937 2.1937
8202 2 12.0654 0 1.09685
8203 2 10.9685 1.09685 1.09685
8204 2 13.1622 0 0
8206 2 13.1622 1.09685 1.09685
8233 2 12.0654 3.29055 0
8742 2 10.9685 1.09685 3.29055
8743 2 13.1622 0 2.1937
8745 2 13.1622 1.09685 3.29055
8768 2 12.0654 3.29055 2.1937
8769 2 10.9685 3.29055 3.29055
8770 2 13.1622 2.1937 2.1937
8772 2 13.1622 3.29055 3.29055
14 4 15.3559 0 0
15 4 16.4528 0 1.09685
16 4 15.3559 1.09685 1.09685
49 4 14.2591 3.29055 0
50 4 14.2591 2.1937 1.09685
52 4 15.3559 3.29055 1.09685
532 4 14.2591 1.09685 2.1937
533 4 14.2591 0 3.29055
534 4 15.3559 0 2.1937
535 4 15.3559 1.09685 3.29055
569 4 14.2591 3.29055 2.1937
570 4 14.2591 2.1937 3.29055
8205 2 14.2591 1.09685 0
8207 2 15.3559 0 0
8208 2 16.4528 0 1.09685
8234 2 14.2591 3.29055 0
8235 2 14.2591 2.1937 1.09685
8236 2 15.3559 2.1937 0
8237 2 15.3559 3.29055 1.09685
8744 2 14.2591 1.09685 2.1937
8746 2 15.3559 0 2.1937
8747 2 16.4528 0 3.29055
8771 2 14.2591 3.29055 2.1937
8773 2 15.3559 2.1937 2.1937
8774 2 16.4528 2.1937 3.29055
8775 2 15.3559 3.29055 3.29055
17 4 17.5496 0 0
18 4 18.6465 1.09685 0
19 4 18.6465 0 1.09685
20 4 20.8402 1.09685 0
21 4 20.8402 0 1.09685
53 4 17.5496 2.1937 0
54 4 18.6465 3.29055 0
55 4 18.6465 2.1937 1.09685
56 4 17.5496 3.29055 1.09685
57 4 19.7433 2.1937 0
58 4 20.8402 3.29055 0
59 4 19.7433 3.29055 1.09685
536 4 17.5496 0 2.1937
537 4 18.6465 1.09685 2.1937
538 4 18.6465 0 3.29055
539 4 17.5496 1.09685 3.29055
571 4 17.5496 2.1937 2.1937
572 4 18.6465 3.29055 2.1937
573 4 18.6465 2.1937 3.29055
574 4 17.5496 3.29055 3.29055
575 4 19.7433 2.1937 2.1937
576 4 20.8402 3.29055 2.1937
577 4 19.7433 3.29055 3.29055
8209 2 18.6465 1.09685 0
8210 2 20.8402 1.09685 0
8211 2 20.8402 0 1.09685
8212 2 19.7433 1.09685 1.09685
8238 2 17.5496 2.1937 0
8239 2 18.6465 3.29055 0
8240 2 20.8402 2.1937 1.09685
8241 2 19.7433 3.29055 1.09685
8748 2 17.5496 0 2.1937
8749 2 17.5496 1.09685 3.29055
8750 2 20.8402 1.09685 2.1937
8751 2 20.8402 0 3.29055
8752 2 19.7433 1.09685 3.29055
8776 2 18.6465 3.29055 2.1937
8777 2 17.5496 3.29055 3.29055
8778 2 19.7433 2.1937 2.1937
22 4 23.0339 1.09685 0
23 4 24.1307 0 0
60 4 23.0339 2.1937 1.09685
61 4 21.937 3.29055 1.09685
540 4 21.937 0 2.1937
541 4 24.1307 0 2.1937
578 4 21.937 3.29055 3.29055
581 4 24.1307 3.29055 3.29055
8213 2 21.937 0 0
8214 2 23.0339 0 1.09685
8215 2 21.937 1.09685 1.09685
8217 2 24.1307 1.09685 1.09685
8242 2 23.0339 2.1937 1.09685
8243 2 24.1307 2.1937 0
8753 2 21.937 1.09685 3.29055
8779 2 23.0339 2.1937 3.29055
8780 2 21.937 3.29055 3.29055
8782 2 24.1307 3.29055 3.29055
24 4 25.2276 1.09685 0
25 4 27.4213 1.09685 0
62 4 25.2276 2.1937 1.09685
63 4 26.3244 2.1937 0
64 4 27.4213 3.29055 0
65 4 27.4213 2.1937 1.09685
542 4 25.2276 1.09685 2.1937
543 4 27.4213 1.09685 2.1937
544 4 27.4213 0 3.29055
545 4 26.3244 1.09685 3.29055
579 4 25.2276 3.29055 2.1937
580 4 25.2276 2.1937 3.29055
582 4 27.4213 3.29055 2.1937
8216 2 25.2276 1.09685 0
8218 2 26.3244 0 0
8219 2 27.4213 1.09685 0
8220 2 26.3244 1.09685 1.09685
8244 2 25.2276 3.29055 0
8245 2 26.3244 2.1937 0
8246 2 27.4213 2.1937 1.09685
8754 2 25.2276 1.09685 2.1937
8755 2 25.2276 0 3.29055
8756 2 26.3244 1.09685 3.29055
8781 2 25.2276 2.1937 3.29055
8783 2 26.3244 2.1937 2.1937
8784 2 27.4213 3.29055 2.1937
8785 2 26.3244 3.29055 3.29055
26 4 29.615 1.09685 0
27 4 30.7118 0 0
29 4 30.7118 1.09685 1.09685
66 4 29.615 3.29055 0
67 4 29.615 2.1937 1.09685
68 4 30.7118 2.1937 0
546 4 28.5181 0 2.1937
547 4 29.615 1.09685 2.1937
548 4 29.615 0 3.29055
549 4 28.5181 1.09685 3.29055
550 4 30.7118 1.09685 3.29055
583 4 28.5181 2.1937 2.1937
584 4 29.615 3.29055 2.1937
8221 2 28.5181 0 0
8222 2 29.615 0 1.09685
8223 2 28.5181 1.09685 1.09685
8247 2 28.5181 2.1937 0
8248 2 29.615 3.29055 0
8249 2 29.615 2.1937 1.09685
8250 2 28.5181 3.29055 1.09685
8251 2 30.7118 2.1937 0
8757 2 28.5181 0 2.1937
8758 2 29.615 0 3.29055
8786 2 28.5181 3.29055 3.29055
8787 2 30.7118 2.1937 2.1937
28 4 31.8087 0 1.09685
30 4 32.9055 0 0
31 4 34.0024 1.09685 0
69 4 31.8087 3.29055 0
70 4 32.9055 2.1937 0
71 4 34.0024 3.29055 0
72 4 32.9055 3.29055 1.09685
551 4 32.9055 0 2.1937
552 4 32.9055 1.09685 3.29055
585 4 31.8087 2.1937 3.29055
586 4 34.0024 3.29055 2.1937
8224 2 31.8087 0 1.09685
8225 2 32.9055 0 0
8252 2 32.9055 2.1937 0
8253 2 34.0024 3.29055 0
8254 2 34.0024 2.1937 1.09685
8255 2 32.9055 3.29055 1.09685
8759 2 34.0024 1.09685 2.1937
8788 2 31.8087 2.1937 3.29055
8789 2 34.0024 3.29055 2.1937
73 4 1.09685 4.3874 1.09685
74 4 3.29055 4.3874 1.09685
75 4 2.1937 5.48425 1.09685
99 4 1.09685 6.5811 1.09685
101 4 2.1937 6.5811 0
103 4 3.29055 6.5811 1.09685
587 4 0 4.3874 2.1937
588 4 1.09685 5.48425 2.1937
589 4 1.09685 4.3874 3.29055
590 4 3.29055 5.48425 2.1937
591 4 2.1937 5.48425 3.29055
8256 2 1.09685 4.3874 1.09685
8257 2 0 5.48425 1.09685
8258 2 2.1937 4.3874 0
8259 2 3.29055 5.48425 0
8295 2 0 6.5811 0
8296 2 2.1937 6.5811 0
8298 2 3.29055 6.5811 1.09685
8790 2 0 4.3874 2.1937
8791 2 1.09685 4.3874 3.29055
8792 2 0 5.48425 3.29055
8793 2 2.1937 4.3874 2.1937
8794 2 3.29055 5.48425 2.1937
8795 2 2.1937 5.48425 3.29055
8824 2 0 6.5811 2.1937
8826 2 2.1937 6.5811 2.1937
76 4 6.5811 4.3874 0
104 4 4.3874 6.5811 0
105 4 5.48425 6.5811 1.09685
613 4 4.3874 6.5811 2.1937
8260 2 4.3874 4.3874 0
8261 2 5.48425 4.3874 1.09685
8262 2 4.3874 5.48425 1.09685
8263 2 6.5811 4.3874 0
8264 2 6.5811 5.48425 1.09685
8299 2 4.3874 6.5811 0
8301 2 6.5811 6.5811 0
8796 2 5.48425 4.3874 3.29055
8797 2 4.3874 5.48425 3.29055
8799 2 6.5811 5.48425 3.29055
8827 2 4.3874 6.5811 2.1937
77 4 7.67795 4.3874 1.09685
78 4 9.87165 4.3874 1.09685
107 4 7.67795 6.5811 1.09685
592 4 8.7748 4.3874 2.1937
593 4 9.87165 4.3874 3.29055
8265 2 8.7748 4.3874 0
8266 2 9.87165 5.48425 0
8267 2 9.87165 4.3874 1.09685
8305 2 9.87165 6.5811 1.09685
8798 2 7.67795 5.48425 2.1937
8800 2 8.7748 5.48425 3.29055
8831 2 8.7748 6.5811 2.1937
79 4 12.0654 5.48425 0
80 4 12.0654 4.3874 1.09685
81 4 13.1622 4.3874 0
108 4 10.9685 6.5811 0
110 4 12.0654 6.5811 1.09685
111 4 13.1622 6.5811 0
594 4 10.9685 4.3874 2.1937
595 4 12.0654 5.48425 2.1937
596 4 13.1622 4.3874 2.1937
618 4 10.9685 6.5811 2.1937
619 4 12.0654 6.5811 3.29055
8268 2 10.9685 4.3874 0
8269 2 12.0654 5.48425 0
8270 2 12.0654 4.3874 1.09685
8272 2 13.1622 5.48425 1.09685
8801 2 12.0654 5.48425 2.1937
8802 2 12.0654 4.3874 3.29055
8803 2 13.1622 5.48425 3.29055
82 4 14.2591 4.3874 1.09685
83 4 15.3559 5.48425 1.09685
112 4 14.2591 6.5811 1.09685
114 4 15.3559 6.5811 0
116 4 16.4528 6.5811 1.09685
597 4 14.2591 4.3874 3.29055
598 4 15.3559 4.3874 2.1937
599 4 16.4528 5.48425 2.1937
600 4 16.4528 4.3874 3.29055
8271 2 14.2591 5.48425 0
8273 2 15.3559 5.48425 1.09685
8309 2 15.3559 6.5811 0
8310 2 16.4528 6.5811 1.09685
8804 2 15.3559 4.3874 2.1937
84 4 18.6465 4.3874 1.09685
85 4 20.8402 5.48425 0
86 4 19.7433 5.48425 1.09685
119 4 19.7433 6.5811 0
121 4 20.8402 6.5811 1.09685
601 4 18.6465 5.48425 2.1937
602 4 17.5496 5.48425 3.29055
603 4 19.7433 4.3874 2.1937
623 4 17.5496 6.5811 2.1937
626 4 19.7433 6.5811 2.1937
627 4 20.8402 6.5811 3.29055
8274 2 17.5496 4.3874 0
8275 2 18.6465 5.48425 0
8276 2 17.5496 5.48425 1.09685
8277 2 19.7433 4.3874 0
8278 2 20.8402 5.48425 0
8279 2 20.8402 4.3874 1.09685
8280 2 19.7433 5.48425 1.09685
8312 2 17.5496 6.5811 0
8314 2 19.7433 6.5811 0
8315 2 20.8402 6.5811 1.09685
8805 2 18.6465 5.48425 2.1937
8806 2 18.6465 4.3874 3.29055
8807 2 17.5496 5.48425 3.29055
8808 2 19.7433 5.48425 3.29055
8835 2 17.5496 6.5811 2.1937
87 4 23.0339 4.3874 1.09685
88 4 21.937 5.48425 1.09685
90 4 24.1307 5.48425 1.09685
123 4 21.937 6.5811 0
124 4 23.0339 6.5811 1.09685
604 4 24.1307 4.3874 2.1937
628 4 21.937 6.5811 2.1937
8281 2 21.937 4.3874 0
8282 2 23.0339 5.48425 0
8283 2 23.0339 4.3874 1.09685
8316 2 21.937 6.5811 0
8317 2 24.1307 6.5811 0
8809 2 23.0339 5.48425 2.1937
8810 2 23.0339 4.3874 3.29055
8811 2 21.937 5.48425 3.29055
8812 2 24.1307 4.3874 2.1937
8815 2 24.1307 5.48425 3.29055
8839 2 21.937 6.5811 2.1937
8841 2 23.0339 6.5811 3.29055
89 4 25.2276 4.3874 1.09685
91 4 27.4213 5.48425 0
92 4 26.3244 5.48425 1.09685
126 4 27.4213 6.5811 1.09685
605 4 26.3244 5.48425 3.29055
631 4 25.2276 6.5811 3.29055
633 4 26.3244 6.5811 2.1937
8284 2 25.2276 5.48425 0
8285 2 26.3244 4.3874 0
8813 2 25.2276 5.48425 2.1937
8814 2 25.2276 4.3874 3.29055
8816 2 26.3244 4.3874 2.1937
8817 2 27.4213 5.48425 2.1937
8818 2 27.4213 4.3874 3.29055
8819 2 26.3244 5.48425 3.29055
93 4 28.5181 5.48425 1.09685
94 4 30.7118 4.3874 0
128 4 28.5181 6.5811 0
129 4 29.615 6.5811 1.09685
130 4 30.7118 6.5811 0
606 4 29.615 4.3874 3.29055
607 4 28.5181 5.48425 3.29055
608 4 30.7118 5.48425 3.29055
8286 2 29.615 5.48425 0
8287 2 29.615 4.3874 1.09685
8288 2 28.5181 5.48425 1.09685
8289 2 30.7118 4.3874 0
8291 2 30.7118 5.48425 1.09685
8319 2 29.615 6.5811 1.09685
8321 2 30.7118 6.5811 0
8820 2 29.615 4.3874 3.29055
8821 2 30.7118 5.48425 3.29055
8847 2 30.7118 6.5811 2.1937
95 4 32.9055 4.3874 0
96 4 34.0024 5.48425 0
97 4 32.9055 5.48425 1.09685
609 4 32.9055 4.3874 2.1937
610 4 34.0024 5.48425 2.1937
637 4 32.9055 6.5811 2.1937
638 4 34.0024 6.5811 3.29055
8290 2 31.8087 5.48425 0
8292 2 32.9055 4.3874 0
8293 2 34.0024 5.48425 0
8294 2 32.9055 5.48425 1.09685
8323 2 32.9055 6.5811 0
8822 2 34.0024 5.48425 2.1937
8823 2 34.0024 4.3874 3.29055
8849 2 31.8087 6.5811 3.29055
98 4 1.09685 7.67795 0
100 4 0 7.67795 1.09685
102 4 3.29055 7.67795 0
132 4 1.09685 9.87165 0
133 4 3.29055 9.87165 0
611 4 0 7.67795 3.29055
612 4 3.29055 7.67795 2.1937
640 4 1.09685 9.87165 2.1937
641 4 1.09685 8.7748 3.29055
642 4 0 9.87165 3.29055
643 4 3.29055 8.7748 3.29055
8297 2 3.29055 7.67795 0
8326 2 1.09685 9.87165 0
8327 2 1.09685 8.7748 1.09685
8328 2 0 9.87165 1.09685
8329 2 2.1937 8.7748 0
8330 2 3.29055 9.87165 0
8331 2 3.29055 8.7748 1.09685
8332 2 2.1937 9.87165 1.09685
8825 2 1.09685 7.67795 2.1937
8852 2 0 8.7748 2.1937
8853 2 1.09685 9.87165 2.1937
8854 2 1.09685 8.7748 3.29055
8855 2 0 9.87165 3.29055
8856 2 2.1937 8.7748 2.1937
8857 2 3.29055 9.87165 2.1937
8858 2 3.29055 8.7748 3.29055
8859 2 2.1937 9.87165 3.29055
134 4 5.48425 8.7748 1.09685
135 4 6.5811 9.87165 1.09685
614 4 5.48425 7.67795 2.1937
615 4 4.3874 7.67795 3.29055
617 4 6.5811 7.67795 3.29055
645 4 6.5811 9.87165 3.29055
8300 2 5.48425 7.67795 0
8303 2 6.5811 7.67795 1.09685
8333 2 4.3874 8.7748 0
8334 2 5.48425 9.87165 0
8335 2 4.3874 9.87165 1.09685
8828 2 5.48425 7.67795 2.1937
8830 2 6.5811 7.67795 3.29055
8860 2 5.48425 9.87165 2.1937
8861 2 4.3874 9.87165 3.29055
8862 2 6.5811 9.87165 3.29055
106 4 7.67795 7.67795 0
136 4 8.7748 9.87165 1.09685
616 4 7.67795 7.67795 2.1937
644 4 7.67795 8.7748 3.29055
646 4 9.87165 8.7748 3.29055
647 4 8.7748 9.87165 3.29055
8302 2 7.67795 7.67795 0
8304 2 9.87165 7.67795 0
8336 2 7.67795 9.87165 0
8337 2 9.87165 9.87165 0
8338 2 9.87165 8.7748 1.09685
8339 2 8.7748 9.87165 1.09685
8829 2 7.67795 7.67795 2.1937
8832 2 8.7748 7.67795 3.29055
8863 2 9.87165 9.87165 2.1937
109 4 12.0654 7.67795 0
113 4 13.1622 7.67795 1.09685
137 4 10.9685 8.7748 0
138 4 12.0654 9.87165 0
139 4 13.1622 8.7748 0
648 4 12.0654 8.7748 3.29055
649 4 10.9685 9.87165 3.29055
651 4 13.1622 9.87165 3.29055
8306 2 12.0654 7.67795 0
8308 2 13.1622 7.67795 1.09685
8340 2 10.9685 8.7748 0
8341 2 12.0654 8.7748 1.09685
8342 2 10.9685 9.87165 1.09685
8345 2 13.1622 9.87165 1.09685
8864 2 10.9685 8.7748 2.1937
8865 2 12.0654 8.7748 3.29055
8866 2 13.1622 8.7748 2.1937
115 4 16.4528 7.67795 0
117 4 15.3559 7.67795 1.09685
140 4 14.2591 9.87165 0
141 4 16.4528 9.87165 0
142 4 15.3559 9.87165 1.09685
620 4 14.2591 7.67795 2.1937
621 4 16.4528 7.67795 2.1937
622 4 15.3559 7.67795 3.29055
650 4 14.2591 8.7748 3.29055
652 4 16.4528 9.87165 2.1937
653 4 15.3559 9.87165 3.29055
8307 2 14.2591 7.67795 0
8311 2 15.3559 7.67795 1.09685
8343 2 14.2591 9.87165 0
8344 2 14.2591 8.7748 1.09685
8346 2 15.3559 9.87165 1.09685
8833 2 14.2591 7.67795 2.1937
8834 2 16.4528 7.67795 2.1937
8867 2 14.2591 9.87165 2.1937
8868 2 15.3559 8.7748 2.1937
8869 2 16.4528 9.87165 2.1937
118 4 17.5496 7.67795 1.09685
120 4 20.8402 7.67795 0
122 4 19.7433 7.67795 1.09685
143 4 18.6465 8.7748 1.09685
144 4 17.5496 9.87165 1.09685
145 4 20.8402 9.87165 0
146 4 20.8402 8.7748 1.09685
147 4 19.7433 9.87165 1.09685
624 4 18.6465 7.67795 2.1937
625 4 17.5496 7.67795 3.29055
654 4 17.5496 8.7748 2.1937
655 4 18.6465 9.87165 2.1937
656 4 18.6465 8.7748 3.29055
657 4 19.7433 8.7748 2.1937
658 4 20.8402 9.87165 2.1937
8313 2 18.6465 7.67795 0
8347 2 18.6465 9.87165 0
8348 2 17.5496 9.87165 1.09685
8349 2 20.8402 8.7748 1.09685
8350 2 19.7433 9.87165 1.09685
8836 2 18.6465 7.67795 2.1937
8837 2 17.5496 7.67795 3.29055
8838 2 20.8402 7.67795 2.1937
8870 2 18.6465 9.87165 2.1937
8871 2 20.8402 9.87165 2.1937
8872 2 20.8402 8.7748 3.29055
8873 2 19.7433 9.87165 3.29055
148 4 21.937 8.7748 0
149 4 23.0339 9.87165 0
150 4 21.937 9.87165 1.09685
629 4 23.0339 7.67795 2.1937
630 4 21.937 7.67795 3.29055
632 4 24.1307 7.67795 3.29055
659 4 23.0339 9.87165 2.1937
660 4 24.1307 8.7748 2.1937
8318 2 24.1307 7.67795 1.09685
8351 2 23.0339 9.87165 0
8352 2 21.937 9.87165 1.09685
8353 2 24.1307 8.7748 0
8355 2 24.1307 9.87165 1.09685
8840 2 23.0339 7.67795 2.1937
8842 2 21.937 7.67795 3.29055
8844 2 24.1307 7.67795 3.29055
8874 2 23.0339 9.87165 2.1937
8875 2 23.0339 8.7748 3.29055
8876 2 21.937 9.87165 3.29055
125 4 27.4213 7.67795 0
127 4 26.3244 7.67795 1.09685
151 4 25.2276 9.87165 0
152 4 26.3244 8.7748 0
153 4 27.4213 9.87165 0
154 4 26.3244 9.87165 1.09685
661 4 25.2276 9.87165 2.1937
662 4 26.3244 8.7748 2.1937
663 4 27.4213 9.87165 2.1937
8354 2 25.2276 8.7748 1.09685
8356 2 26.3244 8.7748 0
8357 2 27.4213 8.7748 1.09685
8358 2 26.3244 9.87165 1.09685
8843 2 25.2276 7.67795 2.1937
8845 2 26.3244 7.67795 3.29055
8877 2 27.4213 8.7748 3.29055
155 4 28.5181 8.7748 0
156 4 29.615 8.7748 1.09685
157 4 28.5181 9.87165 1.09685
158 4 30.7118 8.7748 0
634 4 28.5181 7.67795 3.29055
636 4 30.7118 7.67795 3.29055
664 4 28.5181 8.7748 2.1937
665 4 29.615 8.7748 3.29055
666 4 28.5181 9.87165 3.29055
667 4 30.7118 8.7748 2.1937
8320 2 28.5181 7.67795 1.09685
8322 2 30.7118 7.67795 1.09685
8359 2 29.615 8.7748 1.09685
8360 2 28.5181 9.87165 1.09685
8846 2 28.5181 7.67795 3.29055
8850 2 30.7118 7.67795 3.29055
8878 2 28.5181 8.7748 2.1937
131 4 34.0024 7.67795 0
159 4 32.9055 9.87165 1.09685
635 4 31.8087 7.67795 2.1937
639 4 32.9055 7.67795 3.29055
668 4 31.8087 9.87165 2.1937
669 4 31.8087 8.7748 3.29055
670 4 34.0024 8.7748 3.29055
671 4 32.9055 9.87165 3.29055
8324 2 34.0024 7.67795 0
8325 2 32.9055 7.67795 1.09685
8361 2 31.8087 9.87165 0
8362 2 32.9055 8.7748 0
8363 2 34.0024 9.87165 0
8364 2 34.0024 8.7748 1.09685
8365 2 32.9055 9.87165 1.09685
8848 2 31.8087 7.67795 2.1937
8851 2 34.0024 7.67795 2.1937
8879 2 34.0024 8.7748 3.29055
160 4 0 10.9685 0
161 4 1.09685 12.0654 0
162 4 1.09685 10.9685 1.09685
163 4 0 12.0654 1.09685
164 4 2.1937 10.9685 0
165 4 3.29055 10.9685 1.09685
194 4 1.09685 13.1622 1.09685
196 4 2.1937 13.1622 0
672 4 0 10.9685 2.1937
673 4 1.09685 10.9685 3.29055
674 4 0 12.0654 3.29055
675 4 2.1937 10.9685 2.1937
676 4 3.29055 12.0654 2.1937
677 4 3.29055 10.9685 3.29055
678 4 2.1937 12.0654 3.29055
711 4 0 13.1622 2.1937
713 4 2.1937 13.1622 2.1937
8366 2 0 10.9685 0
8367 2 1.09685 12.0654 0
8368 2 1.09685 10.9685 1.09685
8369 2 0 12.0654 1.09685
8370 2 2.1937 10.9685 0
8371 2 3.29055 12.0654 0
8372 2 3.29055 10.9685 1.09685
8373 2 2.1937 12.0654 1.09685
8404 2 2.1937 13.1622 0
8880 2 0 10.9685 2.1937
8881 2 1.09685 10.9685 3.29055
8882 2 0 12.0654 3.29055
8883 2 2.1937 10.9685 2.1937
8884 2 3.29055 12.0654 2.1937
8885 2 3.29055 10.9685 3.29055
8918 2 0 13.1622 2.1937
8920 2 2.1937 13.1622 2.1937
8922 2 3.29055 13.1622 3.29055
166 4 5.48425 12.0654 0
167 4 5.48425 10.9685 1.09685
168 4 4.3874 12.0654 1.09685
170 4 6.5811 12.0654 1.09685
198 4 4.3874 13.1622 0
200 4 5.48425 13.1622 1.09685
202 4 6.5811 13.1622 0
679 4 4.3874 10.9685 2.1937
680 4 5.48425 12.0654 2.1937
681 4 5.48425 10.9685 3.29055
682 4 6.5811 10.9685 2.1937
684 4 6.5811 12.0654 3.29055
716 4 5.48425 13.1622 3.29055
718 4 6.5811 13.1622 2.1937
8374 2 4.3874 10.9685 0
8375 2 5.48425 12.0654 0
8406 2 4.3874 13.1622 0
8408 2 6.5811 13.1622 0
8886 2 4.3874 10.9685 2.1937
8887 2 5.48425 12.0654 2.1937
8889 2 6.5811 12.0654 3.29055
8923 2 4.3874 13.1622 2.1937
8925 2 5.48425 13.1622 3.29055
8926 2 6.5811 13.1622 2.1937
169 4 7.67795 10.9685 1.09685
171 4 8.7748 10.9685 0
172 4 9.87165 12.0654 0
173 4 9.87165 10.9685 1.09685
174 4 8.7748 12.0654 1.09685
204 4 7.67795 13.1622 1.09685
206 4 9.87165 13.1622 1.09685
683 4 7.67795 12.0654 2.1937
685 4 8.7748 10.9685 2.1937
686 4 9.87165 12.0654 2.1937
687 4 9.87165 10.9685 3.29055
721 4 8.7748 13.1622 2.1937
8376 2 7.67795 12.0654 0
8377 2 7.67795 10.9685 1.09685
8378 2 8.7748 10.9685 0
8379 2 9.87165 12.0654 0
8380 2 9.87165 10.9685 1.09685
8381 2 8.7748 12.0654 1.09685
8410 2 8.7748 13.1622 0
8888 2 7.67795 12.0654 2.1937
8890 2 8.7748 10.9685 2.1937
8891 2 9.87165 12.0654 2.1937
8928 2 8.7748 13.1622 2.1937
8929 2 9.87165 13.1622 3.29055
175 4 10.9685 10.9685 0
176 4 10.9685 12.0654 1.09685
177 4 13.1622 10.9685 0
209 4 13.1622 13.1622 0
688 4 10.9685 10.9685 2.1937
689 4 12.0654 12.0654 2.1937
690 4 12.0654 10.9685 3.29055
693 4 13.1622 12.0654 3.29055
724 4 12.0654 13.1622 3.29055
8382 2 12.0654 12.0654 0
8383 2 12.0654 10.9685 1.09685
8413 2 10.9685 13.1622 0
8414 2 12.0654 13.1622 1.09685
8892 2 12.0654 12.0654 2.1937
8893 2 12.0654 10.9685 3.29055
8894 2 13.1622 10.9685 2.1937
8896 2 13.1622 12.0654 3.29055
8931 2 12.0654 13.1622 3.29055
178 4 14.2591 12.0654 0
179 4 16.4528 12.0654 0
691 4 14.2591 12.0654 2.1937
692 4 14.2591 10.9685 3.29055
725 4 14.2591 13.1622 3.29055
8384 2 14.2591 12.0654 0
8385 2 14.2591 10.9685 1.09685
8386 2 15.3559 10.9685 0
8387 2 16.4528 12.0654 0
8416 2 14.2591 13.1622 1.09685
8417 2 15.3559 13.1622 0
8418 2 16.4528 13.1622 1.09685
8895 2 14.2591 12.0654 2.1937
8897 2 15.3559 10.9685 2.1937
8933 2 15.3559 13.1622 2.1937
180 4 19.7433 10.9685 0
181 4 20.8402 12.0654 0
182 4 19.7433 12.0654 1.09685
212 4 17.5496 13.1622 0
214 4 18.6465 13.1622 1.09685
217 4 20.8402 13.1622 1.09685
694 4 18.6465 10.9685 3.29055
695 4 17.5496 12.0654 3.29055
696 4 20.8402 10.9685 3.29055
728 4 17.5496 13.1622 2.1937
730 4 18.6465 13.1622 3.29055
731 4 19.7433 13.1622 2.1937
732 4 20.8402 13.1622 3.29055
8388 2 17.5496 12.0654 1.09685
8389 2 20.8402 12.0654 0
8390 2 20.8402 10.9685 1.09685
8419 2 17.5496 13.1622 0
8420 2 18.6465 13.1622 1.09685
8421 2 19.7433 13.1622 0
8423 2 20.8402 13.1622 1.09685
8898 2 18.6465 12.0654 2.1937
8899 2 20.8402 12.0654 2.1937
8900 2 20.8402 10.9685 3.29055
8901 2 19.7433 12.0654 3.29055
8937 2 19.7433 13.1622 2.1937
8939 2 20.8402 13.1622 3.29055
183 4 21.937 10.9685 0
184 4 24.1307 10.9685 0
185 4 24.1307 12.0654 1.09685
218 4 21.937 13.1622 0
219 4 23.0339 13.1622 1.09685
220 4 24.1307 13.1622 0
697 4 21.937 12.0654 3.29055
698 4 24.1307 10.9685 2.1937
700 4 24.1307 12.0654 3.29055
734 4 21.937 13.1622 2.1937
8391 2 21.937 10.9685 0
8392 2 23.0339 12.0654 0
8393 2 23.0339 10.9685 1.09685
8394 2 24.1307 12.0654 1.09685
8424 2 21.937 13.1622 0
8902 2 21.937 10.9685 2.1937
8903 2 23.0339 12.0654 2.1937
8904 2 21.937 12.0654 3.29055
8942 2 23.0339 13.1622 3.29055
8943 2 24.1307 13.1622 2.1937
186 4 27.4213 10.9685 1.09685
223 4 27.4213 13.1622 1.09685
699 4 25.2276 12.0654 2.1937
701 4 26.3244 10.9685 2.1937
737 4 25.2276 13.1622 3.29055
739 4 26.3244 13.1622 2.1937
8395 2 26.3244 10.9685 0
8396 2 27.4213 10.9685 1.09685
8397 2 26.3244 12.0654 1.09685
8905 2 25.2276 10.9685 3.29055
8906 2 26.3244 10.9685 2.1937
8907 2 27.4213 12.0654 2.1937
8908 2 27.4213 10.9685 3.29055
8945 2 27.4213 13.1622 3.29055
187 4 29.615 12.0654 0
188 4 29.615 10.9685 1.09685
189 4 28.5181 12.0654 1.09685
224 4 28.5181 13.1622 0
226 4 30.7118 13.1622 0
702 4 28.5181 10.9685 2.1937
703 4 29.615 12.0654 2.1937
704 4 29.615 10.9685 3.29055
705 4 30.7118 10.9685 2.1937
708 4 30.7118 12.0654 3.29055
741 4 29.615 13.1622 3.29055
8398 2 28.5181 10.9685 0
8399 2 29.615 10.9685 1.09685
8400 2 28.5181 12.0654 1.09685
8401 2 30.7118 10.9685 0
8429 2 29.615 13.1622 1.09685
8909 2 28.5181 10.9685 2.1937
8910 2 29.615 12.0654 2.1937
8911 2 29.615 10.9685 3.29055
8912 2 28.5181 12.0654 3.29055
8915 2 30.7118 12.0654 3.29055
8947 2 28.5181 13.1622 2.1937
8948 2 29.615 13.1622 3.29055
8949 2 30.7118 13.1622 2.1937
190 4 31.8087 12.0654 0
191 4 34.0024 12.0654 0
192 4 34.0024 10.9685 1.09685
706 4 31.8087 12.0654 2.1937
707 4 31.8087 10.9685 3.29055
709 4 32.9055 10.9685 2.1937
710 4 34.0024 12.0654 2.1937
744 4 31.8087 13.1622 3.29055
746 4 34.0024 13.1622 3.29055
8402 2 31.8087 12.0654 0
8403 2 34.0024 12.0654 0
8913 2 31.8087 12.0654 2.1937
8914 2 31.8087 10.9685 3.29055
8916 2 32.9055 10.9685 2.1937
8917 2 34.0024 10.9685 3.29055
8951 2 34.0024 13.1622 3.29055
193 4 1.09685 14.2591 0
195 4 0 14.2591 1.09685
197 4 3.29055 14.2591 0
230 4 0 15.3559 0
231 4 1.09685 16.4528 0
232 4 1.09685 15.3559 1.09685
233 4 0 16.4528 1.09685
234 4 3.29055 16.4528 0
235 4 3.29055 15.3559 1.09685
236 4 2.1937 16.4528 1.09685
712 4 1.09685 14.2591 2.1937
714 4 2.1937 14.2591 3.29055
747 4 0 15.3559 2.1937
748 4 1.09685 16.4528 2.1937
749 4 1.09685 15.3559 3.29055
750 4 2.1937 15.3559 2.1937
751 4 3.29055 15.3559 3.29055
8405 2 2.1937 14.2591 1.09685
8431 2 0 15.3559 0
8432 2 1.09685 16.4528 0
8433 2 1.09685 15.3559 1.09685
8434 2 0 16.4528 1.09685
8435 2 3.29055 16.4528 0
8436 2 3.29055 15.3559 1.09685
8919 2 1.09685 14.2591 2.1937
8921 2 3.29055 14.2591 2.1937
8952 2 0 15.3559 2.1937
8953 2 1.09685 16.4528 2.1937
8954 2 3.29055 16.4528 2.1937
8955 2 3.29055 15.3559 3.29055
199 4 5.48425 14.2591 0
201 4 4.3874 14.2591 1.09685
237 4 5.48425 15.3559 1.09685
238 4 4.3874 16.4528 1.09685
239 4 6.5811 15.3559 0
241 4 6.5811 16.4528 1.09685
715 4 5.48425 14.2591 2.1937
717 4 4.3874 14.2591 3.29055
720 4 6.5811 14.2591 3.29055
752 4 5.48425 16.4528 2.1937
8407 2 5.48425 14.2591 0
8409 2 6.5811 14.2591 1.09685
8437 2 4.3874 15.3559 0
8438 2 5.48425 16.4528 0
8439 2 5.48425 15.3559 1.09685
8440 2 4.3874 16.4528 1.09685
8924 2 5.48425 14.2591 2.1937
8956 2 4.3874 15.3559 2.1937
8957 2 5.48425 15.3559 3.29055
8960 2 6.5811 16.4528 3.29055
203 4 7.67795 14.2591 0
205 4 9.87165 14.2591 0
240 4 7.67795 15.3559 1.09685
242 4 9.87165 16.4528 0
243 4 9.87165 15.3559 1.09685
244 4 8.7748 16.4528 1.09685
719 4 7.67795 14.2591 2.1937
722 4 8.7748 14.2591 3.29055
753 4 7.67795 16.4528 2.1937
754 4 7.67795 15.3559 3.29055
755 4 8.7748 15.3559 2.1937
756 4 9.87165 16.4528 2.1937
757 4 8.7748 16.4528 3.29055
8411 2 9.87165 14.2591 0
8412 2 8.7748 14.2591 1.09685
8441 2 9.87165 15.3559 1.09685
8927 2 7.67795 14.2591 2.1937
8958 2 7.67795 16.4528 2.1937
8959 2 7.67795 15.3559 3.29055
8961 2 8.7748 16.4528 3.29055
207 4 12.0654 14.2591 0
208 4 10.9685 14.2591 1.09685
245 4 13.1622 15.3559 0
723 4 12.0654 14.2591 2.1937
726 4 13.1622 14.2591 3.29055
758 4 10.9685 16.4528 3.29055
759 4 13.1622 15.3559 2.1937
760 4 13.1622 16.4528 3.29055
8442 2 12.0654 16.4528 0
8443 2 12.0654 15.3559 1.09685
8930 2 12.0654 14.2591 2.1937
8932 2 13.1622 14.2591 3.29055
8962 2 10.9685 15.3559 2.1937
8963 2 12.0654 16.4528 2.1937
8964 2 10.9685 16.4528 3.29055
210 4 14.2591 14.2591 0
211 4 16.4528 14.2591 0
246 4 14.2591 15.3559 1.09685
247 4 16.4528 16.4528 0
248 4 16.4528 15.3559 1.09685
249 4 15.3559 16.4528 1.09685
727 4 16.4528 14.2591 2.1937
761 4 16.4528 15.3559 3.29055
762 4 15.3559 16.4528 3.29055
8415 2 14.2591 14.2591 0
8444 2 14.2591 16.4528 0
8445 2 14.2591 15.3559 1.09685
8446 2 15.3559 15.3559 0
8934 2 16.4528 14.2591 2.1937
8935 2 15.3559 14.2591 3.29055
8965 2 15.3559 15.3559 2.1937
213 4 18.6465 14.2591 0
215 4 17.5496 14.2591 1.09685
216 4 20.8402 14.2591 0
250 4 17.5496 16.4528 1.09685
251 4 19.7433 15.3559 0
729 4 18.6465 14.2591 2.1937
733 4 19.7433 14.2591 3.29055
763 4 18.6465 15.3559 3.29055
764 4 17.5496 16.4528 3.29055
765 4 19.7433 15.3559 2.1937
766 4 20.8402 15.3559 3.29055
8422 2 20.8402 14.2591 0
8447 2 17.5496 15.3559 0
8448 2 18.6465 16.4528 0
8449 2 19.7433 15.3559 0
8450 2 20.8402 15.3559 1.09685
8936 2 18.6465 14.2591 2.1937
8938 2 20.8402 14.2591 2.1937
8940 2 19.7433 14.2591 3.29055
8966 2 17.5496 15.3559 2.1937
8967 2 18.6465 15.3559 3.29055
8968 2 19.7433 15.3559 2.1937
8969 2 20.8402 16.4528 2.1937
8970 2 19.7433 16.4528 3.29055
252 4 21.937 15.3559 0
253 4 23.0339 15.3559 1.09685
735 4 23.0339 14.2591 2.1937
738 4 24.1307 14.2591 3.29055
767 4 23.0339 16.4528 2.1937
768 4 21.937 16.4528 3.29055
769 4 24.1307 15.3559 2.1937
8425 2 23.0339 14.2591 0
8427 2 24.1307 14.2591 1.09685
8451 2 21.937 15.3559 0
8452 2 23.0339 16.4528 0
8453 2 23.0339 15.3559 1.09685
8454 2 24.1307 15.3559 0
8455 2 24.1307 16.4528 1.09685
8941 2 23.0339 14.2591 2.1937
8971 2 23.0339 16.4528 2.1937
8972 2 23.0339 15.3559 3.29055
8973 2 21.937 16.4528 3.29055
221 4 25.2276 14.2591 0
222 4 27.4213 14.2591 0
254 4 25.2276 16.4528 0
255 4 27.4213 16.4528 0
256 4 27.4213 15.3559 1.09685
736 4 25.2276 14.2591 2.1937
740 4 27.4213 14.2591 2.1937
770 4 27.4213 15.3559 3.29055
771 4 26.3244 16.4528 3.29055
8426 2 25.2276 14.2591 0
8428 2 26.3244 14.2591 1.09685
8456 2 26.3244 15.3559 0
8457 2 27.4213 16.4528 0
8458 2 26.3244 16.4528 1.09685
8944 2 27.4213 14.2591 2.1937
8946 2 26.3244 14.2591 3.29055
8974 2 25.2276 16.4528 2.1937
8975 2 26.3244 16.4528 3.29055
225 4 28.5181 14.2591 1.09685
228 4 30.7118 14.2591 1.09685
257 4 28.5181 16.4528 1.09685
742 4 28.5181 14.2591 3.29055
772 4 28.5181 15.3559 2.1937
773 4 29.615 16.4528 2.1937
774 4 28.5181 16.4528 3.29055
8459 2 29.615 16.4528 0
8461 2 30.7118 16.4528 1.09685
8950 2 30.7118 14.2591 3.29055
8976 2 29.615 16.4528 2.1937
8977 2 29.615 15.3559 3.29055
8979 2 30.7118 16.4528 3.29055
227 4 31.8087 14.2591 0
229 4 34.0024 14.2591 0
258 4 31.8087 16.4528 0
259 4 34.0024 15.3559 1.09685
743 4 31.8087 14.2591 2.1937
745 4 34.0024 14.2591 2.1937
775 4 31.8087 15.3559 3.29055
776 4 32.9055 15.3559 2.1937
777 4 34.0024 16.4528 2.1937
8430 2 31.8087 14.2591 0
8460 2 31.8087 16.4528 0
8462 2 34.0024 16.4528 0
8978 2 31.8087 15.3559 3.29055
8980 2 34.0024 16.4528 2.1937
260 4 0 17.5496 0
261 4 1.09685 18.6465 0
262 4 0 18.6465 1.09685
263 4 2.1937 17.5496 0
264 4 3.29055 18.6465 0
265 4 3.29055 17.5496 1.09685
266 4 2.1937 18.6465 1.09685
294 4 1.09685 20.8402 0
295 4 2.1937 19.7433 0
296 4 3.29055 20.8402 0
778 4 0 17.5496 2.1937
779 4 1.09685 18.6465 2.1937
780 4 0 18.6465 3.29055
781 4 2.1937 17.5496 2.1937
782 4 2.1937 18.6465 3.29055
811 4 2.1937 19.7433 2.1937
812 4 3.29055 20.8402 2.1937
813 4 2.1937 20.8402 3.29055
8463 2 1.09685 18.6465 0
8464 2 1.09685 17.5496 1.09685
8465 2 0 18.6465 1.09685
8466 2 2.1937 17.5496 0
8495 2 0 19.7433 0
8496 2 1.09685 20.8402 0
8497 2 3.29055 20.8402 0
8498 2 3.29055 19.7433 1.09685
8981 2 0 17.5496 2.1937
8982 2 1.09685 17.5496 3.29055
8983 2 0 18.6465 3.29055
8984 2 2.1937 17.5496 2.1937
8985 2 3.29055 18.6465 2.1937
9014 2 0 19.7433 2.1937
9015 2 3.29055 20.8402 2.1937
267 4 4.3874 17.5496 0
268 4 5.48425 17.5496 1.09685
269 4 6.5811 17.5496 0
271 4 6.5811 18.6465 1.09685
297 4 5.48425 19.7433 1.09685
300 4 6.5811 20.8402 1.09685
783 4 5.48425 17.5496 3.29055
784 4 6.5811 18.6465 3.29055
814 4 4.3874 19.7433 2.1937
815 4 5.48425 19.7433 3.29055
816 4 4.3874 20.8402 3.29055