ITEM: TIMESTEP
0
ITEM: NUMBER OF ATOMS
50688
ITEM: BOX BOUNDS xy xz yz pp pp pp
-20.3679009 76.3764267 16.4635182
-22.2159996 65.355896 0.0
-22.2159996 65.355896 0.0
ITEM: ATOMS id type x y z VoronoiIndex1 VoronoiIndex2 VoronoiIndex3 VoronoiIndex4 VoronoiIndex5 VoronoiIndex6 VoronoiIndex7 VoronoiIndex8 VoronoiIndex9 AtomicVolume
9 1 -12.7200003 -11.4600001 4.1560001 0 0 0 1 10 2 0 0 0 11.978902
25 2 7.7280002 20.0599995 18.0599995 0 0 0 2 8 2 0 0 0 11.506485
35 2 20.9200002 15.2700005 -12.8999996 0 0 0 4 8 2 0 0 0 12.5527878
42 2 21.7000008 15.6300001 -8.9040004 0 0 0 2 10 0 0 0 0 11.4391432
57 5 4.8130002 -3.4319999 -19.7299996 0 0 0 1 10 2 0 0 0 12.6081028
71 2 3.129 18.7700005 -14.0900002 0 0 0 0 10 2 0 0 0 11.5358954
81 4 12.9099998 -2.8900002 -9.0749998 0 0 0 0 12 0 0 0 0 10.6125345
82 5 -15.0200005 -13.2700005 -21.5200005 0 0 0 4 6 3 0 0 0 12.64215
91 2 2.5880001 19.7800007 -10.3199997 0 0 1 1 8 3 1 0 0 11.8451872
101 1 -10.8800002 -17.1900005 -3.3840001 0 0 0 4 6 3 0 0 0 12.4612904
105 4 2.0910001 13.9700004 -16.0699997 0 0 0 5 2 2 4 0 0 11.7948771
110 5 -9.2010002 -15.79 2.464 0 0 0 3 8 4 0 0 0 12.1575193
112 2 10.1300001 -3.625 14.8800002 0 0 0 2 7 2 1 0 0 12.417512
128 5 -15.5100003 -13.7600003 8.0389996 0 0 0 2 8 3 0 0 0 12.7633801
141 5 3.392 8.2790003 -9.3970003 0 0 0 2 8 4 0 0 0 12.4357033
147 5 10.8100004 -2.056 11.1999998 0 0 0 1 10 3 0 0 0 11.9931736
159 4 14.1599999 -2.6830001 15.6099997 0 0 0 4 8 2 0 0 0 11.8040381
165 1 20.3299999 -10.9099998 -14.7200003 0 0 0 0 12 0 0 0 0 10.9827138
168 5 3.102 -7.0079999 -15.04 0 0 0 0 12 0 0 0 0 11.7675104
171 2 -1.8890002 8.3050003 -10.4700003 0 0 0 4 6 3 0 0 0 11.3555155
174 4 -7.434 17.0900002 11.7200003 0 0 0 3 6 5 0 0 0 12.4001494
184 2 12.4600001 -0.9849 12.7700005 0 0 0 2 8 3 0 0 0 11.7397051
186 5 13.2399998 12.9099998 -15.7200003 0 0 0 3 6 4 0 0 0 11.9712992
196 5 9.3929997 -7.092 -2.016 0 0 1 1 8 3 1 0 0 11.9239464
214 2 0.1806 17.5499993 -18.0599995 0 0 0 3 6 4 0 0 0 11.6838494
217 2 -16.6499996 -6.8080001 19.3700009 0 0 0 2 8 4 0 0 0 12.61691
243 4 2.3510001 2.6170001 14.2299996 0 0 0 3 6 5 0 0 0 12.3762779
244 5 9.684 -11.7200003 18.9300004 0 0 0 2 10 2 0 0 0 12.5503893
245 1 -10.5200005 4.5539999 -19.7199993 0 0 0 1 10 2 0 0 0 10.9809686
247 2 10.8599998 14.3199997 -4.9780002 0 0 0 1 10 2 0 0 0 11.7816229
254 2 -7.81 19.0200005 -7.7319999 0 0 1 2 6 3 1 0 0 11.4004479
273 4 18.2999992 -11.6999998 0.4754 0 0 0 2 8 3 0 0 0 11.815157
275 4 14.5699997 0.08031 11.8500004 0 0 0 5 2 6 0 0 0 11.8988514
288 5 -11.2600002 14.6700001 21.5499993 0 0 1 0 9 3 0 0 0 11.2674027
295 4 -4.0970001 4.6799999 -9.3149996 0 0 0 1 10 4 0 0 0 12.4341622
299 5 0.09093 19.9599992 -18.5900002 0 0 0 0 12 3 0 0 0 13.3739329
300 2 17.0799999 -8.3950005 1.4960001 0 0 0 4 4 6 0 0 0 11.7171612
313 5 -2.1889999 -12.6199999 3.319 0 0 2 1 8 4 0 0 0 13.3118096
314 5 -17.8999996 -20.1800003 3.369 0 0 1 1 9 2 0 0 0 11.8806744
327 4 -2.8540002 -1.24 14.7299996 0 0 0 3 8 4 0 0 0 12.571764
335 1 -9.5179997 17.9099998 -14.3900004 0 0 0 2 10 0 0 0 0 11.7784643
341 5 26.9699994 18.4400006 10.4799996 0 0 0 3 6 4 0 0 0 11.9217292
348 4 -8.8450004 4.5720001 11.7700005 0 0 1 4 4 2 1 0 0 11.6712218
360 4 8.6759997 -20.3799992 -7.8309999 0 0 0 1 10 6 0 0 0 13.8354492
364 4 -7.8109999 5.27 -16.2600002 0 0 1 1 8 3 1 0 0 12.6237936
387 4 14.0799999 -11.1000004 0.8373 0 0 1 3 6 4 1 0 0 12.0992498
397 1 -8.1269999 3.181 19.2399998 0 0 0 2 8 2 0 0 0 11.370285
410 4 7.1859999 -3.2780001 7.6560002 0 0 0 3 8 3 0 0 0 12.3030071
412 1 -5.9320002 13.9700004 -5.8990002 0 0 1 3 6 2 1 0 0 11.8059664
415 2 -8.1730003 3.5339999 -12.5299998 0 0 0 3 8 2 0 0 0 12.396451
419 2 4.3179999 -9.4490004 -11.3000002 0 0 0 3 6 5 0 0 0 12.1746731
420 5 8.3389998 -9.8579998 -10.6999998 0 0 0 2 8 3 0 0 0 11.987525
432 5 3.8380001 10.4499998 8.2279997 0 0 1 0 10 3 1 0 0 12.4519787
438 4 -13.7399998 -19.2399998 16.6100006 0 0 0 3 8 4 0 0 0 13.5592747
439 4 -7.81 19.0799999 -15.6099997 0 0 0 1 10 3 0 0 0 13.0634346
442 4 5.8839998 18.4300003 -18.4400006 0 0 0 2 10 3 0 0 0 13.0179176
453 4 0.1969 2.796 7.9000002 0 0 0 4 7 2 1 0 0 12.9492332
459 4 -12.04 2.547 -20.6399994 0 0 0 1 10 2 0 0 0 12.1904211
465 3 18.2299996 -10.0299997 -15.5699997 0 0 1 0 11 1 0 0 0 11.7858906
477 5 -14.4399996 -4.6350003 -3.5050001 0 0 1 3 5 2 4 0 0 12.3095331
485 4 6.988 5.79 -15.5900002 0 0 0 1 12 1 0 0 0 12.1413708
515 5 -2.1440001 -12.3500004 16.8199997 0 0 0 3 8 4 0 0 0 12.227088
520 5 3.2449999 -14.75 10.6700001 0 0 0 3 6 5 0 0 0 12.5285177
533 4 10.3000002 5.6799999 -4.7280002 0 0 0 0 12 4 0 0 0 13.6809654
537 2 16.6399994 9.1479998 -9.2349997 0 0 0 2 8 1 0 0 0 11.031599
540 5 -10.6999998 -15.3800001 0.4238 0 0 0 0 12 0 0 0 0 11.7286434
550 4 6.8509998 -9.1879997 12.2799997 0 0 0 1 10 3 0 0 0 12.311635
562 2 1.863 -11.2799997 -21.8199997 0 0 0 2 10 1 0 0 0 12.2760544
564 4 12.5799999 0.1286 17.9899998 0 0 0 5 5 4 1 0 0 12.796259
567 4 5.131 -12.7399998 20.9099998 0 0 0 0 12 0 0 0 0 11.0837488
574 5 14.9099998 -16.0699997 -12.96 0 0 0 1 10 3 0 0 0 12.5851517
580 2 14.75 -15.1000004 -10.7399998 0 0 1 3 4 4 1 0 0 11.585414
585 4 10.4499998 -8.684 -11.6199999 0 0 0 2 8 5 0 0 0 12.7634497
603 5 -12.1000004 -17.0900002 -0.9056 0 0 0 2 8 4 0 0 0 13.6850195
604 4 21.2700005 -8.3149996 16.6100006 0 0 1 2 7 5 0 0 0 12.279027
616 4 23.1399994 -4.1690002 16.0200005 0 0 0 1 12 3 0 0 0 13.1632576
620 4 2.856 17.9200002 7.9759998 0 0 0 2 10 4 0 0 0 13.7569313
622 5 0.9212 -3.2149999 5.454 0 0 0 0 12 2 0 0 0 11.9047976
634 4 -7.935 -21.8199997 -0.07951 0 0 0 2 8 4 0 0 0 11.5848065
642 4 -5.3759999 4.3249998 -20.0900002 0 0 0 1 12 2 0 0 0 12.5981474
643 5 14.5299998 0.7727 -17.6299992 0 0 0 2 8 2 0 0 0 12.0387211
650 2 15.8000002 -12.5200005 17.1900005 0 0 0 0 12 0 0 0 0 11.39044
653 4 -1.899 -15.1700001 3.49 0 0 0 1 10 6 0 0 0 14.100256
654 4 0.2082 -6.9720002 -0.5446 0 0 0 0 12 2 0 0 0 12.4005318
656 4 4.5100003 -12.9700004 14.8100004 0 0 0 1 10 2 0 0 0 11.9920484
665 4 -9.118 -5.844 -22.1900005 0 0 0 2 8 3 0 0 0 11.5755921
666 4 -11.8299999 -9.5939999 -0.1162 0 0 0 2 8 4 0 0 0 11.7361822
671 2 17.75 -0.4091 17.3899994 0 0 2 0 10 2 0 0 0 12.1444359
673 2 9.7410002 6.6040001 12.4300003 0 0 0 0 12 0 0 0 0 10.9447604
679 4 9.7440005 14.6499996 17.5100003 0 0 0 0 12 0 0 0 0 11.0004759
683 5 -6.5960002 12.7100001 18.2199993 0 0 0 1 12 1 0 0 0 12.4579478
687 5 13.0200005 -9.7819996 19.7299996 0 0 1 2 7 3 0 0 0 11.6347485
712 4 24.7299996 10.9499998 -15.5699997 0 0 0 1 10 3 0 0 0 12.6885777
716 4 0.8693 6.0450001 4.4130001 0 0 0 4 6 3 0 0 0 11.4947052
717 4 4.0339999 -18.9099998 1.882 0 0 0 3 6 6 0 0 0 11.9602462
719 4 24.0699997 2.211 -10.9799996 0 0 1 3 5 2 2 0 0 11.7927218
728 5 4.7779999 1.2130001 3.984 0 0 0 2 10 3 0 0 0 12.2461195
740 2 20.8500004 4.5980001 17.6299992 0 0 0 4 6 3 0 0 0 12.0646238
743 5 20.8899994 -15.0600004 -18.9200002 0 0 0 2 8 4 0 0 0 11.791462
745 4 -0.9927 -14.0900002 -18.0 0 0 0 1 10 4 0 0 0 12.7075176
761 5 -5.3299999 13.9300004 -12.1000004 0 0 0 2 6 4 0 0 0 11.456522
775 2 -4.5209999 -11.9499998 21.4699993 0 0 1 4 4 3 1 0 0 11.8367939
776 4 18.9200002 7.0250001 5.0079999 0 0 0 2 10 0 0 0 0 11.6014138
781 4 -9.3219996 -17.8299999 -11.2200003 0 0 0 2 8 4 0 0 0 13.4427624
798 5 -6.6750002 21.4799996 -3.5120001 0 0 0 2 8 6 0 0 0 13.1855269
799 4 23.7800007 4.9120002 -1.3020001 0 0 1 0 11 1 0 0 0 12.0089989
806 4 -7.5999999 6.336 16.6800003 0 0 0 2 8 4 0 0 0 11.7662392
832 5 21.2399998 -11.9799996 8.6149998 0 0 0 2 8 2 0 0 0 11.8504372
843 2 2.231 -2.109 -8.4910002 0 0 0 4 6 2 0 0 0 11.1054583
846 3 16.6900006 -14.5799999 -14.4799996 0 0 0 1 10 2 0 0 0 11.7556801
860 4 22.8400002 2.422 14.3599997 0 0 0 2 8 4 0 0 0 11.9412766
864 2 4.9039998 -2.1919999 1.168 0 0 0 2 8 2 0 0 0 11.2953901
897 5 4.9120002 -3.2880001 11.1499996 0 0 0 2 8 2 0 0 0 10.9086314
902 2 -19.1100006 -21.4099999 20.6800003 0 0 0 1 10 2 0 0 0 11.7807303
905 4 18.75 -3.6930001 -2.855 0 0 0 0 12 2 0 0 0 11.5624495
917 5 7.31 -12.1599999 20.25 0 0 0 0 12 0 0 0 0 11.2222815
949 2 13.8900004 4.395 20.9799996 0 0 1 1 9 4 0 0 0 12.7027493
952 2 10.3900004 1.53 1.174 0 0 0 0 12 2 0 0 0 12.8999748
961 2 -3.6210001 -18.75 -6.2379999 0 0 1 2 7 2 1 0 0 11.1958342
990 4 3.03 -13.0600004 -20.2000008 0 0 1 2 8 2 1 0 0 12.6985636
996 5 12.0299997 -8.4540005 15.8500004 0 0 0 2 10 2 0 0 0 11.774209
999 4 1.88 10.3299999 -10.1499996 0 0 1 2 7 5 0 0 0 12.4711828
1009 5 8.356 12.5100003 18.0599995 0 0 0 1 10 2 0 0 0 11.8136902
1018 3 23.5300007 18.6000004 13.7399998 0 0 1 0 10 2 1 0 0 12.3389816
1023 2 16.6499996 -2.5639999 -15.9399996 0 0 1 0 11 2 0 0 0 12.3866186
1027 4 -6.7600003 -8.731 19.1900005 0 0 1 2 7 5 0 0 0 12.1195507
1034 4 13.1199999 7.9260002 -14.2399998 0 0 0 1 10 2 0 0 0 12.2746811
1039 5 9.8730002 11.8800002 -21.2399998 0 0 0 3 8 3 0 0 0 12.7567759
1040 1 6.316 -13.7299996 -20.9099998 0 0 1 5 2 3 1 1 0 12.114522
1063 5 15.29 -19.8700008 -15.0500002 0 0 0 1 10 2 0 0 0 12.078351
1067 3 17.0900002 -6.3060002 -19.2000008 0 0 1 2 7 3 2 0 0 13.2024393
1068 5 -4.243 7.0190001 -2.0090001 0 0 0 2 10 1 0 0 0 11.639082
1087 4 -13.0200005 16.1599999 -0.4391 0 0 0 3 6 5 0 0 0 11.8329649
1089 4 -4.151 -6.066 4.2220001 0 0 0 0 12 4 0 0 0 13.5540114
1091 5 -2.82 -14.7799998 8.0769997 0 0 1 1 8 3 1 0 0 12.2309227
1094 5 9.6639996 3.3940001 19.3199997 0 0 1 1 7 5 0 0 0 12.6705132
1097 1 22.6800003 0.8958 -17.4699993 0 0 0 2 10 0 0 0 0 11.3650437
1101 4 -9.9060002 -14.5 11.1300001 0 0 0 0 12 3 0 0 0 12.5085984
1111 4 -15.54 -18.9699994 20.1399994 0 0 0 3 6 5 0 0 0 11.9610996
1113 4 13.4700003 5.6360002 18.6200009 0 0 0 1 10 2 0 0 0 11.7700987
1119 4 16.9500008 -6.4070001 19.9699994 0 0 1 3 4 5 1 0 0 12.3129578
1127 2 -5.0479999 16.3199997 -2.4319999 0 0 0 4 6 4 0 0 0 12.5084429
1129 2 18.25 20.5699997 19.9899998 0 0 0 0 12 0 0 0 0 11.3784933
1143 5 -4.7049999 12.9300004 0.1841 0 0 0 2 10 3 0 0 0 12.8397284
1147 4 -12.9799996 0.7276 -10.0200005 0 0 0 3 8 3 0 0 0 12.5147658
1152 2 -12.2200003 -11.1899996 -6.5240002 0 0 0 2 8 2 0 0 0 11.2486038
1158 2 3.4000001 14.8999996 13.2700005 0 0 0 0 12 0 0 0 0 11.507186
1161 4 9.2650004 -0.3104 -2.921 0 0 0 1 12 2 0 0 0 13.0717135
1167 4 19.3099995 -4.5669999 -0.6830001 0 0 0 0 12 0 0 0 0 10.9592018
1171 5 -1.405 1.2510001 14.1899996 0 0 0 2 8 5 0 0 0 12.1434298
1175 4 7.3210001 18.3199997 15.9099998 0 0 0 0 12 3 0 0 0 12.1353874
1185 2 8.2869997 -3.434 -21.6000004 0 0 0 0 12 0 0 0 0 11.2666636
1190 2 -11.3699999 -13.8599998 -16.2700005 0 0 0 1 10 2 0 0 0 11.8008681
1191 4 -12.3100004 20.1700001 -11.5100003 0 0 0 3 6 6 0 0 0 12.489976
1207 5 11.8500004 19.2999992 18.3099995 0 0 0 0 12 0 0 0 0 11.1854096
1208 4 15.7399998 18.4300003 -4.7930002 0 0 0 3 8 3 0 0 0 12.5319138
1212 4 8.5240002 -2.303 11.6400004 0 0 1 2 7 4 0 0 0 11.9361782
1214 5 17.3600006 5.1020002 15.7700005 0 0 0 2 10 0 0 0 0 11.3550654
1217 5 -7.8039999 11.4600001 4.158 0 0 1 0 10 3 1 0 0 12.5446263
1226 4 11.5900002 19.9400006 -16.0499992 0 0 0 5 6 2 0 0 0 11.9042854
1243 2 -1.102 -21.1399994 18.8600006 0 0 0 2 8 2 0 0 0 11.8300686
1245 5 17.8199997 -14.29 1.52 0 0 0 1 10 2 0 0 0 12.7864723
1246 4 9.5640002 11.9799996 -10.8100004 0 0 1 1 9 5 0 0 0 13.1252127
1249 2 -9.7849999 -6.7210002 21.1100006 0 0 1 0 9 3 0 0 0 11.2863388
1250 2 -5.368 13.6999998 6.9369998 0 0 1 0 11 1 0 0 0 11.2805615
1252 4 -16.8700008 -16.3299999 -18.9899998 0 0 0 1 10 4 0 0 0 12.9603224
1261 4 5.1929998 -0.3908 -0.5838 0 0 0 1 10 2 0 0 0 11.4135046
1269 5 -18.1700001 -18.2800007 -7.487 0 0 1 3 7 5 0 0 0 13.3396979
1270 2 -0.04773 7.6139999 0.4273 0 0 0 2 8 4 0 0 0 12.0164757
1295 4 -4.757 -20.0 -4.1589999 0 0 0 2 8 4 0 0 0 12.4445915
1305 5 -1.372 18.75 14.5 0 0 0 3 6 5 0 0 0 13.1704435
1306 5 -3.819 17.2600002 -8.4910002 0 0 0 0 12 0 0 0 0 11.492321
1318 5 -1.546 -2.378 -13.8299999 0 0 0 3 8 4 0 0 0 12.8948384
1328 2 6.178 15.2299996 -5.4520002 0 0 0 0 12 0 0 0 0 11.1988936
1333 5 22.5599995 -5.9380002 11.8100004 0 0 0 4 8 2 0 0 0 12.2999573
1335 5 -4.6129999 1.975 20.9200002 0 0 0 2 10 4 0 0 0 13.4995728
1337 4 14.6300001 -13.0699997 -7.6310001 0 0 0 3 6 4 0 0 0 11.4810381
1340 4 15.0699997 15.6499996 -0.2221 0 0 0 3 8 4 0 0 0 12.97859
1352 4 -19.2999992 -21.3999996 17.8299999 0 0 0 0 12 2 0 0 0 13.1596031
1357 5 15.5600004 -9.0979996 -5.1399999 0 0 1 1 9 5 0 0 0 13.5549307
1371 4 16.8999996 9.4320002 -1.5160001 0 0 0 0 12 0 0 0 0 11.1935043
1374 4 15.5100003 -6.5510001 1.637 0 0 0 1 10 2 0 0 0 12.165658
1384 2 20.1800003 -12.8500004 -13.2700005 0 0 0 2 8 4 0 0 0 11.6109076
1386 2 6.757 2.566 4.8299999 0 0 0 2 8 2 0 0 0 11.9394636
1388 5 11.5699997 -2.3080001 -7.0539999 0 0 0 2 8 2 0 0 0 11.0568323
1393 4 2.826 -5.1160002 5.0190001 0 0 0 1 10 2 0 0 0 11.8620834
1410 1 24.6499996 12.3999996 0.3639 0 0 0 0 12 0 0 0 0 10.7972918
1415 4 0.5981 -11.9799996 -2.2360001 0 0 0 1 12 3 0 0 0 13.3143749
1419 4 10.8500004 -17.4799996 -14.1099997 0 0 0 5 8 1 0 0 0 13.0174341
1427 5 17.7399998 -16.0100002 -2.973 0 0 0 0 12 0 0 0 0 11.1724367
1433 5 -0.2641 -3.4260001 14.5500002 0 0 0 6 5 4 1 0 0 13.5209141
1444 4 -5.0830002 3.809 11.4700003 0 0 0 0 12 0 0 0 0 11.972496
1447 4 1.361 -18.5799999 15.0600004 0 0 0 2 10 4 0 0 0 13.8251839
1450 1 17.8700008 5.6789999 -6.217 0 0 0 4 6 2 0 0 0 10.9734622
1452 4 -9.4930001 -7.1719999 -19.8400002 0 0 0 1 10 3 0 0 0 12.0502567
1469 2 1.995 -15.87 -1.959 0 0 1 1 9 3 0 0 0 11.6232853
1471 5 -19.7099991 -19.8600006 -11.4499998 0 0 0 2 10 2 0 0 0 12.1391754
1476 5 3.385 -21.9200002 -0.973 0 0 0 4 4 7 0 0 0 12.6020336
1487 4 0.1329 -14.2299996 -9.257 0 0 1 3 7 3 0 0 0 12.715622
1504 5 9.6029997 6.0819998 -16.6700001 0 0 1 3 5 5 0 0 0 12.095047
1516 2 17.4099999 18.9799996 -2.9920002 0 0 0 0 12 0 0 0 0 11.2878094
1528 2 18.2000008 -19.75 17.0400009 0 0 0 0 12 0 0 0 0 11.0815048
1533 2 8.0889998 2.342 -5.7620001 0 0 0 0 12 0 0 0 0 11.8049641
1534 4 7.9190002 17.0699997 0.854 0 0 0 3 8 4 0 0 0 12.9281608
1548 4 9.4069996 -15.3100004 16.5799999 0 0 0 2 8 4 0 0 0 12.7425843
1550 4 -3.652 -12.0699997 -13.1999998 0 0 0 3 10 2 0 0 0 13.1718283
1561 4 -12.6800003 3.547 5.0539999 0 0 0 1 10 3 0 0 0 11.607934
1566 1 7.6009999 2.3169999 -8.481 0 0 0 1 12 2 0 0 0 13.2622481
1581 2 4.118 10.3999996 -4.1719999 0 0 0 0 12 0 0 0 0 11.7227402
1584 2 20.1299992 19.0900002 19.2000008 0 0 0 0 12 0 0 0 0 11.5225563
1585 3 -10.1899996 -16.6399994 16.0300007 0 0 0 0 12 2 0 0 0 12.7906895
1595 5 2.194 2.445 -12.6899996 0 0 0 2 9 1 1 0 0 12.6722307
1605 5 5.9050002 -4.1750002 0.05516 0 0 0 1 10 2 0 0 0 12.2553263
1619 5 25.4899998 20.6000004 -11.8500004 0 0 0 2 10 2 0 0 0 12.8725244
1622 4 8.3520002 15.5600004 -1.6770001 0 0 1 0 11 4 0 0 0 14.162384
1625 4 7.079 -5.645 8.309 0 0 0 1 12 2 0 0 0 13.2919207
1630 4 -1.035 -14.9200002 12.4200001 0 0 0 0 12 3 0 0 0 13.1691294
1632 4 -0.8291 -4.566 -12.87 0 0 1 2 6 3 1 1 0 12.2445221
1644 4 5.8260002 14.1800003 13.9899998 0 0 0 1 12 2 0 0 0 13.523469
1661 5 19.9400006 2.497 -19.8899994 0 0 0 1 10 2 0 0 0 12.2329168
1667 4 -5.3200002 10.9300004 -9.2860003 0 0 0 2 8 5 0 0 0 12.3146362
1672 4 6.125 -18.3600006 -20.4899998 0 0 0 2 8 0 2 0 0 12.046257
1687 5 14.2700005 -0.3603 14.9300004 0 0 0 4 6 5 0 0 0 12.7267037
1694 2 15.9899998 -0.5551 3.264 0 0 0 0 12 0 0 0 0 11.2094841
1699 4 16.6100006 -7.5 8.349 0 0 0 2 8 4 0 0 0 11.6684418
1700 5 11.5900002 12.8500004 20.5100003 0 0 0 2 8 4 0 0 0 12.2647019
1705 1 -3.6180001 -12.6300001 -0.5228001 0 0 0 1 9 2 1 0 0 12.3454418
1707 4 16.0499992 5.0650001 -12.0900002 0 0 1 2 7 4 0 0 0 12.0827704
1712 2 12.7799998 -13.7700005 -21.3099995 0 0 0 2 10 1 0 0 0 11.6732731
1714 4 16.2700005 0.9043 16.2199993 0 0 1 0 11 1 0 0 0 11.0591946
1724 2 -3.7939999 1.247 -12.6000004 0 0 0 0 12 0 0 0 0 11.1309176
1730 5 -4.4650002 -0.06391 19.3799992 0 0 1 0 9 3 0 0 0 12.0735512
1733 1 -9.8990002 -13.6999998 19.0300007 0 0 0 0 12 0 0 0 0 11.4991131
1737 4 10.0699997 -19.4599991 -0.9626 0 0 0 0 12 0 0 0 0 11.9811078
1743 4 -8.0810003 -15.6700001 0.4172 0 0 0 1 10 4 0 0 0 11.9517604
1745 4 -16.9099998 -21.5900002 16.9200002 0 0 0 2 10 1 0 0 0 11.9986678
1750 4 0.3041 5.6469999 -1.627 0 0 0 1 10 2 0 0 0 11.7836828
1751 4 -3.141 -9.6260004 -3.5209999 0 0 0 4 4 6 0 0 0 12.4177618
1772 2 -5.4899998 21.4099999 -19.7299996 0 0 2 2 5 3 1 1 0 11.3108482
1796 2 10.4099999 -7.5770002 -20.9099998 0 0 0 1 10 2 0 0 0 11.7839737
1803 2 13.6499996 -3.649 -6.902 0 0 1 0 9 1 2 0 0 11.7023068
1805 4 20.6700001 16.7900009 -18.1800003 0 0 0 0 12 0 0 0 0 11.5554495
1813 4 -16.5300007 -2.6589999 -8.7930002 0 0 1 2 8 3 1 0 0 12.2175598
1834 4 18.8299999 18.1700001 21.1599999 0 0 0 1 10 3 0 0 0 13.013443
1838 2 6.6490002 19.6100006 -2.875 0 0 0 2 10 0 0 0 0 10.9408818
1847 4 15.5600004 -15.8199997 -18.2999992 0 0 0 4 5 3 1 0 0 12.5926943
1849 5 -2.8069999 -5.9450002 -12.3599997 0 0 0 4 6 3 0 0 0 11.5826769
1854 4 14.3100004 -6.3520002 8.3140001 0 0 0 0 12 0 0 0 0 11.6221733
1860 2 -8.948 -3.31 -16.7600003 0 0 0 0 12 0 0 0 0 11.0188446
1864 5 22.5900002 6.2459998 21.0200005 0 0 0 2 8 4 0 0 0 12.4163895
1868 4 -13.7299996 7.3429999 7.7319999 0 0 0 0 12 2 0 0 0 11.9771948
1873 4 10.9499998 -18.8199997 -8.6759997 0 0 0 0 12 0 0 0 0 11.9330998
1880 5 4.75 -17.7199993 20.3400002 0 0 0 3 8 2 0 0 0 11.8801956
1890 4 -13.6400004 -19.0400009 8.3100004 0 0 2 2 6 5 0 0 0 11.9805756
1893 2 8.2220001 -9.8149996 0.9938 0 0 0 0 12 0 0 0 0 11.6852799
1911 4 14.1499996 -13.3900004 5.2410002 0 0 0 2 8 3 0 0 0 12.6835995
1921 4 13.2299996 17.0699997 4.355 0 0 0 2 8 3 0 0 0 11.9218702
1925 2 11.0600004 -19.6000004 -15.1000004 0 0 0 4 8 1 0 0 0 12.6393605
1926 4 -3.0969999 9.5179997 -8.5319996 0 0 0 1 10 2 0 0 0 12.0039024
1928 4 -2.29 7.639 1.492 0 0 1 2 9 3 0 0 0 12.5891714
1934 4 -3.5510001 18.5 -6.388 0 0 0 0 12 2 0 0 0 12.3969345
1935 4 4.797 -0.4205 5.7350002 0 0 0 0 12 0 0 0 0 11.5217066
1938 4 -5.7319999 -1.614 -9.1020002 0 0 0 3 8 2 0 0 0 12.3032932
1943 5 -6.995 21.1499996 -17.5400009 0 0 0 2 10 1 0 0 0 11.9027138
1947 5 -6.678 3.5620001 17.1399994 0 0 0 3 9 2 1 0 0 12.3647194
1948 4 -5.4320002 -2.847 -11.4600001 0 0 0 0 12 4 0 0 0 12.8190708
1954 5 -11.4899998 -8.6379996 14.3400002 0 0 0 4 4 6 0 0 0 11.7403345
1979 5 21.5300007 -9.3839998 8.4919997 0 0 0 0 12 3 0 0 0 12.2827129
1984 5 17.0200005 -21.5300007 1.174 0 0 0 1 10 4 0 0 0 12.9075442
1986 4 -4.9629998 12.1999998 12.8599998 0 0 0 1 10 4 0 0 0 12.3493805
1993 5 -12.7600003 -5.638 -16.0699997 0 0 0 2 10 3 0 0 0 13.1737995
1996 4 -5.2940002 16.3799992 6.7589998 0 0 0 1 12 1 0 0 0 12.1085978
1998 2 -2.0680001 5.6560002 7.8130002 0 0 0 3 7 2 1 0 0 11.7968102
2001 4 7.3850002 -4.6110001 5.5640002 0 0 0 1 10 4 0 0 0 12.9165306
2006 5 -13.6199999 -8.3190003 -21.4799996 0 0 0 2 10 1 0 0 0 11.5375014
2009 4 -14.4399996 -16.7700005 -1.568 0 0 0 3 10 1 0 0 0 13.388691
2020 2 12.1499996 -2.296 4.1040001 0 0 2 2 8 2 0 0 0 12.1870585
2022 5 14.5600004 -11.7600003 19.2299996 0 0 0 0 12 2 0 0 0 12.3522053
2027 4 -5.2979999 -2.5669999 14.1400003 0 0 0 1 10 5 0 0 0 13.6266299
2028 2 -9.1479998 8.1660004 1.387 0 0 1 1 8 4 1 0 0 11.757412
2050 2 -19.1599999 -18.3700009 -15.4700003 0 0 0 1 10 3 0 0 0 12.7477131
2055 4 6.5619998 -2.454 -10.3199997 0 0 0 1 10 4 0 0 0 12.884637
2056 5 15.9700004 12.0799999 9.7550001 0 0 0 2 8 4 0 0 0 12.8553592
2062 2 8.5039997 16.6000004 -15.3599997 0 0 0 4 4 4 0 0 0 11.2824812
2070 2 -12.5 -20.4500008 -14.9099998 0 0 0 0 12 0 0 0 0 10.9276486
2073 4 -6.1550002 -13.2600002 -19.7600003 0 0 0 3 6 4 0 0 0 11.4264479
2082 2 17.0200005 16.5400009 11.6199999 0 0 0 2 8 2 0 0 0 11.2351313
2083 4 -5.039 -17.9699994 -13.8599998 0 0 0 1 10 2 0 0 0 11.6296969
2087 5 -13.7399998 -7.988 -7.2610002 0 0 0 0 12 0 0 0 0 10.7781964
2089 1 16.8299999 -13.5 -18.7299996 0 0 2 4 4 4 0 0 0 11.6955738
2093 5 -5.9039998 -12.6999998 11.4600001 0 0 1 0 9 3 0 0 0 11.3693476
2095 4 -3.0020001 -7.982 -20.5499993 0 0 0 1 10 2 0 0 0 11.3205204
2106 2 22.0 -5.2540002 7.5679999 0 0 0 3 6 4 0 0 0 12.3410006
2112 4 21.4699993 -2.227 10.0699997 0 0 0 1 10 2 0 0 0 12.9434042
2143 2 4.8400002 4.3060002 17.1299992 0 0 1 2 8 4 1 0 0 12.879098
2145 1 19.4099999 -21.0 -20.3099995 0 0 0 1 10 2 0 0 0 11.4961043
2154 4 17.1599999 15.0100002 -1.7740001 0 0 0 3 8 3 0 0 0 12.7167998
2160 2 11.2700005 10.3299999 2.9100002 0 0 0 3 6 3 0 0 0 11.6661816
2167 5 16.7900009 14.5200005 9.5389996 0 0 0 1 10 6 0 0 0 13.6466503
2176 5 7.7729998 14.6800003 1.015 0 0 0 4 8 1 0 0 0 12.4334708
2178 4 -14.79 -18.5 -5.5650001 0 0 0 2 8 4 0 0 0 12.4233227
2181 4 -10.6300001 9.6289997 16.4500008 0 0 0 2 8 5 0 0 0 13.1305122
2185 2 -19.0 -20.6900006 -7.3629999 0 0 1 1 8 3 1 0 0 11.9521332
2187 2 -4.638 11.2600002 18.0400009 0 0 0 0 12 0 0 0 0 11.1747561
2197 2 19.5 17.5200005 5.947 0 0 0 2 8 1 0 0 0 11.4244252
2207 5 11.7299996 -7.8779998 -7.9310002 0 0 0 1 10 2 0 0 0 12.1791401
2212 4 -13.0600004 -3.3740001 -17.0900002 0 0 0 2 8 4 0 0 0 11.9492456
2222 2 0.884 -21.7600003 2.985 0 0 0 2 8 3 0 0 0 11.5588036
2241 4 3.102 -4.0110002 0.9485 0 0 0 1 10 4 0 0 0 12.8367377
2274 1 -9.9610004 -17.5200005 0.6178 0 0 1 0 9 3 0 0 0 11.0113621
2290 4 -7.1360002 -18.3799992 12.7600003 0 0 0 2 8 3 0 0 0 12.1212301
2295 1 5.217 -0.2597 18.0400009 0 0 2 1 8 2 2 0 0 12.1199274
2306 4 21.8600006 8.934 4.7919998 0 0 0 1 10 2 0 0 0 12.4038906
2309 5 -7.836 -20.6200009 -6.639 0 0 0 3 6 6 0 0 0 12.4373799
2315 4 14.8900004 0.9288 -21.4099999 0 0 0 1 10 2 0 0 0 12.0227203
2324 1 10.5500002 -8.9510002 10.3599997 0 0 0 4 4 6 0 0 0 12.5225954
2334 5 -1.89 10.5900002 15.1599999 0 0 0 2 8 5 0 0 0 12.5013743
2341 4 20.5599995 9.1009998 -10.0200005 0 0 0 2 8 4 0 0 0 11.9242964
2342 3 -0.2473 8.1409998 -16.1000004 0 0 1 2 8 3 1 0 0 12.6246901
2356 3 17.1800003 -1.504 -9.7399998 0 0 1 4 4 5 1 0 0 12.8220616
2376 5 23.2299996 10.8199997 -18.6000004 0 0 0 3 6 5 0 0 0 11.7249918
2377 4 2.4600001 -18.4699993 21.2399998 0 0 0 0 12 0 0 0 0 11.1265717
2388 4 -5.7859998 8.9250002 -1.6690001 0 0 0 2 8 6 0 0 0 13.3347941
2389 2 -18.6000004 -14.9300004 -18.3299999 0 0 0 0 12 0 0 0 0 11.282197
2400 2 -14.8800002 0.799 20.9500008 0 0 1 3 5 2 2 0 0 12.2344618
2411 4 14.1099997 -17.2999992 -2.731 0 0 0 3 8 2 0 0 0 11.9923038
2414 1 0.5034001 9.3430004 15.4099999 0 0 0 4 4 6 0 0 0 12.4333143
2428 4 -6.8779998 14.8599998 13.8100004 0 0 0 4 5 5 1 0 0 12.2225142
2437 2 -12.6700001 11.3599997 20.3400002 0 0 0 0 12 0 0 0 0 11.5593205
2438 1 7.7249999 -8.7860003 -1.268 0 0 0 0 12 0 0 0 0 10.8789816
2440 4 8.9469996 -11.0699997 -1.155 0 0 0 3 6 6 0 0 0 12.8639584
2465 5 -4.5910001 -9.1140003 6.6370001 0 0 0 1 10 3 0 0 0 12.1463347
2476 1 8.0950003 -20.7600003 19.4899998 0 0 0 3 6 4 0 0 0 11.4106655
2480 4 12.5 12.5 -20.3099995 0 0 0 0 12 3 0 0 0 13.3748856
2502 4 -8.1379995 -8.4610005 -2.978 0 0 0 2 8 2 0 0 0 10.9214468
2504 2 -11.2600002 -7.56 -14.79 0 0 1 0 9 3 0 0 0 11.566309
2509 4 -10.0200005 19.6800003 -20.3899994 0 0 0 2 10 3 0 0 0 12.1776209
2510 4 21.5599995 -0.1929 6.5279999 0 0 1 2 7 4 2 0 0 12.943473
2511 5 -7.2930002 7.507 -3.694 0 0 0 2 8 4 0 0 0 12.2918558
2519 4 5.6139999 -7.6469999 17.1700001 0 0 0 1 10 2 0 0 0 11.6226931
2520 4 -0.1493 -17.4699993 -6.1259999 0 0 0 2 8 2 2 0 0 12.9395218
2521 2 4.73 6.8330002 13.4300003 0 0 0 2 10 1 0 0 0 11.8467542
2526 2 -6.526 17.5499993 18.4799996 0 0 0 3 8 3 0 0 0 12.3053541
2534 5 -7.4200001 10.0200005 -17.9200002 0 0 0 3 6 4 0 0 0 11.5559492
2535 5 -7.4710002 -3.4170001 3.773 0 0 0 2 8 5 0 0 0 13.1939812
2577 3 -2.6600001 -1.2410001 10.5100003 0 0 0 2 10 3 0 0 0 12.6364756
2582 2 2.2809999 15.9899998 -11.96 0 0 1 2 6 3 3 0 0 12.3566599
2587 4 23.1800003 16.7399998 9.1630001 0 0 0 1 10 2 2 0 0 12.8089419
2588 2 21.3999996 13.5699997 -10.1800003 0 0 0 2 8 1 2 0 0 12.2364636
2590 4 -7.1440001 13.04 11.8800002 0 0 0 1 10 3 0 0 0 12.1833563
2594 2 3.0769999 4.757 -17.2600002 0 0 0 2 8 2 0 0 0 11.664939
2600 1 11.9300004 19.5599995 10.7799998 0 0 0 3 6 4 0 0 0 11.8749676
2608 5 1.248 -8.8859998 9.8219996 0 0 0 2 8 2 0 0 0 11.3110151
2613 5 -13.1300001 -9.6990004 20.8299999 0 0 0 0 12 3 0 0 0 13.069768
2615 2 4.612 -19.6200009 6.4780002 0 0 0 4 6 2 0 0 0 11.6519213
2648 2 0.8003 -3.843 -14.3800001 0 0 1 2 6 3 1 0 0 11.7614928
2651 4 10.6599999 -19.4599991 9.7209997 0 0 0 0 12 2 0 0 0 12.44166
2659 4 15.3999996 -2.7820001 -8.6350003 0 0 0 1 10 3 0 0 0 11.9171296
2672 2 -11.8800002 -12.3000002 11.6999998 0 0 0 1 10 4 0 0 0 12.5387688
2677 4 21.1100006 19.3600006 6.2930002 0 0 0 1 10 2 0 0 0 12.0127668
2680 4 14.9200002 -6.2140002 18.5200005 0 0 0 4 4 6 0 0 0 12.5562058
2706 4 13.4799996 4.797 -12.6199999 0 0 0 1 10 3 0 0 0 12.8634424
2715 4 4.257 -3.819 18.1200008 0 0 1 3 6 4 1 0 0 12.455122
2719 4 -0.2049 -6.6630001 -11.3299999 0 0 0 0 12 0 0 0 0 13.2369623
2723 4 21.3600006 10.3400002 2.8540002 0 0 0 0 12 4 0 0 0 13.3580923
2741 5 12.8900004 14.1199999 1.205 0 0 0 0 12 0 0 0 0 11.9843808
2771 5 4.8130002 -16.6299992 9.7130003 0 0 0 3 6 5 0 0 0 12.1870842
2773 2 6.9299998 -16.9899998 -15.5500002 0 0 1 2 7 3 0 0 0 11.8586216
2784 5 -5.1539998 -18.25 1.915 0 0 0 2 8 2 0 0 0 11.4570532
2803 5 -11.0600004 -12.6000004 -8.0780001 0 0 2 2 5 5 1 1 0 13.1037626
2805 4 13.8299999 12.1499996 -2.5910001 0 0 0 2 10 3 0 0 0 13.0649653
2813 4 -9.309 -4.8189998 -10.6800003 0 0 0 4 4 6 0 0 0 12.6995936
2823 4 -2.007 -19.3400002 20.5499993 0 0 0 0 12 2 0 0 0 12.7110777
2840 2 -4.7150002 20.75 3.7320001 0 0 0 2 8 2 0 0 0 11.512805
2848 4 -5.2740002 -6.1360002 6.658 0 0 1 3 5 6 0 0 0 12.6803618
2850 4 -4.1700001 5.8730002 11.2799997 0 0 0 0 12 0 0 0 0 11.2420178
2860 1 2.414 0.5339 -18.7900009 0 0 1 5 2 5 0 0 0 12.0900354
2862 3 16.0 -20.0200005 -10.7600003 0 0 0 1 10 4 0 0 0 12.5193043
2864 4 -3.6919999 19.3400002 21.1399994 0 0 0 0 12 0 0 0 0 11.5512791
2871 5 -8.9799996 16.0300007 -12.7799998 0 0 0 1 10 3 0 0 0 12.5374022
2878 2 -0.2225 -5.112 8.8360005 0 0 0 0 12 0 0 0 0 11.5266705
2900 4 2.0769999 6.2880001 -21.1399994 0 0 0 3 8 2 0 0 0 11.884471
2911 4 2.497 20.7600003 -12.5699997 0 0 0 0 12 2 0 0 0 12.0665054
2921 5 18.6599999 -14.0299997 3.937 0 0 0 1 10 3 0 0 0 13.2686339
2929 4 -15.9899998 -11.4200001 -13.0699997 0 0 0 1 10 2 0 0 0 11.8678714
2942 4 -6.3940001 -16.0900002 14.0 0 0 0 1 12 2 0 0 0 13.0453367
2945 4 26.0900002 16.25 16.1399994 0 0 0 3 7 3 3 0 0 13.0613041
2961 4 -0.2212 -9.0100002 -9.9709998 0 0 0 4 8 4 0 0 0 13.4421177
2994 4 -6.468 -7.3509998 -1.811 0 0 0 1 10 3 0 0 0 11.5786782
2995 2 6.2690001 -0.8054 15.6099997 0 0 0 1 9 2 1 0 0 12.117774
3019 4 19.8799992 17.2299996 -8.7620001 0 0 0 1 12 3 0 0 0 13.8770076
3020 5 15.79 6.7750001 -19.1700001 0 0 0 3 8 3 0 0 0 12.3261814
3021 5 -5.6069999 -7.8540002 0.4847 0 0 0 0 12 0 0 0 0 11.3940172
3024 5 -2.458 10.1099997 -21.4699993 0 0 0 2 8 4 0 0 0 12.3902502
3048 4 3.4260001 12.6999998 14.4700003 0 0 0 0 12 3 0 0 0 13.4837752
3056 4 10.1599999 -14.0200005 -7.796 0 0 0 4 4 6 0 0 0 13.5285712
3064 2 14.6199999 -14.1400003 -19.7000008 0 0 1 4 4 4 1 0 0 12.3627291
3070 4 13.29 5.4829998 14.4899998 0 0 0 3 8 3 0 0 0 12.0670652
3072 4 -14.2600002 -3.029 -19.2000008 0 0 0 0 12 0 0 0 0 11.0929003
3083 4 -14.4899998 -10.3599997 -7.0970001 0 0 0 2 10 2 0 0 0 12.0979252
3101 5 19.7199993 1.834 -5.993 0 0 1 3 4 4 1 1 0 12.3995962
3110 2 7.0549998 19.0300007 1.995 0 0 1 2 7 3 0 0 0 11.4817524
3119 5 13.9399996 12.2299996 14.04 0 0 0 0 12 2 0 0 0 12.47962
3126 2 -15.4600001 -1.061 17.8500004 0 0 0 2 8 1 0 0 0 11.624219
3129 2 2.695 16.9599992 -7.5770002 0 0 0 0 12 0 0 0 0 11.3690806
3137 2 3.158 -1.594 -19.2900009 0 0 0 2 8 2 0 0 0 11.9911576
3142 2 -8.8809996 14.4600001 -16.6200009 0 0 0 0 12 0 0 0 0 11.4899445
3145 2 -5.8410002 -20.0900002 -8.9519998 0 0 0 1 10 2 0 0 0 11.7386704
3160 2 20.2199993 -13.54 13.5799999 0 0 0 0 12 0 0 0 0 11.6891136
3164 2 15.7299996 -15.1499996 0.4843 0 0 0 0 12 0 0 0 0 11.7212858
3169 5 -1.973 19.0300007 7.296 0 0 1 3 5 5 0 0 0 12.8013277
3174 4 -4.7600003 -2.388 18.3199997 0 0 0 1 10 3 0 0 0 11.7124853
3190 2 0.9373 15.7200003 9.2399998 0 0 0 3 6 3 0 0 0 11.4453545
3193 2 16.4699993 3.006 8.764 0 0 0 2 8 4 0 0 0 12.1130762
3198 4 5.7519999 8.8079996 -22.1000004 0 0 0 1 10 2 0 0 0 12.0026798
3219 4 -4.4270001 9.3999996 19.4500008 0 0 0 1 10 2 0 0 0 12.385705
3223 4 16.7600003 -15.3000002 -20.7399998 0 0 0 3 8 3 0 0 0 13.3350506
3231 5 13.25 19.8999996 3.5079999 0 0 0 1 10 4 0 0 0 13.0403175
3238 5 0.7836 -19.5799999 19.5100003 0 0 0 1 10 4 0 0 0 12.7465716
3242 2 -3.471 2.573 13.2299996 0 0 1 1 7 5 0 0 0 12.5912304
3253 5 8.2040005 5.783 10.6899996 0 0 0 1 12 1 0 0 0 12.282403
3257 4 -0.01934 -14.9099998 -21.1399994 0 0 0 2 8 3 0 0 0 11.2433844
3274 2 -1.487 17.2099991 17.7399998 0 0 1 3 4 4 1 0 0 11.5765972
3278 4 15.0600004 -7.4780002 -18.75 0 0 1 2 7 3 0 0 0 11.5631438
3282 5 6.6760001 16.5599995 20.5799999 0 0 0 2 10 3 0 0 0 13.6778145
3298 5 -5.7729998 1.8250001 9.2119999 0 0 0 2 10 4 0 0 0 13.3767557
3303 5 -7.375 -5.8779998 15.3900004 0 0 0 2 8 2 0 0 0 11.9587928
3313 2 -2.939 -6.7329998 6.1459999 0 0 0 2 8 2 0 0 0 11.5404072
3317 5 13.9200002 5.1430001 1.175 0 0 0 0 12 0 0 0 0 10.9458762
3323 5 12.8400002 15.1499996 -16.2399998 0 0 1 1 9 3 0 0 0 12.1080427
3338 5 -0.1339 -3.829 -19.5200005 0 0 0 2 8 4 0 0 0 12.1871147
3351 1 -9.0369997 18.8799992 10.7799998 0 0 0 0 12 0 0 0 0 11.3251085
3361 5 -11.0500002 8.8830004 12.75 0 0 0 3 8 1 0 0 0 10.9170742
3366 1 6.415 20.5699997 -19.9099998 0 0 1 0 11 1 0 0 0 11.6963644
3370 4 8.6829996 1.9 6.106 0 0 0 4 4 6 0 0 0 12.8330994
3383 4 -12.2799997 2.2219999 7.2649999 0 0 1 1 9 2 2 0 0 13.1639357
3386 2 -15.1599999 -2.187 9.0080004 0 0 0 0 12 0 0 0 0 11.4363699
3387 5 -5.5949998 -5.5079999 -17.3600006 0 0 0 2 8 2 0 0 0 11.7011462
3390 4 13.9700004 16.1399994 15.54 0 0 0 3 6 4 0 0 0 12.4997731
3403 5 -14.9499998 2.901 -18.1700001 0 0 0 3 8 2 0 0 0 12.3491774
3432 4 5.1170001 1.039 -18.3400002 0 0 0 4 4 7 0 0 0 13.2085238
3434 2 -10.1899996 0.6282 0.2837 0 0 0 0 12 0 0 0 0 11.5488739
3439 5 10.3999996 -9.0690002 -0.6242 0 0 0 2 8 4 0 0 0 12.8049002
3449 4 1.5340001 9.6879998 20.1499996 0 0 1 2 7 5 0 0 0 12.1310797
3451 1 -0.1413 -13.1899996 -6.916 0 0 0 1 10 4 0 0 0 12.6457968
3454 2 -8.1289997 18.4699993 -21.3500004 0 0 0 1 10 2 0 0 0 11.5836144
3457 4 -3.1689999 18.2099991 -10.7399998 0 0 0 4 6 5 0 0 0 12.3611879
3468 2 23.4599991 15.8100004 -7.1939998 0 0 0 0 12 0 0 0 0 11.2251644