ITEM: TIMESTEP
0
ITEM: NUMBER OF ATOMS
16384
ITEM: BOX BOUNDS pp pp pp
0.0000000000000000e+00 5.0571847687112800e+01
0.0000000000000000e+00 5.0571847687112800e+01
0.0000000000000000e+00 5.0571847687112800e+01
ITEM: ATOMS id type x y z
1 4 0 0 0
2 4 1.59291 1.59291 0
5 4 3.18583 1.59291 1.59291
32 4 1.59291 3.18583 1.59291
8193 2 0 0 0
8194 2 1.59291 1.59291 0
8195 2 1.59291 0 1.59291
8196 2 0 1.59291 1.59291
8226 2 0 3.18583 0
8730 2 1.59291 1.59291 3.18583
8760 2 3.18583 3.18583 3.18583
3 4 4.77874 1.59291 0
4 4 4.77874 0 1.59291
7 4 6.37165 1.59291 1.59291
34 4 4.77874 3.18583 1.59291
36 4 6.37165 3.18583 0
558 4 6.37165 3.18583 3.18583
8197 2 4.77874 0 1.59291
8198 2 6.37165 0 0
8228 2 4.77874 3.18583 1.59291
8229 2 6.37165 3.18583 0
8732 2 4.77874 1.59291 3.18583
8735 2 6.37165 0 3.18583
6 4 7.96457 0 1.59291
10 4 9.55748 1.59291 1.59291
38 4 7.96457 3.18583 1.59291
561 4 9.55748 3.18583 3.18583
8199 2 7.96457 1.59291 0
8 4 11.1504 1.59291 0
9 4 11.1504 0 1.59291
11 4 12.7433 0 0
12 4 12.7433 1.59291 1.59291
41 4 11.1504 3.18583 1.59291
43 4 12.7433 3.18583 0
525 4 11.1504 1.59291 3.18583
528 4 12.7433 0 3.18583
8200 2 11.1504 1.59291 0
8231 2 12.7433 3.18583 0
8740 2 12.7433 0 3.18583
565 4 15.9291 3.18583 3.18583
8201 2 14.3362 0 1.59291
8203 2 15.9291 1.59291 1.59291
8232 2 14.3362 3.18583 1.59291
13 4 19.115 0 0
46 4 17.522 3.18583 1.59291
48 4 19.115 3.18583 0
568 4 19.115 3.18583 3.18583
8202 2 17.522 0 1.59291
8204 2 19.115 0 0
8206 2 19.115 1.59291 1.59291
8743 2 19.115 0 3.18583
8770 2 19.115 3.18583 3.18583
14 4 22.3008 0 0
16 4 22.3008 1.59291 1.59291
50 4 20.7079 3.18583 1.59291
532 4 20.7079 1.59291 3.18583
534 4 22.3008 0 3.18583
8205 2 20.7079 1.59291 0
8207 2 22.3008 0 0
8235 2 20.7079 3.18583 1.59291
8236 2 22.3008 3.18583 0
8744 2 20.7079 1.59291 3.18583
8746 2 22.3008 0 3.18583
8773 2 22.3008 3.18583 3.18583
15 4 23.8937 0 1.59291
17 4 25.4866 0 0
53 4 25.4866 3.18583 0
536 4 25.4866 0 3.18583
571 4 25.4866 3.18583 3.18583
8208 2 23.8937 0 1.59291
8238 2 25.4866 3.18583 0
8748 2 25.4866 0 3.18583
18 4 27.0795 1.59291 0
19 4 27.0795 0 1.59291
20 4 30.2654 1.59291 0
21 4 30.2654 0 1.59291
55 4 27.0795 3.18583 1.59291
57 4 28.6724 3.18583 0
537 4 27.0795 1.59291 3.18583
575 4 28.6724 3.18583 3.18583
8209 2 27.0795 1.59291 0
8210 2 30.2654 1.59291 0
8211 2 30.2654 0 1.59291
8212 2 28.6724 1.59291 1.59291
8240 2 30.2654 3.18583 1.59291
8750 2 30.2654 1.59291 3.18583
8778 2 28.6724 3.18583 3.18583
22 4 33.4512 1.59291 0
60 4 33.4512 3.18583 1.59291
540 4 31.8583 0 3.18583
8213 2 31.8583 0 0
8214 2 33.4512 0 1.59291
8215 2 31.8583 1.59291 1.59291
8242 2 33.4512 3.18583 1.59291
23 4 35.0441 0 0
24 4 36.637 1.59291 0
62 4 36.637 3.18583 1.59291
541 4 35.0441 0 3.18583
542 4 36.637 1.59291 3.18583
8216 2 36.637 1.59291 0
8217 2 35.0441 1.59291 1.59291
8243 2 35.0441 3.18583 0
8754 2 36.637 1.59291 3.18583
25 4 39.8228 1.59291 0
63 4 38.2299 3.18583 0
65 4 39.8228 3.18583 1.59291
543 4 39.8228 1.59291 3.18583
8218 2 38.2299 0 0
8219 2 39.8228 1.59291 0
8220 2 38.2299 1.59291 1.59291
8245 2 38.2299 3.18583 0
8246 2 39.8228 3.18583 1.59291
8783 2 38.2299 3.18583 3.18583
26 4 43.0087 1.59291 0
67 4 43.0087 3.18583 1.59291
546 4 41.4157 0 3.18583
547 4 43.0087 1.59291 3.18583
583 4 41.4157 3.18583 3.18583
8221 2 41.4157 0 0
8222 2 43.0087 0 1.59291
8223 2 41.4157 1.59291 1.59291
8247 2 41.4157 3.18583 0
8249 2 43.0087 3.18583 1.59291
8757 2 41.4157 0 3.18583
27 4 44.6016 0 0
28 4 46.1945 0 1.59291
29 4 44.6016 1.59291 1.59291
68 4 44.6016 3.18583 0
8224 2 46.1945 0 1.59291
8251 2 44.6016 3.18583 0
8787 2 44.6016 3.18583 3.18583
30 4 47.7874 0 0
31 4 49.3803 1.59291 0
70 4 47.7874 3.18583 0
551 4 47.7874 0 3.18583
8225 2 47.7874 0 0
8252 2 47.7874 3.18583 0
8254 2 49.3803 3.18583 1.59291
8759 2 49.3803 1.59291 3.18583
33 4 0 4.77874 1.59291
35 4 3.18583 4.77874 1.59291
73 4 1.59291 6.37165 1.59291
553 4 1.59291 4.77874 3.18583
587 4 0 6.37165 3.18583
8227 2 1.59291 4.77874 0
8256 2 1.59291 6.37165 1.59291
8258 2 3.18583 6.37165 0
8790 2 0 6.37165 3.18583
8793 2 3.18583 6.37165 3.18583
39 4 6.37165 4.77874 1.59291
74 4 4.77874 6.37165 1.59291
555 4 4.77874 4.77874 3.18583
8260 2 6.37165 6.37165 0
8761 2 4.77874 4.77874 3.18583
37 4 7.96457 4.77874 0
42 4 9.55748 4.77874 1.59291
76 4 9.55748 6.37165 0
8230 2 7.96457 4.77874 0
8261 2 7.96457 6.37165 1.59291
8263 2 9.55748 6.37165 0
8762 2 7.96457 4.77874 3.18583
40 4 11.1504 4.77874 0
45 4 12.7433 4.77874 1.59291
77 4 11.1504 6.37165 1.59291
562 4 11.1504 4.77874 3.18583
592 4 12.7433 6.37165 3.18583
8265 2 12.7433 6.37165 0
44 4 14.3362 4.77874 0
47 4 15.9291 4.77874 1.59291
78 4 14.3362 6.37165 1.59291
563 4 14.3362 4.77874 3.18583
594 4 15.9291 6.37165 3.18583
8267 2 14.3362 6.37165 1.59291
8268 2 15.9291 6.37165 0
8765 2 14.3362 4.77874 3.18583
51 4 19.115 4.77874 1.59291
80 4 17.522 6.37165 1.59291
81 4 19.115 6.37165 0
566 4 17.522 4.77874 3.18583
596 4 19.115 6.37165 3.18583
8233 2 17.522 4.77874 0
8270 2 17.522 6.37165 1.59291
8768 2 17.522 4.77874 3.18583
49 4 20.7079 4.77874 0
52 4 22.3008 4.77874 1.59291
82 4 20.7079 6.37165 1.59291
569 4 20.7079 4.77874 3.18583
598 4 22.3008 6.37165 3.18583
8234 2 20.7079 4.77874 0
8237 2 22.3008 4.77874 1.59291
8771 2 20.7079 4.77874 3.18583
8804 2 22.3008 6.37165 3.18583
56 4 25.4866 4.77874 1.59291
8274 2 25.4866 6.37165 0
54 4 27.0795 4.77874 0
58 4 30.2654 4.77874 0
59 4 28.6724 4.77874 1.59291
84 4 27.0795 6.37165 1.59291
572 4 27.0795 4.77874 3.18583
576 4 30.2654 4.77874 3.18583
603 4 28.6724 6.37165 3.18583
8239 2 27.0795 4.77874 0
8241 2 28.6724 4.77874 1.59291
8277 2 28.6724 6.37165 0
8279 2 30.2654 6.37165 1.59291
8776 2 27.0795 4.77874 3.18583
61 4 31.8583 4.77874 1.59291
87 4 33.4512 6.37165 1.59291
8281 2 31.8583 6.37165 0
8283 2 33.4512 6.37165 1.59291
89 4 36.637 6.37165 1.59291
579 4 36.637 4.77874 3.18583
604 4 35.0441 6.37165 3.18583
8244 2 36.637 4.77874 0
8812 2 35.0441 6.37165 3.18583
64 4 39.8228 4.77874 0
582 4 39.8228 4.77874 3.18583
8285 2 38.2299 6.37165 0
8784 2 39.8228 4.77874 3.18583
8816 2 38.2299 6.37165 3.18583
66 4 43.0087 4.77874 0
584 4 43.0087 4.77874 3.18583
8248 2 43.0087 4.77874 0
8250 2 41.4157 4.77874 1.59291
8287 2 43.0087 6.37165 1.59291
69 4 46.1945 4.77874 0
94 4 44.6016 6.37165 0
8289 2 44.6016 6.37165 0
71 4 49.3803 4.77874 0
72 4 47.7874 4.77874 1.59291
95 4 47.7874 6.37165 0
586 4 49.3803 4.77874 3.18583
609 4 47.7874 6.37165 3.18583
8253 2 49.3803 4.77874 0
8255 2 47.7874 4.77874 1.59291
8292 2 47.7874 6.37165 0
8789 2 49.3803 4.77874 3.18583
75 4 3.18583 7.96457 1.59291
99 4 1.59291 9.55748 1.59291
101 4 3.18583 9.55748 0
588 4 1.59291 7.96457 3.18583
8257 2 0 7.96457 1.59291
8295 2 0 9.55748 0
8296 2 3.18583 9.55748 0
8824 2 0 9.55748 3.18583
8826 2 3.18583 9.55748 3.18583
103 4 4.77874 9.55748 1.59291
104 4 6.37165 9.55748 0
590 4 4.77874 7.96457 3.18583
613 4 6.37165 9.55748 3.18583
8259 2 4.77874 7.96457 0
8262 2 6.37165 7.96457 1.59291
8298 2 4.77874 9.55748 1.59291
8299 2 6.37165 9.55748 0
8794 2 4.77874 7.96457 3.18583
8827 2 6.37165 9.55748 3.18583
105 4 7.96457 9.55748 1.59291
8264 2 9.55748 7.96457 1.59291
8301 2 9.55748 9.55748 0
107 4 11.1504 9.55748 1.59291
8798 2 11.1504 7.96457 3.18583
8831 2 12.7433 9.55748 3.18583
108 4 15.9291 9.55748 0
618 4 15.9291 9.55748 3.18583
8266 2 14.3362 7.96457 0
8305 2 14.3362 9.55748 1.59291
79 4 17.522 7.96457 0
110 4 17.522 9.55748 1.59291
111 4 19.115 9.55748 0
595 4 17.522 7.96457 3.18583
8269 2 17.522 7.96457 0
8272 2 19.115 7.96457 1.59291
8801 2 17.522 7.96457 3.18583
83 4 22.3008 7.96457 1.59291
112 4 20.7079 9.55748 1.59291
114 4 22.3008 9.55748 0
8271 2 20.7079 7.96457 0
8273 2 22.3008 7.96457 1.59291
8309 2 22.3008 9.55748 0
116 4 23.8937 9.55748 1.59291
599 4 23.8937 7.96457 3.18583
623 4 25.4866 9.55748 3.18583
8276 2 25.4866 7.96457 1.59291
8310 2 23.8937 9.55748 1.59291
8312 2 25.4866 9.55748 0
8835 2 25.4866 9.55748 3.18583
85 4 30.2654 7.96457 0
86 4 28.6724 7.96457 1.59291
119 4 28.6724 9.55748 0
121 4 30.2654 9.55748 1.59291
601 4 27.0795 7.96457 3.18583
626 4 28.6724 9.55748 3.18583
8275 2 27.0795 7.96457 0
8278 2 30.2654 7.96457 0
8280 2 28.6724 7.96457 1.59291
8314 2 28.6724 9.55748 0
8315 2 30.2654 9.55748 1.59291
8805 2 27.0795 7.96457 3.18583
88 4 31.8583 7.96457 1.59291
123 4 31.8583 9.55748 0
124 4 33.4512 9.55748 1.59291
628 4 31.8583 9.55748 3.18583
8282 2 33.4512 7.96457 0
8316 2 31.8583 9.55748 0
8809 2 33.4512 7.96457 3.18583
8839 2 31.8583 9.55748 3.18583
90 4 35.0441 7.96457 1.59291
8284 2 36.637 7.96457 0
8317 2 35.0441 9.55748 0
8813 2 36.637 7.96457 3.18583
91 4 39.8228 7.96457 0
92 4 38.2299 7.96457 1.59291
126 4 39.8228 9.55748 1.59291
633 4 38.2299 9.55748 3.18583
8817 2 39.8228 7.96457 3.18583
93 4 41.4157 7.96457 1.59291
128 4 41.4157 9.55748 0
129 4 43.0087 9.55748 1.59291
8286 2 43.0087 7.96457 0
8288 2 41.4157 7.96457 1.59291
8319 2 43.0087 9.55748 1.59291
130 4 44.6016 9.55748 0
8290 2 46.1945 7.96457 0
8291 2 44.6016 7.96457 1.59291
8321 2 44.6016 9.55748 0
8847 2 44.6016 9.55748 3.18583
96 4 49.3803 7.96457 0
97 4 47.7874 7.96457 1.59291
610 4 49.3803 7.96457 3.18583
637 4 47.7874 9.55748 3.18583
8293 2 49.3803 7.96457 0
8294 2 47.7874 7.96457 1.59291
8323 2 47.7874 9.55748 0
8822 2 49.3803 7.96457 3.18583
98 4 1.59291 11.1504 0
100 4 0 11.1504 1.59291
8327 2 1.59291 12.7433 1.59291
8329 2 3.18583 12.7433 0
8825 2 1.59291 11.1504 3.18583
8852 2 0 12.7433 3.18583
8856 2 3.18583 12.7433 3.18583
102 4 4.77874 11.1504 0
612 4 4.77874 11.1504 3.18583
8297 2 4.77874 11.1504 0
8331 2 4.77874 12.7433 1.59291
8333 2 6.37165 12.7433 0
134 4 7.96457 12.7433 1.59291
614 4 7.96457 11.1504 3.18583
8300 2 7.96457 11.1504 0
8303 2 9.55748 11.1504 1.59291
8828 2 7.96457 11.1504 3.18583
106 4 11.1504 11.1504 0
616 4 11.1504 11.1504 3.18583
8302 2 11.1504 11.1504 0
8829 2 11.1504 11.1504 3.18583
137 4 15.9291 12.7433 0
8304 2 14.3362 11.1504 0
8338 2 14.3362 12.7433 1.59291
8340 2 15.9291 12.7433 0
8864 2 15.9291 12.7433 3.18583
109 4 17.522 11.1504 0
113 4 19.115 11.1504 1.59291
139 4 19.115 12.7433 0
8306 2 17.522 11.1504 0
8308 2 19.115 11.1504 1.59291
8341 2 17.522 12.7433 1.59291
8866 2 19.115 12.7433 3.18583
117 4 22.3008 11.1504 1.59291
620 4 20.7079 11.1504 3.18583
8307 2 20.7079 11.1504 0
8311 2 22.3008 11.1504 1.59291
8344 2 20.7079 12.7433 1.59291
8833 2 20.7079 11.1504 3.18583
8868 2 22.3008 12.7433 3.18583
115 4 23.8937 11.1504 0
118 4 25.4866 11.1504 1.59291
621 4 23.8937 11.1504 3.18583
654 4 25.4866 12.7433 3.18583
8834 2 23.8937 11.1504 3.18583
120 4 30.2654 11.1504 0
122 4 28.6724 11.1504 1.59291
143 4 27.0795 12.7433 1.59291
146 4 30.2654 12.7433 1.59291
624 4 27.0795 11.1504 3.18583
657 4 28.6724 12.7433 3.18583
8313 2 27.0795 11.1504 0
8349 2 30.2654 12.7433 1.59291
8836 2 27.0795 11.1504 3.18583
8838 2 30.2654 11.1504 3.18583
148 4 31.8583 12.7433 0
629 4 33.4512 11.1504 3.18583
8840 2 33.4512 11.1504 3.18583
660 4 35.0441 12.7433 3.18583
8318 2 35.0441 11.1504 1.59291
8353 2 35.0441 12.7433 0
8354 2 36.637 12.7433 1.59291
8843 2 36.637 11.1504 3.18583
125 4 39.8228 11.1504 0
127 4 38.2299 11.1504 1.59291
152 4 38.2299 12.7433 0
662 4 38.2299 12.7433 3.18583
8356 2 38.2299 12.7433 0
8357 2 39.8228 12.7433 1.59291
155 4 41.4157 12.7433 0
156 4 43.0087 12.7433 1.59291
664 4 41.4157 12.7433 3.18583
8320 2 41.4157 11.1504 1.59291
8359 2 43.0087 12.7433 1.59291
8878 2 41.4157 12.7433 3.18583
158 4 44.6016 12.7433 0
635 4 46.1945 11.1504 3.18583
667 4 44.6016 12.7433 3.18583
8322 2 44.6016 11.1504 1.59291
8848 2 46.1945 11.1504 3.18583
131 4 49.3803 11.1504 0
8324 2 49.3803 11.1504 0
8325 2 47.7874 11.1504 1.59291
8362 2 47.7874 12.7433 0
8364 2 49.3803 12.7433 1.59291
8851 2 49.3803 11.1504 3.18583
132 4 1.59291 14.3362 0
160 4 0 15.9291 0
162 4 1.59291 15.9291 1.59291
164 4 3.18583 15.9291 0
640 4 1.59291 14.3362 3.18583
672 4 0 15.9291 3.18583
675 4 3.18583 15.9291 3.18583
8326 2 1.59291 14.3362 0
8328 2 0 14.3362 1.59291
8332 2 3.18583 14.3362 1.59291
8366 2 0 15.9291 0
8368 2 1.59291 15.9291 1.59291
8370 2 3.18583 15.9291 0
8853 2 1.59291 14.3362 3.18583
8880 2 0 15.9291 3.18583
8883 2 3.18583 15.9291 3.18583
133 4 4.77874 14.3362 0
165 4 4.77874 15.9291 1.59291
679 4 6.37165 15.9291 3.18583
8330 2 4.77874 14.3362 0
8335 2 6.37165 14.3362 1.59291
8372 2 4.77874 15.9291 1.59291
8374 2 6.37165 15.9291 0
8857 2 4.77874 14.3362 3.18583
8886 2 6.37165 15.9291 3.18583
135 4 9.55748 14.3362 1.59291
167 4 7.96457 15.9291 1.59291
682 4 9.55748 15.9291 3.18583
8334 2 7.96457 14.3362 0
8860 2 7.96457 14.3362 3.18583
136 4 12.7433 14.3362 1.59291
169 4 11.1504 15.9291 1.59291
171 4 12.7433 15.9291 0
685 4 12.7433 15.9291 3.18583
8336 2 11.1504 14.3362 0
8339 2 12.7433 14.3362 1.59291
8377 2 11.1504 15.9291 1.59291
8378 2 12.7433 15.9291 0
8890 2 12.7433 15.9291 3.18583
173 4 14.3362 15.9291 1.59291
175 4 15.9291 15.9291 0
688 4 15.9291 15.9291 3.18583
8337 2 14.3362 14.3362 0
8342 2 15.9291 14.3362 1.59291
8380 2 14.3362 15.9291 1.59291
8863 2 14.3362 14.3362 3.18583
138 4 17.522 14.3362 0
177 4 19.115 15.9291 0
8345 2 19.115 14.3362 1.59291
8383 2 17.522 15.9291 1.59291
8894 2 19.115 15.9291 3.18583
140 4 20.7079 14.3362 0
142 4 22.3008 14.3362 1.59291
8343 2 20.7079 14.3362 0
8346 2 22.3008 14.3362 1.59291
8385 2 20.7079 15.9291 1.59291
8386 2 22.3008 15.9291 0
8867 2 20.7079 14.3362 3.18583
8897 2 22.3008 15.9291 3.18583
141 4 23.8937 14.3362 0
144 4 25.4866 14.3362 1.59291
652 4 23.8937 14.3362 3.18583
8348 2 25.4866 14.3362 1.59291
8869 2 23.8937 14.3362 3.18583
145 4 30.2654 14.3362 0
147 4 28.6724 14.3362 1.59291
180 4 28.6724 15.9291 0
655 4 27.0795 14.3362 3.18583
658 4 30.2654 14.3362 3.18583
8347 2 27.0795 14.3362 0
8350 2 28.6724 14.3362 1.59291
8390 2 30.2654 15.9291 1.59291
8870 2 27.0795 14.3362 3.18583
8871 2 30.2654 14.3362 3.18583
149 4 33.4512 14.3362 0
150 4 31.8583 14.3362 1.59291
183 4 31.8583 15.9291 0
659 4 33.4512 14.3362 3.18583
8351 2 33.4512 14.3362 0
8352 2 31.8583 14.3362 1.59291
8391 2 31.8583 15.9291 0
8393 2 33.4512 15.9291 1.59291
8874 2 33.4512 14.3362 3.18583
8902 2 31.8583 15.9291 3.18583
151 4 36.637 14.3362 0
184 4 35.0441 15.9291 0
661 4 36.637 14.3362 3.18583
698 4 35.0441 15.9291 3.18583
8355 2 35.0441 14.3362 1.59291
153 4 39.8228 14.3362 0
154 4 38.2299 14.3362 1.59291
186 4 39.8228 15.9291 1.59291
663 4 39.8228 14.3362 3.18583
701 4 38.2299 15.9291 3.18583
8358 2 38.2299 14.3362 1.59291
8395 2 38.2299 15.9291 0
8396 2 39.8228 15.9291 1.59291
8906 2 38.2299 15.9291 3.18583
157 4 41.4157 14.3362 1.59291
188 4 43.0087 15.9291 1.59291
702 4 41.4157 15.9291 3.18583
8360 2 41.4157 14.3362 1.59291
8398 2 41.4157 15.9291 0
8399 2 43.0087 15.9291 1.59291
8909 2 41.4157 15.9291 3.18583
668 4 46.1945 14.3362 3.18583
705 4 44.6016 15.9291 3.18583
8361 2 46.1945 14.3362 0
8401 2 44.6016 15.9291 0
159 4 47.7874 14.3362 1.59291
192 4 49.3803 15.9291 1.59291
709 4 47.7874 15.9291 3.18583
8363 2 49.3803 14.3362 0
8365 2 47.7874 14.3362 1.59291
8916 2 47.7874 15.9291 3.18583
161 4 1.59291 17.522 0
163 4 0 17.522 1.59291
194 4 1.59291 19.115 1.59291
196 4 3.18583 19.115 0
711 4 0 19.115 3.18583
713 4 3.18583 19.115 3.18583
8367 2 1.59291 17.522 0
8369 2 0 17.522 1.59291
8373 2 3.18583 17.522 1.59291
8404 2 3.18583 19.115 0
8918 2 0 19.115 3.18583
8920 2 3.18583 19.115 3.18583
168 4 6.37165 17.522 1.59291
198 4 6.37165 19.115 0
676 4 4.77874 17.522 3.18583
8371 2 4.77874 17.522 0
8406 2 6.37165 19.115 0
8884 2 4.77874 17.522 3.18583
8923 2 6.37165 19.115 3.18583
166 4 7.96457 17.522 0
170 4 9.55748 17.522 1.59291
200 4 7.96457 19.115 1.59291
202 4 9.55748 19.115 0
680 4 7.96457 17.522 3.18583
718 4 9.55748 19.115 3.18583
8375 2 7.96457 17.522 0
8408 2 9.55748 19.115 0
8887 2 7.96457 17.522 3.18583
8926 2 9.55748 19.115 3.18583
174 4 12.7433 17.522 1.59291
204 4 11.1504 19.115 1.59291
683 4 11.1504 17.522 3.18583
721 4 12.7433 19.115 3.18583
8376 2 11.1504 17.522 0
8381 2 12.7433 17.522 1.59291
8410 2 12.7433 19.115 0
8888 2 11.1504 17.522 3.18583
8928 2 12.7433 19.115 3.18583
172 4 14.3362 17.522 0
176 4 15.9291 17.522 1.59291
206 4 14.3362 19.115 1.59291
686 4 14.3362 17.522 3.18583
8379 2 14.3362 17.522 0
8413 2 15.9291 19.115 0
8891 2 14.3362 17.522 3.18583
209 4 19.115 19.115 0
689 4 17.522 17.522 3.18583
8382 2 17.522 17.522 0
8414 2 17.522 19.115 1.59291
8892 2 17.522 17.522 3.18583
178 4 20.7079 17.522 0
691 4 20.7079 17.522 3.18583
8384 2 20.7079 17.522 0
8416 2 20.7079 19.115 1.59291
8417 2 22.3008 19.115 0
8895 2 20.7079 17.522 3.18583
8933 2 22.3008 19.115 3.18583
179 4 23.8937 17.522 0
212 4 25.4866 19.115 0
728 4 25.4866 19.115 3.18583
8387 2 23.8937 17.522 0
8388 2 25.4866 17.522 1.59291
8418 2 23.8937 19.115 1.59291
8419 2 25.4866 19.115 0
181 4 30.2654 17.522 0
182 4 28.6724 17.522 1.59291
214 4 27.0795 19.115 1.59291
217 4 30.2654 19.115 1.59291
731 4 28.6724 19.115 3.18583
8389 2 30.2654 17.522 0
8420 2 27.0795 19.115 1.59291
8421 2 28.6724 19.115 0
8423 2 30.2654 19.115 1.59291
8898 2 27.0795 17.522 3.18583
8899 2 30.2654 17.522 3.18583
8937 2 28.6724 19.115 3.18583
218 4 31.8583 19.115 0
219 4 33.4512 19.115 1.59291
734 4 31.8583 19.115 3.18583
8392 2 33.4512 17.522 0
8424 2 31.8583 19.115 0
8903 2 33.4512 17.522 3.18583
185 4 35.0441 17.522 1.59291
220 4 35.0441 19.115 0
699 4 36.637 17.522 3.18583
8394 2 35.0441 17.522 1.59291
8943 2 35.0441 19.115 3.18583
223 4 39.8228 19.115 1.59291
739 4 38.2299 19.115 3.18583
8397 2 38.2299 17.522 1.59291
8907 2 39.8228 17.522 3.18583
187 4 43.0087 17.522 0
189 4 41.4157 17.522 1.59291
224 4 41.4157 19.115 0
703 4 43.0087 17.522 3.18583
8400 2 41.4157 17.522 1.59291
8429 2 43.0087 19.115 1.59291
8910 2 43.0087 17.522 3.18583
8947 2 41.4157 19.115 3.18583
190 4 46.1945 17.522 0
226 4 44.6016 19.115 0
706 4 46.1945 17.522 3.18583
8402 2 46.1945 17.522 0
8913 2 46.1945 17.522 3.18583
8949 2 44.6016 19.115 3.18583
191 4 49.3803 17.522 0
710 4 49.3803 17.522 3.18583
8403 2 49.3803 17.522 0
193 4 1.59291 20.7079 0
195 4 0 20.7079 1.59291
230 4 0 22.3008 0
232 4 1.59291 22.3008 1.59291
712 4 1.59291 20.7079 3.18583
747 4 0 22.3008 3.18583
750 4 3.18583 22.3008 3.18583
8405 2 3.18583 20.7079 1.59291
8431 2 0 22.3008 0
8433 2 1.59291 22.3008 1.59291
8919 2 1.59291 20.7079 3.18583
8952 2 0 22.3008 3.18583
197 4 4.77874 20.7079 0
201 4 6.37165 20.7079 1.59291
235 4 4.77874 22.3008 1.59291
8436 2 4.77874 22.3008 1.59291
8437 2 6.37165 22.3008 0
8921 2 4.77874 20.7079 3.18583
8956 2 6.37165 22.3008 3.18583
199 4 7.96457 20.7079 0
237 4 7.96457 22.3008 1.59291
239 4 9.55748 22.3008 0
715 4 7.96457 20.7079 3.18583
8407 2 7.96457 20.7079 0
8409 2 9.55748 20.7079 1.59291
8439 2 7.96457 22.3008 1.59291
8924 2 7.96457 20.7079 3.18583
203 4 11.1504 20.7079 0
240 4 11.1504 22.3008 1.59291
719 4 11.1504 20.7079 3.18583
755 4 12.7433 22.3008 3.18583
8412 2 12.7433 20.7079 1.59291
8927 2 11.1504 20.7079 3.18583
205 4 14.3362 20.7079 0
208 4 15.9291 20.7079 1.59291
243 4 14.3362 22.3008 1.59291
8411 2 14.3362 20.7079 0
8441 2 14.3362 22.3008 1.59291
8962 2 15.9291 22.3008 3.18583
207 4 17.522 20.7079 0
245 4 19.115 22.3008 0
723 4 17.522 20.7079 3.18583
759 4 19.115 22.3008 3.18583
8443 2 17.522 22.3008 1.59291
8930 2 17.522 20.7079 3.18583
210 4 20.7079 20.7079 0
246 4 20.7079 22.3008 1.59291
8415 2 20.7079 20.7079 0
8445 2 20.7079 22.3008 1.59291
8446 2 22.3008 22.3008 0
8965 2 22.3008 22.3008 3.18583
211 4 23.8937 20.7079 0
215 4 25.4866 20.7079 1.59291
248 4 23.8937 22.3008 1.59291
727 4 23.8937 20.7079 3.18583
8447 2 25.4866 22.3008 0
8934 2 23.8937 20.7079 3.18583
8966 2 25.4866 22.3008 3.18583
213 4 27.0795 20.7079 0
216 4 30.2654 20.7079 0
251 4 28.6724 22.3008 0
729 4 27.0795 20.7079 3.18583
765 4 28.6724 22.3008 3.18583
8422 2 30.2654 20.7079 0
8449 2 28.6724 22.3008 0
8450 2 30.2654 22.3008 1.59291
8936 2 27.0795 20.7079 3.18583
8938 2 30.2654 20.7079 3.18583
8968 2 28.6724 22.3008 3.18583
252 4 31.8583 22.3008 0
253 4 33.4512 22.3008 1.59291
735 4 33.4512 20.7079 3.18583
8425 2 33.4512 20.7079 0
8451 2 31.8583 22.3008 0
8453 2 33.4512 22.3008 1.59291
8941 2 33.4512 20.7079 3.18583
221 4 36.637 20.7079 0
736 4 36.637 20.7079 3.18583
769 4 35.0441 22.3008 3.18583
8426 2 36.637 20.7079 0
8427 2 35.0441 20.7079 1.59291
8454 2 35.0441 22.3008 0
222 4 39.8228 20.7079 0
256 4 39.8228 22.3008 1.59291
740 4 39.8228 20.7079 3.18583
8428 2 38.2299 20.7079 1.59291
8456 2 38.2299 22.3008 0
8944 2 39.8228 20.7079 3.18583
225 4 41.4157 20.7079 1.59291
772 4 41.4157 22.3008 3.18583
227 4 46.1945 20.7079 0
228 4 44.6016 20.7079 1.59291
743 4 46.1945 20.7079 3.18583
8430 2 46.1945 20.7079 0
229 4 49.3803 20.7079 0
259 4 49.3803 22.3008 1.59291
745 4 49.3803 20.7079 3.18583
776 4 47.7874 22.3008 3.18583
231 4 1.59291 23.8937 0
233 4 0 23.8937 1.59291
236 4 3.18583 23.8937 1.59291
260 4 0 25.4866 0
263 4 3.18583 25.4866 0
748 4 1.59291 23.8937 3.18583
778 4 0 25.4866 3.18583
781 4 3.18583 25.4866 3.18583
8432 2 1.59291 23.8937 0
8434 2 0 23.8937 1.59291
8464 2 1.59291 25.4866 1.59291
8466 2 3.18583 25.4866 0
8953 2 1.59291 23.8937 3.18583
8981 2 0 25.4866 3.18583
8984 2 3.18583 25.4866 3.18583
234 4 4.77874 23.8937 0
238 4 6.37165 23.8937 1.59291
265 4 4.77874 25.4866 1.59291
267 4 6.37165 25.4866 0
8435 2 4.77874 23.8937 0
8440 2 6.37165 23.8937 1.59291
8467 2 6.37165 25.4866 0
8954 2 4.77874 23.8937 3.18583
8986 2 6.37165 25.4866 3.18583
241 4 9.55748 23.8937 1.59291
268 4 7.96457 25.4866 1.59291
269 4 9.55748 25.4866 0
752 4 7.96457 23.8937 3.18583
8438 2 7.96457 23.8937 0
8469 2 7.96457 25.4866 1.59291
8470 2 9.55748 25.4866 0
244 4 12.7433 23.8937 1.59291
753 4 11.1504 23.8937 3.18583
785 4 12.7433 25.4866 3.18583
8958 2 11.1504 23.8937 3.18583
8992 2 12.7433 25.4866 3.18583
242 4 14.3362 23.8937 0
756 4 14.3362 23.8937 3.18583
788 4 15.9291 25.4866 3.18583
8471 2 14.3362 25.4866 1.59291
274 4 17.522 25.4866 1.59291
8442 2 17.522 23.8937 0
8474 2 19.115 25.4866 0
8963 2 17.522 23.8937 3.18583
249 4 22.3008 23.8937 1.59291
276 4 20.7079 25.4866 1.59291
278 4 22.3008 25.4866 0
792 4 22.3008 25.4866 3.18583
8444 2 20.7079 23.8937 0
8997 2 22.3008 25.4866 3.18583
247 4 23.8937 23.8937 0
250 4 25.4866 23.8937 1.59291
280 4 25.4866 25.4866 0
793 4 25.4866 25.4866 3.18583
8475 2 25.4866 25.4866 0
281 4 27.0795 25.4866 1.59291
282 4 28.6724 25.4866 0
284 4 30.2654 25.4866 1.59291
8448 2 27.0795 23.8937 0
8477 2 27.0795 25.4866 1.59291
8478 2 28.6724 25.4866 0
8969 2 30.2654 23.8937 3.18583
9000 2 28.6724 25.4866 3.18583
767 4 33.4512 23.8937 3.18583
797 4 31.8583 25.4866 3.18583
8452 2 33.4512 23.8937 0
8480 2 31.8583 25.4866 0
8482 2 33.4512 25.4866 1.59291
8971 2 33.4512 23.8937 3.18583
9003 2 31.8583 25.4866 3.18583
254 4 36.637 23.8937 0
286 4 35.0441 25.4866 0
798 4 35.0441 25.4866 3.18583
8455 2 35.0441 23.8937 1.59291
8484 2 36.637 25.4866 1.59291
8974 2 36.637 23.8937 3.18583
255 4 39.8228 23.8937 0
289 4 39.8228 25.4866 1.59291
8457 2 39.8228 23.8937 0
8458 2 38.2299 23.8937 1.59291
8487 2 39.8228 25.4866 1.59291
9007 2 38.2299 25.4866 3.18583
257 4 41.4157 23.8937 1.59291
773 4 43.0087 23.8937 3.18583
8459 2 43.0087 23.8937 0
8489 2 43.0087 25.4866 1.59291
8976 2 43.0087 23.8937 3.18583
258 4 46.1945 23.8937 0
291 4 46.1945 25.4866 1.59291
8460 2 46.1945 23.8937 0
8461 2 44.6016 23.8937 1.59291
8491 2 44.6016 25.4866 0
9011 2 44.6016 25.4866 3.18583
292 4 49.3803 25.4866 1.59291
777 4 49.3803 23.8937 3.18583
808 4 47.7874 25.4866 3.18583
8462 2 49.3803 23.8937 0
8493 2 49.3803 25.4866 1.59291
8980 2 49.3803 23.8937 3.18583
261 4 1.59291 27.0795 0
262 4 0 27.0795 1.59291
266 4 3.18583 27.0795 1.59291
294 4 1.59291 30.2654 0
295 4 3.18583 28.6724 0
779 4 1.59291 27.0795 3.18583
811 4 3.18583 28.6724 3.18583
8463 2 1.59291 27.0795 0
8465 2 0 27.0795 1.59291
8495 2 0 28.6724 0
8496 2 1.59291 30.2654 0
9014 2 0 28.6724 3.18583
264 4 4.77874 27.0795 0
296 4 4.77874 30.2654 0
812 4 4.77874 30.2654 3.18583
814 4 6.37165 28.6724 3.18583
8497 2 4.77874 30.2654 0
8498 2 4.77874 28.6724 1.59291
8499 2 6.37165 28.6724 0
8500 2 6.37165 30.2654 1.59291
8985 2 4.77874 27.0795 3.18583
9015 2 4.77874 30.2654 3.18583
271 4 9.55748 27.0795 1.59291
297 4 7.96457 28.6724 1.59291
300 4 9.55748 30.2654 1.59291
817 4 9.55748 28.6724 3.18583
8468 2 7.96457 27.0795 0
8503 2 9.55748 30.2654 1.59291
8987 2 7.96457 27.0795 3.18583
270 4 11.1504 27.0795 0
272 4 12.7433 27.0795 1.59291
298 4 11.1504 30.2654 0
299 4 11.1504 28.6724 1.59291
301 4 12.7433 28.6724 0
8472 2 12.7433 27.0795 1.59291
8501 2 11.1504 30.2654 0
8502 2 11.1504 28.6724 1.59291
8504 2 12.7433 28.6724 0
8507 2 12.7433 30.2654 1.59291
8990 2 11.1504 27.0795 3.18583
9018 2 11.1504 30.2654 3.18583
9019 2 12.7433 28.6724 3.18583
275 4 15.9291 27.0795 1.59291
302 4 14.3362 28.6724 1.59291
304 4 15.9291 30.2654 1.59291
786 4 14.3362 27.0795 3.18583
819 4 15.9291 28.6724 3.18583
8505 2 14.3362 30.2654 0
8506 2 14.3362 28.6724 1.59291
8508 2 15.9291 28.6724 0
9020 2 14.3362 30.2654 3.18583
273 4 17.522 27.0795 0
277 4 19.115 27.0795 1.59291
303 4 17.522 30.2654 0
820 4 17.522 30.2654 3.18583
823 4 19.115 28.6724 3.18583
8473 2 17.522 27.0795 0
8509 2 17.522 30.2654 0
8510 2 19.115 28.6724 0
8512 2 19.115 30.2654 1.59291
8994 2 17.522 27.0795 3.18583
279 4 22.3008 27.0795 1.59291
305 4 20.7079 30.2654 0
306 4 20.7079 28.6724 1.59291
789 4 20.7079 27.0795 3.18583
825 4 22.3008 28.6724 3.18583
8511 2 20.7079 30.2654 0
8513 2 22.3008 28.6724 0
9023 2 22.3008 28.6724 3.18583
307 4 23.8937 30.2654 0
308 4 25.4866 28.6724 0
826 4 23.8937 30.2654 3.18583
8516 2 25.4866 30.2654 1.59291
8998 2 23.8937 27.0795 3.18583
9024 2 23.8937 30.2654 3.18583
9027 2 25.4866 28.6724 3.18583
283 4 30.2654 27.0795 0
309 4 27.0795 30.2654 0
828 4 28.6724 28.6724 3.18583
8476 2 27.0795 27.0795 0
8479 2 30.2654 27.0795 0
8514 2 27.0795 30.2654 0
8515 2 27.0795 28.6724 1.59291
8517 2 30.2654 30.2654 0
8518 2 28.6724 30.2654 1.59291
9028 2 27.0795 30.2654 3.18583
285 4 31.8583 27.0795 1.59291
310 4 33.4512 30.2654 0
311 4 33.4512 28.6724 1.59291
312 4 31.8583 30.2654 1.59291
830 4 31.8583 28.6724 3.18583
8481 2 33.4512 27.0795 0
8483 2 31.8583 27.0795 1.59291
8519 2 31.8583 28.6724 0
8520 2 33.4512 28.6724 1.59291
8521 2 31.8583 30.2654 1.59291
9030 2 31.8583 28.6724 3.18583
9031 2 33.4512 30.2654 3.18583
287 4 36.637 27.0795 0
313 4 36.637 30.2654 0
799 4 36.637 27.0795 3.18583
832 4 35.0441 28.6724 3.18583
833 4 36.637 30.2654 3.18583
8485 2 35.0441 27.0795 1.59291
8522 2 36.637 30.2654 0
9005 2 36.637 27.0795 3.18583
288 4 39.8228 27.0795 0
290 4 38.2299 27.0795 1.59291
314 4 38.2299 28.6724 0
315 4 39.8228 30.2654 0
801 4 39.8228 27.0795 3.18583
834 4 39.8228 30.2654 3.18583
8486 2 39.8228 27.0795 0
8523 2 38.2299 28.6724 0
9008 2 39.8228 27.0795 3.18583
9035 2 38.2299 28.6724 3.18583
316 4 41.4157 28.6724 0
317 4 43.0087 30.2654 0
318 4 43.0087 28.6724 1.59291
319 4 41.4157 30.2654 1.59291
803 4 43.0087 27.0795 3.18583
837 4 41.4157 28.6724 3.18583
838 4 43.0087 30.2654 3.18583
8488 2 43.0087 27.0795 0
8490 2 41.4157 27.0795 1.59291
8524 2 43.0087 30.2654 0
9009 2 43.0087 27.0795 3.18583
9038 2 41.4157 28.6724 3.18583
320 4 44.6016 28.6724 0
806 4 46.1945 27.0795 3.18583
8492 2 46.1945 27.0795 0
8525 2 44.6016 28.6724 0
8526 2 46.1945 28.6724 1.59291
9040 2 46.1945 30.2654 3.18583
293 4 47.7874 27.0795 1.59291
321 4 49.3803 30.2654 0
809 4 49.3803 27.0795 3.18583
841 4 49.3803 30.2654 3.18583
8494 2 47.7874 27.0795 1.59291
8527 2 49.3803 30.2654 0
9042 2 47.7874 28.6724 3.18583
9043 2 49.3803 30.2654 3.18583
322 4 1.59291 33.4512 0
323 4 1.59291 31.8583 1.59291
324 4 3.18583 31.8583 0
843 4 0 31.8583 3.18583
844 4 1.59291 33.4512 3.18583
846 4 3.18583 31.8583 3.18583
8528 2 0 31.8583 0
8529 2 0 33.4512 1.59291
8531 2 3.18583 33.4512 1.59291
9045 2 1.59291 33.4512 3.18583
325 4 4.77874 31.8583 1.59291
327 4 6.37165 33.4512 1.59291
8530 2 4.77874 33.4512 0
8532 2 6.37165 31.8583 0
9046 2 4.77874 33.4512 3.18583
9049 2 6.37165 31.8583 3.18583
326 4 7.96457 31.8583 1.59291
849 4 7.96457 33.4512 3.18583
8533 2 7.96457 33.4512 0
9050 2 7.96457 33.4512 3.18583
9053 2 9.55748 31.8583 3.18583
328 4 11.1504 31.8583 1.59291
329 4 12.7433 31.8583 0
331 4 12.7433 33.4512 1.59291
851 4 11.1504 33.4512 3.18583
852 4 12.7433 31.8583 3.18583
8534 2 11.1504 33.4512 0
9055 2 12.7433 31.8583 3.18583
330 4 14.3362 33.4512 0
332 4 15.9291 31.8583 0
853 4 14.3362 33.4512 3.18583
856 4 15.9291 31.8583 3.18583
8535 2 14.3362 33.4512 0
8536 2 14.3362 31.8583 1.59291
8537 2 15.9291 31.8583 0
8539 2 15.9291 33.4512 1.59291
9056 2 14.3362 33.4512 3.18583
333 4 17.522 33.4512 0
334 4 19.115 31.8583 0
336 4 19.115 33.4512 1.59291
857 4 17.522 33.4512 3.18583
8538 2 17.522 31.8583 1.59291
8540 2 19.115 31.8583 0
8543 2 19.115 33.4512 1.59291
9057 2 17.522 33.4512 3.18583
335 4 20.7079 33.4512 0
860 4 22.3008 31.8583 3.18583
8541 2 20.7079 33.4512 0
8542 2 20.7079 31.8583 1.59291
9060 2 20.7079 33.4512 3.18583
9063 2 22.3008 31.8583 3.18583
337 4 23.8937 33.4512 0
338 4 23.8937 31.8583 1.59291
339 4 25.4866 31.8583 0
342 4 25.4866 33.4512 1.59291
861 4 23.8937 33.4512 3.18583
8544 2 23.8937 33.4512 0
8545 2 23.8937 31.8583 1.59291
8546 2 25.4866 31.8583 0
8549 2 25.4866 33.4512 1.59291
340 4 27.0795 33.4512 0
341 4 27.0795 31.8583 1.59291
343 4 28.6724 31.8583 0
344 4 30.2654 33.4512 0
345 4 30.2654 31.8583 1.59291
865 4 30.2654 33.4512 3.18583
8547 2 27.0795 33.4512 0
8548 2 27.0795 31.8583 1.59291
8550 2 30.2654 31.8583 1.59291
8551 2 28.6724 33.4512 1.59291
9066 2 30.2654 33.4512 3.18583
346 4 31.8583 31.8583 0
866 4 31.8583 31.8583 3.18583
867 4 33.4512 33.4512 3.18583
8552 2 33.4512 31.8583 1.59291
8553 2 31.8583 33.4512 1.59291
347 4 35.0441 31.8583 0
870 4 35.0441 31.8583 3.18583
871 4 36.637 33.4512 3.18583
9069 2 35.0441 31.8583 3.18583
9070 2 36.637 33.4512 3.18583
348 4 38.2299 31.8583 0
349 4 39.8228 31.8583 1.59291
350 4 38.2299 33.4512 1.59291
8554 2 39.8228 33.4512 0
8555 2 38.2299 33.4512 1.59291
9073 2 39.8228 33.4512 3.18583
351 4 43.0087 33.4512 0
8556 2 41.4157 31.8583 0
8557 2 43.0087 31.8583 1.59291
9076 2 41.4157 31.8583 3.18583
9077 2 43.0087 33.4512 3.18583
352 4 44.6016 31.8583 0
353 4 46.1945 33.4512 0