ITEM: TIMESTEP
0
ITEM: NUMBER OF ATOMS
16384
ITEM: BOX BOUNDS pp pp pp
0.0000000000000000e+00 6.1071193227689903e+01
0.0000000000000000e+00 6.1071193227689903e+01
0.0000000000000000e+00 6.1071193227689903e+01
ITEM: ATOMS id type x y z
1 4 0 0 0
2 4 1.92362 1.92362 0
8193 2 0 0 0
8194 2 1.92362 1.92362 0
8195 2 1.92362 0 1.92362
8196 2 0 1.92362 1.92362
3 4 5.77087 1.92362 0
4 4 5.77087 0 1.92362
5 4 3.84724 1.92362 1.92362
8197 2 5.77087 0 1.92362
6 4 9.61811 0 1.92362
7 4 7.69449 1.92362 1.92362
8198 2 7.69449 0 0
8199 2 9.61811 1.92362 0
8 4 13.4654 1.92362 0
9 4 13.4654 0 1.92362
10 4 11.5417 1.92362 1.92362
8200 2 13.4654 1.92362 0
11 4 15.389 0 0
12 4 15.389 1.92362 1.92362
8201 2 17.3126 0 1.92362
8203 2 19.2362 1.92362 1.92362
13 4 23.0835 0 0
8202 2 21.1598 0 1.92362
8204 2 23.0835 0 0
8206 2 23.0835 1.92362 1.92362
14 4 26.9307 0 0
16 4 26.9307 1.92362 1.92362
8205 2 25.0071 1.92362 0
8207 2 26.9307 0 0
15 4 28.8543 0 1.92362
8208 2 28.8543 0 1.92362
17 4 30.778 0 0
18 4 32.7016 1.92362 0
19 4 32.7016 0 1.92362
8209 2 32.7016 1.92362 0
20 4 36.5488 1.92362 0
21 4 36.5488 0 1.92362
8210 2 36.5488 1.92362 0
8211 2 36.5488 0 1.92362
8212 2 34.6252 1.92362 1.92362
22 4 40.3961 1.92362 0
8213 2 38.4724 0 0
8214 2 40.3961 0 1.92362
8215 2 38.4724 1.92362 1.92362
23 4 42.3197 0 0
8217 2 42.3197 1.92362 1.92362
24 4 44.2433 1.92362 0
8216 2 44.2433 1.92362 0
8218 2 46.1669 0 0
8220 2 46.1669 1.92362 1.92362
25 4 48.0906 1.92362 0
8219 2 48.0906 1.92362 0
8221 2 50.0142 0 0
8223 2 50.0142 1.92362 1.92362
26 4 51.9378 1.92362 0
27 4 53.8614 0 0
29 4 53.8614 1.92362 1.92362
8222 2 51.9378 0 1.92362
28 4 55.785 0 1.92362
8224 2 55.785 0 1.92362
30 4 57.7087 0 0
31 4 59.6323 1.92362 0
8225 2 57.7087 0 0
32 4 1.92362 3.84724 1.92362
33 4 0 5.77087 1.92362
8226 2 0 3.84724 0
8227 2 1.92362 5.77087 0
34 4 5.77087 3.84724 1.92362
35 4 3.84724 5.77087 1.92362
8228 2 5.77087 3.84724 1.92362
36 4 7.69449 3.84724 0
37 4 9.61811 5.77087 0
38 4 9.61811 3.84724 1.92362
39 4 7.69449 5.77087 1.92362
8229 2 7.69449 3.84724 0
8230 2 9.61811 5.77087 0
40 4 13.4654 5.77087 0
41 4 13.4654 3.84724 1.92362
42 4 11.5417 5.77087 1.92362
43 4 15.389 3.84724 0
45 4 15.389 5.77087 1.92362
8231 2 15.389 3.84724 0
44 4 17.3126 5.77087 0
47 4 19.2362 5.77087 1.92362
8232 2 17.3126 3.84724 1.92362
46 4 21.1598 3.84724 1.92362
48 4 23.0835 3.84724 0
51 4 23.0835 5.77087 1.92362
8233 2 21.1598 5.77087 0
49 4 25.0071 5.77087 0
50 4 25.0071 3.84724 1.92362
52 4 26.9307 5.77087 1.92362
8234 2 25.0071 5.77087 0
8235 2 25.0071 3.84724 1.92362
8236 2 26.9307 3.84724 0
8237 2 26.9307 5.77087 1.92362
53 4 30.778 3.84724 0
54 4 32.7016 5.77087 0
55 4 32.7016 3.84724 1.92362
56 4 30.778 5.77087 1.92362
8238 2 30.778 3.84724 0
8239 2 32.7016 5.77087 0
57 4 34.6252 3.84724 0
58 4 36.5488 5.77087 0
59 4 34.6252 5.77087 1.92362
8240 2 36.5488 3.84724 1.92362
8241 2 34.6252 5.77087 1.92362
60 4 40.3961 3.84724 1.92362
61 4 38.4724 5.77087 1.92362
8242 2 40.3961 3.84724 1.92362
8243 2 42.3197 3.84724 0
62 4 44.2433 3.84724 1.92362
63 4 46.1669 3.84724 0
8244 2 44.2433 5.77087 0
8245 2 46.1669 3.84724 0
64 4 48.0906 5.77087 0
65 4 48.0906 3.84724 1.92362
8246 2 48.0906 3.84724 1.92362
8247 2 50.0142 3.84724 0
8250 2 50.0142 5.77087 1.92362
66 4 51.9378 5.77087 0
67 4 51.9378 3.84724 1.92362
68 4 53.8614 3.84724 0
8248 2 51.9378 5.77087 0
8249 2 51.9378 3.84724 1.92362
8251 2 53.8614 3.84724 0
69 4 55.785 5.77087 0
70 4 57.7087 3.84724 0
71 4 59.6323 5.77087 0
72 4 57.7087 5.77087 1.92362
8252 2 57.7087 3.84724 0
8253 2 59.6323 5.77087 0
8254 2 59.6323 3.84724 1.92362
8255 2 57.7087 5.77087 1.92362
73 4 1.92362 7.69449 1.92362
8256 2 1.92362 7.69449 1.92362
8257 2 0 9.61811 1.92362
74 4 5.77087 7.69449 1.92362
75 4 3.84724 9.61811 1.92362
8258 2 3.84724 7.69449 0
8259 2 5.77087 9.61811 0
8260 2 7.69449 7.69449 0
8261 2 9.61811 7.69449 1.92362
8262 2 7.69449 9.61811 1.92362
76 4 11.5417 7.69449 0
77 4 13.4654 7.69449 1.92362
8263 2 11.5417 7.69449 0
8264 2 11.5417 9.61811 1.92362
8265 2 15.389 7.69449 0
78 4 17.3126 7.69449 1.92362
8266 2 17.3126 9.61811 0
8267 2 17.3126 7.69449 1.92362
8268 2 19.2362 7.69449 0
79 4 21.1598 9.61811 0
80 4 21.1598 7.69449 1.92362
81 4 23.0835 7.69449 0
8269 2 21.1598 9.61811 0
8270 2 21.1598 7.69449 1.92362
8272 2 23.0835 9.61811 1.92362
82 4 25.0071 7.69449 1.92362
83 4 26.9307 9.61811 1.92362
8271 2 25.0071 9.61811 0
8273 2 26.9307 9.61811 1.92362
84 4 32.7016 7.69449 1.92362
8274 2 30.778 7.69449 0
8275 2 32.7016 9.61811 0
8276 2 30.778 9.61811 1.92362
85 4 36.5488 9.61811 0
86 4 34.6252 9.61811 1.92362
8277 2 34.6252 7.69449 0
8278 2 36.5488 9.61811 0
8279 2 36.5488 7.69449 1.92362
8280 2 34.6252 9.61811 1.92362
87 4 40.3961 7.69449 1.92362
88 4 38.4724 9.61811 1.92362
8281 2 38.4724 7.69449 0
8282 2 40.3961 9.61811 0
8283 2 40.3961 7.69449 1.92362
90 4 42.3197 9.61811 1.92362
89 4 44.2433 7.69449 1.92362
92 4 46.1669 9.61811 1.92362
8284 2 44.2433 9.61811 0
8285 2 46.1669 7.69449 0
91 4 48.0906 9.61811 0
93 4 50.0142 9.61811 1.92362
8288 2 50.0142 9.61811 1.92362
94 4 53.8614 7.69449 0
8286 2 51.9378 9.61811 0
8287 2 51.9378 7.69449 1.92362
8289 2 53.8614 7.69449 0
8291 2 53.8614 9.61811 1.92362
8290 2 55.785 9.61811 0
95 4 57.7087 7.69449 0
96 4 59.6323 9.61811 0
97 4 57.7087 9.61811 1.92362
8292 2 57.7087 7.69449 0
8293 2 59.6323 9.61811 0
8294 2 57.7087 9.61811 1.92362
98 4 1.92362 13.4654 0
99 4 1.92362 11.5417 1.92362
100 4 0 13.4654 1.92362
8295 2 0 11.5417 0
101 4 3.84724 11.5417 0
102 4 5.77087 13.4654 0
103 4 5.77087 11.5417 1.92362
8296 2 3.84724 11.5417 0
8297 2 5.77087 13.4654 0
8298 2 5.77087 11.5417 1.92362
104 4 7.69449 11.5417 0
105 4 9.61811 11.5417 1.92362
8299 2 7.69449 11.5417 0
8300 2 9.61811 13.4654 0
106 4 13.4654 13.4654 0
107 4 13.4654 11.5417 1.92362
8301 2 11.5417 11.5417 0
8302 2 13.4654 13.4654 0
8303 2 11.5417 13.4654 1.92362
108 4 19.2362 11.5417 0
8304 2 17.3126 13.4654 0
8305 2 17.3126 11.5417 1.92362
109 4 21.1598 13.4654 0
110 4 21.1598 11.5417 1.92362
111 4 23.0835 11.5417 0
113 4 23.0835 13.4654 1.92362
8306 2 21.1598 13.4654 0
8308 2 23.0835 13.4654 1.92362
112 4 25.0071 11.5417 1.92362
114 4 26.9307 11.5417 0
117 4 26.9307 13.4654 1.92362
8307 2 25.0071 13.4654 0
8309 2 26.9307 11.5417 0
8311 2 26.9307 13.4654 1.92362
115 4 28.8543 13.4654 0
116 4 28.8543 11.5417 1.92362
8310 2 28.8543 11.5417 1.92362
118 4 30.778 13.4654 1.92362
8312 2 30.778 11.5417 0
8313 2 32.7016 13.4654 0
119 4 34.6252 11.5417 0
120 4 36.5488 13.4654 0
121 4 36.5488 11.5417 1.92362
122 4 34.6252 13.4654 1.92362
8314 2 34.6252 11.5417 0
8315 2 36.5488 11.5417 1.92362
123 4 38.4724 11.5417 0
124 4 40.3961 11.5417 1.92362
8316 2 38.4724 11.5417 0
8317 2 42.3197 11.5417 0
8318 2 42.3197 13.4654 1.92362
127 4 46.1669 13.4654 1.92362
125 4 48.0906 13.4654 0
126 4 48.0906 11.5417 1.92362
128 4 50.0142 11.5417 0
8320 2 50.0142 13.4654 1.92362
129 4 51.9378 11.5417 1.92362
130 4 53.8614 11.5417 0
8319 2 51.9378 11.5417 1.92362
8321 2 53.8614 11.5417 0
8322 2 53.8614 13.4654 1.92362
131 4 59.6323 13.4654 0
8323 2 57.7087 11.5417 0
8324 2 59.6323 13.4654 0
8325 2 57.7087 13.4654 1.92362
8327 2 1.92362 15.389 1.92362
8329 2 3.84724 15.389 0
8331 2 5.77087 15.389 1.92362
134 4 9.61811 15.389 1.92362
8333 2 7.69449 15.389 0
137 4 19.2362 15.389 0
8338 2 17.3126 15.389 1.92362
8340 2 19.2362 15.389 0
139 4 23.0835 15.389 0
8341 2 21.1598 15.389 1.92362
8344 2 25.0071 15.389 1.92362
143 4 32.7016 15.389 1.92362
146 4 36.5488 15.389 1.92362
8349 2 36.5488 15.389 1.92362
148 4 38.4724 15.389 0
8353 2 42.3197 15.389 0
152 4 46.1669 15.389 0
8354 2 44.2433 15.389 1.92362
8356 2 46.1669 15.389 0
155 4 50.0142 15.389 0
8357 2 48.0906 15.389 1.92362
156 4 51.9378 15.389 1.92362
158 4 53.8614 15.389 0
8359 2 51.9378 15.389 1.92362
8362 2 57.7087 15.389 0
8364 2 59.6323 15.389 1.92362
132 4 1.92362 17.3126 0
160 4 0 19.2362 0
162 4 1.92362 19.2362 1.92362
8326 2 1.92362 17.3126 0
8328 2 0 17.3126 1.92362
8366 2 0 19.2362 0
8368 2 1.92362 19.2362 1.92362
133 4 5.77087 17.3126 0
164 4 3.84724 19.2362 0
165 4 5.77087 19.2362 1.92362
8330 2 5.77087 17.3126 0
8332 2 3.84724 17.3126 1.92362
8370 2 3.84724 19.2362 0
8372 2 5.77087 19.2362 1.92362
167 4 9.61811 19.2362 1.92362
8334 2 9.61811 17.3126 0
8335 2 7.69449 17.3126 1.92362
8374 2 7.69449 19.2362 0
135 4 11.5417 17.3126 1.92362
169 4 13.4654 19.2362 1.92362
8336 2 13.4654 17.3126 0
8377 2 13.4654 19.2362 1.92362
136 4 15.389 17.3126 1.92362
171 4 15.389 19.2362 0
8339 2 15.389 17.3126 1.92362
8378 2 15.389 19.2362 0
173 4 17.3126 19.2362 1.92362
175 4 19.2362 19.2362 0
8337 2 17.3126 17.3126 0
8342 2 19.2362 17.3126 1.92362
8380 2 17.3126 19.2362 1.92362
138 4 21.1598 17.3126 0
177 4 23.0835 19.2362 0
8345 2 23.0835 17.3126 1.92362
8383 2 21.1598 19.2362 1.92362
140 4 25.0071 17.3126 0
142 4 26.9307 17.3126 1.92362
8343 2 25.0071 17.3126 0
8346 2 26.9307 17.3126 1.92362
8385 2 25.0071 19.2362 1.92362
8386 2 26.9307 19.2362 0
141 4 28.8543 17.3126 0
144 4 30.778 17.3126 1.92362
8347 2 32.7016 17.3126 0
8348 2 30.778 17.3126 1.92362
145 4 36.5488 17.3126 0
147 4 34.6252 17.3126 1.92362
180 4 34.6252 19.2362 0
8350 2 34.6252 17.3126 1.92362
8390 2 36.5488 19.2362 1.92362
149 4 40.3961 17.3126 0
150 4 38.4724 17.3126 1.92362
183 4 38.4724 19.2362 0
8351 2 40.3961 17.3126 0
8352 2 38.4724 17.3126 1.92362
8391 2 38.4724 19.2362 0
8393 2 40.3961 19.2362 1.92362
184 4 42.3197 19.2362 0
8355 2 42.3197 17.3126 1.92362
151 4 44.2433 17.3126 0
154 4 46.1669 17.3126 1.92362
8358 2 46.1669 17.3126 1.92362
8395 2 46.1669 19.2362 0
153 4 48.0906 17.3126 0
157 4 50.0142 17.3126 1.92362
186 4 48.0906 19.2362 1.92362
8360 2 50.0142 17.3126 1.92362
8396 2 48.0906 19.2362 1.92362
8398 2 50.0142 19.2362 0
188 4 51.9378 19.2362 1.92362
8399 2 51.9378 19.2362 1.92362
8401 2 53.8614 19.2362 0
8361 2 55.785 17.3126 0
159 4 57.7087 17.3126 1.92362
192 4 59.6323 19.2362 1.92362
8363 2 59.6323 17.3126 0
8365 2 57.7087 17.3126 1.92362
161 4 1.92362 21.1598 0
163 4 0 21.1598 1.92362
194 4 1.92362 23.0835 1.92362
8367 2 1.92362 21.1598 0
8369 2 0 21.1598 1.92362
196 4 3.84724 23.0835 0
8371 2 5.77087 21.1598 0
8373 2 3.84724 21.1598 1.92362
8404 2 3.84724 23.0835 0
166 4 9.61811 21.1598 0
168 4 7.69449 21.1598 1.92362
198 4 7.69449 23.0835 0
200 4 9.61811 23.0835 1.92362
8375 2 9.61811 21.1598 0
8406 2 7.69449 23.0835 0
170 4 11.5417 21.1598 1.92362
202 4 11.5417 23.0835 0
204 4 13.4654 23.0835 1.92362
8376 2 13.4654 21.1598 0
8408 2 11.5417 23.0835 0
174 4 15.389 21.1598 1.92362
8381 2 15.389 21.1598 1.92362
8410 2 15.389 23.0835 0
172 4 17.3126 21.1598 0
176 4 19.2362 21.1598 1.92362
206 4 17.3126 23.0835 1.92362
8379 2 17.3126 21.1598 0
8413 2 19.2362 23.0835 0
209 4 23.0835 23.0835 0
8382 2 21.1598 21.1598 0
8414 2 21.1598 23.0835 1.92362
178 4 25.0071 21.1598 0
8384 2 25.0071 21.1598 0
8416 2 25.0071 23.0835 1.92362
8417 2 26.9307 23.0835 0
179 4 28.8543 21.1598 0
8387 2 28.8543 21.1598 0
8418 2 28.8543 23.0835 1.92362
212 4 30.778 23.0835 0
214 4 32.7016 23.0835 1.92362
8388 2 30.778 21.1598 1.92362
8419 2 30.778 23.0835 0
8420 2 32.7016 23.0835 1.92362
181 4 36.5488 21.1598 0
182 4 34.6252 21.1598 1.92362
217 4 36.5488 23.0835 1.92362
8389 2 36.5488 21.1598 0
8421 2 34.6252 23.0835 0
8423 2 36.5488 23.0835 1.92362
218 4 38.4724 23.0835 0
219 4 40.3961 23.0835 1.92362
8392 2 40.3961 21.1598 0
8424 2 38.4724 23.0835 0
185 4 42.3197 21.1598 1.92362
220 4 42.3197 23.0835 0
8394 2 42.3197 21.1598 1.92362
8397 2 46.1669 21.1598 1.92362
189 4 50.0142 21.1598 1.92362
223 4 48.0906 23.0835 1.92362
224 4 50.0142 23.0835 0
8400 2 50.0142 21.1598 1.92362
187 4 51.9378 21.1598 0
226 4 53.8614 23.0835 0
8429 2 51.9378 23.0835 1.92362
190 4 55.785 21.1598 0
8402 2 55.785 21.1598 0
191 4 59.6323 21.1598 0
8403 2 59.6323 21.1598 0
193 4 1.92362 25.0071 0
195 4 0 25.0071 1.92362
230 4 0 26.9307 0
232 4 1.92362 26.9307 1.92362
8431 2 0 26.9307 0
8433 2 1.92362 26.9307 1.92362
197 4 5.77087 25.0071 0
235 4 5.77087 26.9307 1.92362
8405 2 3.84724 25.0071 1.92362
8436 2 5.77087 26.9307 1.92362
199 4 9.61811 25.0071 0
201 4 7.69449 25.0071 1.92362
237 4 9.61811 26.9307 1.92362
8407 2 9.61811 25.0071 0
8437 2 7.69449 26.9307 0
8439 2 9.61811 26.9307 1.92362
203 4 13.4654 25.0071 0
239 4 11.5417 26.9307 0
240 4 13.4654 26.9307 1.92362
8409 2 11.5417 25.0071 1.92362
8412 2 15.389 25.0071 1.92362
205 4 17.3126 25.0071 0
208 4 19.2362 25.0071 1.92362
243 4 17.3126 26.9307 1.92362
8411 2 17.3126 25.0071 0
8441 2 17.3126 26.9307 1.92362
207 4 21.1598 25.0071 0
245 4 23.0835 26.9307 0
8443 2 21.1598 26.9307 1.92362
210 4 25.0071 25.0071 0
246 4 25.0071 26.9307 1.92362
8415 2 25.0071 25.0071 0
8445 2 25.0071 26.9307 1.92362
8446 2 26.9307 26.9307 0
211 4 28.8543 25.0071 0
248 4 28.8543 26.9307 1.92362
213 4 32.7016 25.0071 0
215 4 30.778 25.0071 1.92362
8447 2 30.778 26.9307 0
216 4 36.5488 25.0071 0
251 4 34.6252 26.9307 0
8422 2 36.5488 25.0071 0
8449 2 34.6252 26.9307 0
8450 2 36.5488 26.9307 1.92362
252 4 38.4724 26.9307 0
253 4 40.3961 26.9307 1.92362
8425 2 40.3961 25.0071 0
8451 2 38.4724 26.9307 0
8453 2 40.3961 26.9307 1.92362
8427 2 42.3197 25.0071 1.92362
8454 2 42.3197 26.9307 0
221 4 44.2433 25.0071 0
8426 2 44.2433 25.0071 0
8428 2 46.1669 25.0071 1.92362
8456 2 46.1669 26.9307 0
222 4 48.0906 25.0071 0
225 4 50.0142 25.0071 1.92362
256 4 48.0906 26.9307 1.92362
228 4 53.8614 25.0071 1.92362
227 4 55.785 25.0071 0
8430 2 55.785 25.0071 0
229 4 59.6323 25.0071 0
259 4 59.6323 26.9307 1.92362
231 4 1.92362 28.8543 0
233 4 0 28.8543 1.92362
8432 2 1.92362 28.8543 0
8434 2 0 28.8543 1.92362
234 4 5.77087 28.8543 0
236 4 3.84724 28.8543 1.92362
8435 2 5.77087 28.8543 0
238 4 7.69449 28.8543 1.92362
8438 2 9.61811 28.8543 0
8440 2 7.69449 28.8543 1.92362
241 4 11.5417 28.8543 1.92362
244 4 15.389 28.8543 1.92362
242 4 17.3126 28.8543 0
8442 2 21.1598 28.8543 0
249 4 26.9307 28.8543 1.92362
8444 2 25.0071 28.8543 0
247 4 28.8543 28.8543 0
250 4 30.778 28.8543 1.92362
8448 2 32.7016 28.8543 0
8452 2 40.3961 28.8543 0
8455 2 42.3197 28.8543 1.92362
254 4 44.2433 28.8543 0
8458 2 46.1669 28.8543 1.92362
255 4 48.0906 28.8543 0
257 4 50.0142 28.8543 1.92362
8457 2 48.0906 28.8543 0
8459 2 51.9378 28.8543 0
8461 2 53.8614 28.8543 1.92362
258 4 55.785 28.8543 0
8460 2 55.785 28.8543 0
8462 2 59.6323 28.8543 0
260 4 0 30.778 0
261 4 1.92362 32.7016 0
262 4 0 32.7016 1.92362
8463 2 1.92362 32.7016 0
8464 2 1.92362 30.778 1.92362
8465 2 0 32.7016 1.92362
263 4 3.84724 30.778 0
264 4 5.77087 32.7016 0
265 4 5.77087 30.778 1.92362
266 4 3.84724 32.7016 1.92362
8466 2 3.84724 30.778 0
267 4 7.69449 30.778 0
268 4 9.61811 30.778 1.92362
8467 2 7.69449 30.778 0
8468 2 9.61811 32.7016 0
8469 2 9.61811 30.778 1.92362
269 4 11.5417 30.778 0
270 4 13.4654 32.7016 0
271 4 11.5417 32.7016 1.92362
8470 2 11.5417 30.778 0
272 4 15.389 32.7016 1.92362
8472 2 15.389 32.7016 1.92362
275 4 19.2362 32.7016 1.92362
8471 2 17.3126 30.778 1.92362
273 4 21.1598 32.7016 0
274 4 21.1598 30.778 1.92362
277 4 23.0835 32.7016 1.92362
8473 2 21.1598 32.7016 0
8474 2 23.0835 30.778 0
276 4 25.0071 30.778 1.92362
278 4 26.9307 30.778 0
279 4 26.9307 32.7016 1.92362
280 4 30.778 30.778 0
281 4 32.7016 30.778 1.92362
8475 2 30.778 30.778 0
8476 2 32.7016 32.7016 0
8477 2 32.7016 30.778 1.92362
282 4 34.6252 30.778 0
283 4 36.5488 32.7016 0
284 4 36.5488 30.778 1.92362
8478 2 34.6252 30.778 0
8479 2 36.5488 32.7016 0
285 4 38.4724 32.7016 1.92362
8480 2 38.4724 30.778 0
8481 2 40.3961 32.7016 0
8482 2 40.3961 30.778 1.92362
8483 2 38.4724 32.7016 1.92362
286 4 42.3197 30.778 0
8485 2 42.3197 32.7016 1.92362
287 4 44.2433 32.7016 0
290 4 46.1669 32.7016 1.92362
8484 2 44.2433 30.778 1.92362
288 4 48.0906 32.7016 0
289 4 48.0906 30.778 1.92362
8486 2 48.0906 32.7016 0
8487 2 48.0906 30.778 1.92362
8490 2 50.0142 32.7016 1.92362
8488 2 51.9378 32.7016 0
8489 2 51.9378 30.778 1.92362
8491 2 53.8614 30.778 0
291 4 55.785 30.778 1.92362
8492 2 55.785 32.7016 0
292 4 59.6323 30.778 1.92362
293 4 57.7087 32.7016 1.92362
8493 2 59.6323 30.778 1.92362
8494 2 57.7087 32.7016 1.92362
294 4 1.92362 36.5488 0
8495 2 0 34.6252 0
8496 2 1.92362 36.5488 0
295 4 3.84724 34.6252 0
296 4 5.77087 36.5488 0
8497 2 5.77087 36.5488 0
8498 2 5.77087 34.6252 1.92362
297 4 9.61811 34.6252 1.92362
8499 2 7.69449 34.6252 0
8500 2 7.69449 36.5488 1.92362
298 4 13.4654 36.5488 0
299 4 13.4654 34.6252 1.92362
300 4 11.5417 36.5488 1.92362
8501 2 13.4654 36.5488 0
8502 2 13.4654 34.6252 1.92362
8503 2 11.5417 36.5488 1.92362
301 4 15.389 34.6252 0
8504 2 15.389 34.6252 0
8507 2 15.389 36.5488 1.92362
302 4 17.3126 34.6252 1.92362
304 4 19.2362 36.5488 1.92362
8505 2 17.3126 36.5488 0
8506 2 17.3126 34.6252 1.92362
8508 2 19.2362 34.6252 0
303 4 21.1598 36.5488 0
8509 2 21.1598 36.5488 0
8510 2 23.0835 34.6252 0
8512 2 23.0835 36.5488 1.92362
305 4 25.0071 36.5488 0
306 4 25.0071 34.6252 1.92362
8511 2 25.0071 36.5488 0
8513 2 26.9307 34.6252 0
307 4 28.8543 36.5488 0
308 4 30.778 34.6252 0
309 4 32.7016 36.5488 0
8514 2 32.7016 36.5488 0
8515 2 32.7016 34.6252 1.92362
8516 2 30.778 36.5488 1.92362
8517 2 36.5488 36.5488 0
8518 2 34.6252 36.5488 1.92362
310 4 40.3961 36.5488 0
311 4 40.3961 34.6252 1.92362
312 4 38.4724 36.5488 1.92362
8519 2 38.4724 34.6252 0
8520 2 40.3961 34.6252 1.92362
8521 2 38.4724 36.5488 1.92362
313 4 44.2433 36.5488 0
314 4 46.1669 34.6252 0
8522 2 44.2433 36.5488 0
8523 2 46.1669 34.6252 0
315 4 48.0906 36.5488 0
316 4 50.0142 34.6252 0
319 4 50.0142 36.5488 1.92362
317 4 51.9378 36.5488 0
318 4 51.9378 34.6252 1.92362
320 4 53.8614 34.6252 0
8524 2 51.9378 36.5488 0
8525 2 53.8614 34.6252 0
8526 2 55.785 34.6252 1.92362
321 4 59.6323 36.5488 0
8527 2 59.6323 36.5488 0
322 4 1.92362 40.3961 0
323 4 1.92362 38.4724 1.92362
8528 2 0 38.4724 0
8529 2 0 40.3961 1.92362
324 4 3.84724 38.4724 0
325 4 5.77087 38.4724 1.92362
8530 2 5.77087 40.3961 0
8531 2 3.84724 40.3961 1.92362
326 4 9.61811 38.4724 1.92362
327 4 7.69449 40.3961 1.92362
8532 2 7.69449 38.4724 0
8533 2 9.61811 40.3961 0
328 4 13.4654 38.4724 1.92362
8534 2 13.4654 40.3961 0
329 4 15.389 38.4724 0
331 4 15.389 40.3961 1.92362
330 4 17.3126 40.3961 0
332 4 19.2362 38.4724 0
8535 2 17.3126 40.3961 0
8536 2 17.3126 38.4724 1.92362
8537 2 19.2362 38.4724 0
8539 2 19.2362 40.3961 1.92362
333 4 21.1598 40.3961 0
334 4 23.0835 38.4724 0
336 4 23.0835 40.3961 1.92362
8538 2 21.1598 38.4724 1.92362
8540 2 23.0835 38.4724 0
8543 2 23.0835 40.3961 1.92362
335 4 25.0071 40.3961 0
8541 2 25.0071 40.3961 0
8542 2 25.0071 38.4724 1.92362
337 4 28.8543 40.3961 0
338 4 28.8543 38.4724 1.92362
8544 2 28.8543 40.3961 0
8545 2 28.8543 38.4724 1.92362
339 4 30.778 38.4724 0
340 4 32.7016 40.3961 0
341 4 32.7016 38.4724 1.92362
342 4 30.778 40.3961 1.92362
8546 2 30.778 38.4724 0
8547 2 32.7016 40.3961 0
8548 2 32.7016 38.4724 1.92362
8549 2 30.778 40.3961 1.92362
343 4 34.6252 38.4724 0
344 4 36.5488 40.3961 0
345 4 36.5488 38.4724 1.92362
8550 2 36.5488 38.4724 1.92362
8551 2 34.6252 40.3961 1.92362
346 4 38.4724 38.4724 0
8552 2 40.3961 38.4724 1.92362
8553 2 38.4724 40.3961 1.92362
347 4 42.3197 38.4724 0
348 4 46.1669 38.4724 0
350 4 46.1669 40.3961 1.92362
8555 2 46.1669 40.3961 1.92362
349 4 48.0906 38.4724 1.92362
8554 2 48.0906 40.3961 0
8556 2 50.0142 38.4724 0
351 4 51.9378 40.3961 0
352 4 53.8614 38.4724 0
8557 2 51.9378 38.4724 1.92362
353 4 55.785 40.3961 0
354 4 55.785 38.4724 1.92362
8558 2 55.785 40.3961 0
355 4 59.6323 40.3961 0
356 4 57.7087 40.3961 1.92362
8559 2 59.6323 40.3961 0
8560 2 57.7087 40.3961 1.92362
357 4 0 42.3197 0
359 4 1.92362 42.3197 1.92362
8561 2 0 42.3197 0
8562 2 1.92362 42.3197 1.92362
361 4 3.84724 42.3197 0
8563 2 3.84724 42.3197 0
8564 2 5.77087 42.3197 1.92362
363 4 7.69449 42.3197 0
364 4 9.61811 42.3197 1.92362
8565 2 7.69449 42.3197 0
8566 2 9.61811 42.3197 1.92362
365 4 11.5417 42.3197 0
366 4 13.4654 42.3197 1.92362
8569 2 13.4654 42.3197 1.92362
368 4 17.3126 42.3197 1.92362
8570 2 17.3126 42.3197 1.92362
370 4 21.1598 42.3197 1.92362
372 4 25.0071 42.3197 1.92362
374 4 26.9307 42.3197 0
8573 2 25.0071 42.3197 1.92362
8575 2 26.9307 42.3197 0
376 4 28.8543 42.3197 1.92362
8576 2 28.8543 42.3197 1.92362
378 4 30.778 42.3197 0
379 4 32.7016 42.3197 1.92362
380 4 34.6252 42.3197 0
381 4 36.5488 42.3197 1.92362
8578 2 34.6252 42.3197 0
383 4 40.3961 42.3197 1.92362
385 4 44.2433 42.3197 1.92362
8581 2 44.2433 42.3197 1.92362
387 4 50.0142 42.3197 0
390 4 53.8614 42.3197 0
8582 2 51.9378 42.3197 1.92362
391 4 55.785 42.3197 1.92362
8584 2 55.785 42.3197 1.92362
8586 2 59.6323 42.3197 1.92362
358 4 1.92362 44.2433 0
360 4 0 44.2433 1.92362
362 4 3.84724 44.2433 1.92362
395 4 3.84724 46.1669 0
8591 2 5.77087 46.1669 1.92362
397 4 7.69449 46.1669 0
399 4 9.61811 46.1669 1.92362
8567 2 7.69449 44.2433 1.92362
8593 2 7.69449 46.1669 0
8595 2 9.61811 46.1669 1.92362
367 4 11.5417 44.2433 1.92362
401 4 13.4654 46.1669 1.92362
8568 2 13.4654 44.2433 0
402 4 15.389 46.1669 0
371 4 19.2362 44.2433 1.92362
8572 2 19.2362 44.2433 1.92362
8597 2 17.3126 46.1669 1.92362
8598 2 19.2362 46.1669 0
369 4 21.1598 44.2433 0
373 4 23.0835 44.2433 1.92362
406 4 23.0835 46.1669 0
8571 2 21.1598 44.2433 0
8574 2 23.0835 44.2433 1.92362
8599 2 21.1598 46.1669 1.92362
8600 2 23.0835 46.1669 0
377 4 26.9307 44.2433 1.92362
407 4 26.9307 46.1669 0
8577 2 26.9307 44.2433 1.92362
8601 2 25.0071 46.1669 1.92362
8602 2 26.9307 46.1669 0
375 4 28.8543 44.2433 0
8605 2 32.7016 46.1669 1.92362
408 4 36.5488 46.1669 1.92362
8579 2 34.6252 44.2433 1.92362
8607 2 34.6252 46.1669 0
8608 2 36.5488 46.1669 1.92362
382 4 40.3961 44.2433 0
410 4 38.4724 46.1669 0
412 4 40.3961 46.1669 1.92362
8580 2 40.3961 44.2433 0
8610 2 38.4724 46.1669 0
8612 2 40.3961 46.1669 1.92362
413 4 42.3197 46.1669 0
8614 2 42.3197 46.1669 0
384 4 44.2433 44.2433 0
386 4 46.1669 44.2433 1.92362
415 4 44.2433 46.1669 1.92362
8615 2 44.2433 46.1669 1.92362
8616 2 46.1669 46.1669 0
389 4 50.0142 44.2433 1.92362
418 4 50.0142 46.1669 0
8617 2 48.0906 46.1669 1.92362
8618 2 50.0142 46.1669 0
388 4 51.9378 44.2433 0
419 4 51.9378 46.1669 1.92362
420 4 53.8614 46.1669 0
8585 2 53.8614 44.2433 1.92362
8583 2 55.785 44.2433 0
392 4 59.6323 44.2433 0
393 4 57.7087 44.2433 1.92362
422 4 57.7087 46.1669 0
8587 2 57.7087 44.2433 1.92362
8622 2 57.7087 46.1669 0
394 4 0 48.0906 1.92362
8588 2 1.92362 48.0906 0
8589 2 0 48.0906 1.92362
8623 2 0 50.0142 0
8624 2 1.92362 50.0142 1.92362
396 4 3.84724 48.0906 1.92362
426 4 3.84724 50.0142 0
8590 2 5.77087 48.0906 0
8592 2 3.84724 48.0906 1.92362
8625 2 5.77087 50.0142 1.92362
398 4 9.61811 48.0906 0
400 4 7.69449 48.0906 1.92362
8594 2 9.61811 48.0906 0
8627 2 7.69449 50.0142 0
8628 2 9.61811 50.0142 1.92362
429 4 11.5417 50.0142 0
8596 2 13.4654 48.0906 0
8631 2 13.4654 50.0142 1.92362
404 4 15.389 48.0906 1.92362
432 4 15.389 50.0142 0
403 4 17.3126 48.0906 0
405 4 19.2362 48.0906 1.92362
435 4 19.2362 50.0142 0
436 4 23.0835 50.0142 0
8635 2 21.1598 50.0142 1.92362
8636 2 23.0835 50.0142 0
438 4 25.0071 50.0142 1.92362
8603 2 26.9307 48.0906 1.92362
440 4 28.8543 50.0142 1.92362
8638 2 28.8543 50.0142 1.92362
441 4 30.778 50.0142 0
8604 2 32.7016 48.0906 0
8606 2 30.778 48.0906 1.92362
409 4 34.6252 48.0906 1.92362
443 4 36.5488 50.0142 1.92362
8609 2 34.6252 48.0906 1.92362
8641 2 36.5488 50.0142 1.92362
411 4 40.3961 48.0906 0
445 4 38.4724 50.0142 0
8611 2 40.3961 48.0906 0
8613 2 38.4724 48.0906 1.92362
448 4 42.3197 50.0142 0
8644 2 42.3197 50.0142 0
414 4 44.2433 48.0906 0
417 4 46.1669 48.0906 1.92362
449 4 44.2433 50.0142 1.92362
450 4 46.1669 50.0142 0
416 4 48.0906 48.0906 0
452 4 48.0906 50.0142 1.92362
454 4 50.0142 50.0142 0
8620 2 50.0142 48.0906 1.92362
8647 2 48.0906 50.0142 1.92362
8649 2 50.0142 50.0142 0
456 4 51.9378 50.0142 1.92362
8619 2 51.9378 48.0906 0
8621 2 53.8614 48.0906 1.92362
8651 2 51.9378 50.0142 1.92362
8652 2 53.8614 50.0142 0
421 4 55.785 48.0906 0
457 4 55.785 50.0142 1.92362
423 4 59.6323 48.0906 0
424 4 57.7087 48.0906 1.92362
459 4 57.7087 50.0142 0
460 4 59.6323 50.0142 1.92362
8655 2 57.7087 50.0142 0
8657 2 59.6323 50.0142 1.92362
425 4 0 51.9378 1.92362
8658 2 0 53.8614 0
8660 2 1.92362 53.8614 1.92362
427 4 3.84724 51.9378 1.92362
8626 2 3.84724 51.9378 1.92362
428 4 9.61811 51.9378 0
463 4 9.61811 53.8614 1.92362
8629 2 7.69449 51.9378 1.92362
8662 2 7.69449 53.8614 0
430 4 13.4654 51.9378 0
431 4 11.5417 51.9378 1.92362
464 4 11.5417 53.8614 0
8630 2 13.4654 51.9378 0
8632 2 11.5417 51.9378 1.92362
8665 2 11.5417 53.8614 0
8667 2 13.4654 53.8614 1.92362
434 4 15.389 51.9378 1.92362
465 4 15.389 53.8614 0
8634 2 15.389 51.9378 1.92362
8668 2 15.389 53.8614 0
433 4 17.3126 51.9378 0
467 4 19.2362 53.8614 0
8633 2 17.3126 51.9378 0
8669 2 19.2362 53.8614 0
468 4 21.1598 53.8614 1.92362
8671 2 23.0835 53.8614 0
437 4 25.0071 51.9378 0
470 4 25.0071 53.8614 1.92362
471 4 26.9307 53.8614 0
8637 2 25.0071 51.9378 0
8639 2 26.9307 51.9378 1.92362
439 4 28.8543 51.9378 0
473 4 28.8543 53.8614 1.92362
8673 2 28.8543 53.8614 1.92362
475 4 32.7016 53.8614 1.92362
8640 2 30.778 51.9378 1.92362
8674 2 30.778 53.8614 0
442 4 36.5488 51.9378 0
444 4 34.6252 51.9378 1.92362
477 4 36.5488 53.8614 1.92362
8676 2 34.6252 53.8614 0
8677 2 36.5488 53.8614 1.92362
446 4 40.3961 51.9378 0
447 4 38.4724 51.9378 1.92362
478 4 38.4724 53.8614 0
479 4 40.3961 53.8614 1.92362
8642 2 40.3961 51.9378 0
8643 2 38.4724 51.9378 1.92362
8680 2 40.3961 53.8614 1.92362
8646 2 42.3197 51.9378 1.92362
453 4 46.1669 51.9378 1.92362
481 4 44.2433 53.8614 1.92362
483 4 46.1669 53.8614 0
8645 2 44.2433 51.9378 0
8648 2 46.1669 51.9378 1.92362
451 4 48.0906 51.9378 0
484 4 48.0906 53.8614 1.92362
8684 2 50.0142 53.8614 0
455 4 51.9378 51.9378 0
458 4 53.8614 51.9378 1.92362
8650 2 51.9378 51.9378 0
8654 2 53.8614 51.9378 1.92362
8687 2 53.8614 53.8614 0
488 4 55.785 53.8614 1.92362
8653 2 55.785 51.9378 0
489 4 57.7087 53.8614 0
491 4 59.6323 53.8614 1.92362
8656 2 59.6323 51.9378 0
8659 2 1.92362 55.785 0
461 4 5.77087 55.785 0
8661 2 3.84724 55.785 1.92362
462 4 9.61811 55.785 0
8663 2 9.61811 55.785 0
8664 2 7.69449 55.785 1.92362
8666 2 13.4654 55.785 0
466 4 15.389 55.785 1.92362
469 4 19.2362 55.785 1.92362
8670 2 21.1598 55.785 0
8672 2 23.0835 55.785 1.92362
474 4 26.9307 55.785 1.92362
472 4 28.8543 55.785 0
8675 2 32.7016 55.785 0
476 4 36.5488 55.785 0
8678 2 34.6252 55.785 1.92362
8679 2 40.3961 55.785 0
8681 2 38.4724 55.785 1.92362
482 4 42.3197 55.785 1.92362
8682 2 42.3197 55.785 1.92362
480 4 44.2433 55.785 0
8683 2 46.1669 55.785 1.92362
486 4 50.0142 55.785 1.92362
8686 2 50.0142 55.785 1.92362
485 4 51.9378 55.785 0
8685 2 51.9378 55.785 0
487 4 55.785 55.785 0
8688 2 55.785 55.785 0
490 4 59.6323 55.785 0
492 4 1.92362 59.6323 0
8689 2 0 57.7087 0
8690 2 1.92362 59.6323 0
8691 2 0 59.6323 1.92362
493 4 3.84724 57.7087 0
494 4 5.77087 59.6323 0
495 4 3.84724 59.6323 1.92362
8692 2 3.84724 57.7087 0
8693 2 5.77087 57.7087 1.92362
8694 2 3.84724 59.6323 1.92362
496 4 7.69449 57.7087 0
497 4 9.61811 57.7087 1.92362
8695 2 9.61811 59.6323 0
8696 2 7.69449 59.6323 1.92362
498 4 13.4654 59.6323 0
8697 2 11.5417 57.7087 0
8698 2 13.4654 57.7087 1.92362
8699 2 15.389 57.7087 0
8702 2 15.389 59.6323 1.92362
501 4 19.2362 59.6323 1.92362
8700 2 17.3126 59.6323 0
8701 2 17.3126 57.7087 1.92362
8703 2 19.2362 57.7087 0
499 4 21.1598 59.6323 0
500 4 21.1598 57.7087 1.92362
502 4 23.0835 57.7087 0
8706 2 23.0835 59.6323 1.92362
503 4 26.9307 57.7087 0
8704 2 25.0071 59.6323 0
8705 2 25.0071 57.7087 1.92362
8707 2 26.9307 57.7087 0
8709 2 26.9307 59.6323 1.92362
504 4 28.8543 59.6323 0
505 4 28.8543 57.7087 1.92362
8708 2 28.8543 57.7087 1.92362
506 4 32.7016 59.6323 0
507 4 32.7016 57.7087 1.92362
508 4 30.778 59.6323 1.92362
8710 2 32.7016 59.6323 0
8711 2 30.778 59.6323 1.92362
509 4 34.6252 57.7087 0
510 4 36.5488 59.6323 0
511 4 36.5488 57.7087 1.92362
8712 2 34.6252 57.7087 0
8713 2 36.5488 57.7087 1.92362
8714 2 34.6252 59.6323 1.92362
512 4 38.4724 57.7087 0
8715 2 38.4724 57.7087 0
8716 2 40.3961 59.6323 0
8717 2 40.3961 57.7087 1.92362
8718 2 38.4724 59.6323 1.92362
513 4 42.3197 57.7087 0
8719 2 42.3197 57.7087 0
514 4 44.2433 57.7087 1.92362
516 4 46.1669 59.6323 1.92362
8720 2 44.2433 59.6323 0
515 4 48.0906 57.7087 1.92362
517 4 50.0142 57.7087 0
519 4 50.0142 59.6323 1.92362
8721 2 48.0906 57.7087 1.92362
8722 2 50.0142 57.7087 0
8725 2 50.0142 59.6323 1.92362
518 4 51.9378 57.7087 1.92362
8723 2 51.9378 59.6323 0
8724 2 51.9378 57.7087 1.92362
8726 2 55.785 59.6323 0
8727 2 55.785 57.7087 1.92362
520 4 59.6323 59.6323 0
521 4 59.6323 57.7087 1.92362
8728 2 59.6323 59.6323 0
8729 2 59.6323 57.7087 1.92362
8730 2 1.92362 1.92362 3.84724
8731 2 0 1.92362 5.77087
522 4 5.77087 0 5.77087
523 4 3.84724 1.92362 5.77087
8732 2 5.77087 1.92362 3.84724
8733 2 5.77087 0 5.77087
8734 2 3.84724 1.92362 5.77087
524 4 9.61811 0 5.77087
8735 2 7.69449 0 3.84724
8736 2 9.61811 0 5.77087
8737 2 7.69449 1.92362 5.77087
525 4 13.4654 1.92362 3.84724
526 4 13.4654 0 5.77087
527 4 11.5417 1.92362 5.77087
8738 2 13.4654 0 5.77087
8739 2 11.5417 1.92362 5.77087
528 4 15.389 0 3.84724
8740 2 15.389 0 3.84724
8741 2 15.389 1.92362 5.77087
529 4 17.3126 0 5.77087
531 4 19.2362 1.92362 5.77087
8742 2 19.2362 1.92362 5.77087
530 4 21.1598 0 5.77087
8743 2 23.0835 0 3.84724
8745 2 23.0835 1.92362 5.77087
532 4 25.0071 1.92362 3.84724
533 4 25.0071 0 5.77087
534 4 26.9307 0 3.84724
535 4 26.9307 1.92362 5.77087
8744 2 25.0071 1.92362 3.84724
8746 2 26.9307 0 3.84724
8747 2 28.8543 0 5.77087
536 4 30.778 0 3.84724
537 4 32.7016 1.92362 3.84724
538 4 32.7016 0 5.77087
539 4 30.778 1.92362 5.77087
8748 2 30.778 0 3.84724
8749 2 30.778 1.92362 5.77087
8750 2 36.5488 1.92362 3.84724
8751 2 36.5488 0 5.77087
8752 2 34.6252 1.92362 5.77087
540 4 38.4724 0 3.84724
8753 2 38.4724 1.92362 5.77087
541 4 42.3197 0 3.84724
542 4 44.2433 1.92362 3.84724
545 4 46.1669 1.92362 5.77087
8754 2 44.2433 1.92362 3.84724
8755 2 44.2433 0 5.77087
8756 2 46.1669 1.92362 5.77087
543 4 48.0906 1.92362 3.84724
544 4 48.0906 0 5.77087
546 4 50.0142 0 3.84724