ITEM: TIMESTEP
0
ITEM: NUMBER OF ATOMS
50688
ITEM: BOX BOUNDS xy xz yz pp pp pp
-40.1340523 49.2450714 9.1110258
-43.8030052 43.8030052 0.0
-43.7915344 43.7915344 0.0
ITEM: ATOMS id type x y z VoronoiIndex1 VoronoiIndex2 VoronoiIndex3 VoronoiIndex4 VoronoiIndex5 VoronoiIndex6 VoronoiIndex7 VoronoiIndex8 VoronoiIndex9 AtomicVolume
2 2 -13.2399998 -19.3600006 -8.5170002 0 0 1 2 5 4 0 0 0 11.3440342
4 2 -29.3299999 -20.8500004 -19.5200005 0 0 2 0 8 2 2 0 0 11.3755751
15 4 -7.6929999 -26.0599995 -21.0300007 0 0 0 1 10 2 0 0 0 11.5403281
23 2 -15.6199999 -31.8299999 -14.1899996 0 0 0 1 10 4 0 0 0 12.3349209
32 5 -37.5099983 -22.1399994 -35.7999993 0 0 0 2 10 3 0 0 0 13.5046425
33 1 -12.8800002 -5.4520002 -27.25 0 0 0 1 10 2 0 0 0 11.7785778
39 4 -22.5 -34.1199989 -41.7900009 0 0 0 0 12 3 0 0 0 13.2313652
45 4 -3.22 -15.0200005 -15.54 0 0 0 0 12 0 0 0 0 10.5077849
46 4 -28.6800003 -12.0 -43.0499992 0 0 1 1 9 2 2 0 0 12.7528677
68 4 -12.7299996 -9.6700001 -9.5869999 0 0 0 2 8 4 0 0 0 11.8920718
75 5 0.7369 -29.3400002 -36.3899994 0 0 1 3 5 5 2 0 0 12.9247732
88 5 -31.5699997 -31.0799999 -0.4454 0 0 1 3 5 3 0 0 0 11.5335102
90 4 -12.6300001 -42.8600006 -36.1199989 0 0 0 2 10 2 0 0 0 13.0120087
93 2 -33.9000016 -19.4599991 -25.8600006 0 0 0 2 8 3 0 0 0 11.5839043
97 5 -21.9799996 -8.8039999 -0.591 0 0 0 2 10 3 0 0 0 12.819499
106 4 -11.7200003 -32.5499993 -2.685 0 0 0 1 10 2 0 0 0 11.7978249
109 4 -32.3300018 -10.1400003 -26.2099991 0 0 1 1 9 5 0 0 0 13.3938475
114 2 -9.3710003 -40.3499985 -6.7909999 0 0 0 3 6 4 0 0 0 11.4771147
118 2 -3.3210001 -35.4199982 -30.3199997 0 0 0 1 10 2 0 0 0 11.2612152
119 4 -33.6500016 -22.0300007 -19.2600002 0 0 0 1 10 5 0 0 0 13.438283
122 4 -0.1147 -35.2900009 -33.0499992 0 0 0 0 12 3 0 0 0 13.016633
141 4 -20.3799992 -10.9499998 -40.2999992 0 0 1 4 3 7 0 0 0 12.6350212
162 4 -3.6240001 -14.0600004 -34.5499993 0 0 1 1 8 3 1 0 0 11.8101654
164 1 -6.454 -8.0500002 -40.1699982 0 0 0 3 8 2 0 0 0 11.7966824
169 1 -0.6129 -12.5600004 -18.7800007 0 0 0 1 10 2 0 0 0 11.7113972
174 5 1.118 -8.4180002 -29.8099995 0 0 0 3 6 7 0 0 0 12.9724198
187 4 0.714 -11.0299997 -21.8999996 0 0 0 2 8 4 0 0 0 11.984274
199 1 -6.6180001 -31.2299996 -27.5100003 0 0 0 1 10 2 0 0 0 11.5245152
205 4 4.2540002 -2.7060001 -33.5200005 0 0 1 3 7 5 0 0 0 12.8899832
211 2 -36.4599991 -24.8199997 -37.5 0 0 0 2 10 1 0 0 0 11.4465609
223 2 -3.2939999 -37.6800003 -23.0900002 0 0 0 2 10 1 0 0 0 12.1216383
227 4 -16.5599995 -6.5359998 -28.9400006 0 0 1 1 9 4 0 0 0 12.7611037
237 2 -13.3699999 -37.9700012 -34.0800018 0 0 0 2 8 2 0 0 0 11.7275677
253 5 -2.2100001 -4.744 -34.7599983 0 0 1 3 7 3 0 0 0 12.9221726
254 4 -6.5110002 -25.7600003 -4.3239999 0 0 0 4 4 6 0 0 0 12.1322117
258 2 -6.6170001 -37.4900017 -41.869999 0 0 0 2 8 2 0 0 0 11.6046267
259 5 -3.6080001 -37.1199989 -34.7599983 0 0 0 0 10 2 0 0 0 12.2782717
265 5 -34.1100006 -21.9099998 -25.7600003 0 0 1 2 7 4 0 0 0 11.9661026
275 5 -34.8300019 -21.2999992 -32.1599999 0 0 1 1 9 4 0 0 0 12.0672369
286 3 -13.7799998 -33.1800003 -23.2399998 0 0 0 0 12 2 0 0 0 12.6728182
290 4 -39.3300018 -42.7700005 -3.197 0 0 0 3 6 2 2 0 0 12.0063887
293 5 -19.4699993 -8.5249996 -43.619999 0 0 0 2 10 1 0 0 0 12.8862334
297 5 -19.1900005 -8.4139996 -20.5200005 0 0 0 2 8 4 0 0 0 12.608222
306 1 -0.6382 -17.2900009 -0.9057 0 0 0 0 12 0 0 0 0 10.7443543
326 4 -24.1499996 -23.5100003 -10.3999996 0 0 0 1 10 2 0 0 0 12.6913176
338 5 -25.3700009 -33.9700012 -30.3899994 0 0 1 2 9 1 0 0 0 11.3739576
339 4 -2.3 -38.7299996 -10.5799999 0 0 1 3 7 4 0 0 0 12.9928266
349 4 -23.8799992 -42.0 -16.3899994 0 0 1 3 5 6 0 0 0 13.0491009
350 4 -33.3100014 -14.6999998 -37.0499992 0 0 0 1 10 3 0 0 0 12.0467415
364 4 -5.2620001 -21.5699997 -42.25 0 0 0 2 8 5 0 0 0 13.4052134
378 1 -5.2930002 -43.7000008 -17.3600006 0 0 0 2 8 2 0 0 0 11.4975138
387 3 -16.9899998 -23.5300007 -32.3300018 0 0 0 4 5 3 1 0 0 11.6222239
397 1 -7.1550002 -27.3500004 -24.9599992 0 0 0 3 6 4 0 0 0 12.047555
403 4 -34.2000008 -33.1699982 -14.7100001 0 0 0 3 6 5 0 0 0 12.7610359
414 4 -11.5299998 -0.9056 -7.7740002 0 0 0 0 12 2 0 0 0 11.913455
415 4 -13.1899996 -2.957 -27.3999996 0 0 0 0 11 2 1 0 0 12.9211264
423 2 -28.6200009 -13.75 -26.1499996 0 0 1 1 9 4 0 0 0 13.144784
424 3 -21.6399994 -37.6699982 -30.2099991 0 0 0 2 8 4 0 0 0 12.7298451
440 2 -10.3500004 -30.8099995 -36.619999 0 0 0 3 6 3 0 0 0 11.986968
458 1 -35.4700012 -28.3600006 -39.0499992 0 0 0 0 12 0 0 0 0 11.0236607
461 2 -20.7800007 -0.8935 -6.4169998 0 0 1 2 6 3 1 0 0 11.3413592
469 2 -7.316 -15.4899998 -6.9980002 0 0 0 4 6 2 0 0 0 11.3053055
477 2 -17.75 -18.9200002 -26.3999996 0 0 0 2 8 4 0 0 0 12.3301907
478 5 -12.4899998 -9.9350004 -32.6699982 0 0 0 3 6 5 0 0 0 12.6204653
483 4 -9.9750004 -6.5209999 -31.0499992 0 0 0 1 10 2 0 0 0 11.4156046
485 4 -15.4700003 -17.25 -4.2290001 0 0 0 0 12 2 0 0 0 12.8939038
495 4 -33.2099991 -25.5400009 -1.635 0 0 0 2 10 2 0 0 0 12.0401402
497 5 -2.945 -38.1899986 -42.619999 0 0 0 2 10 0 0 0 0 11.8408394
508 4 -22.0100002 -23.3899994 -14.4200001 0 0 0 0 12 4 0 0 0 12.919386
511 4 -20.5699997 -22.8299999 -35.8899994 0 0 0 4 6 4 0 0 0 11.6161795
514 2 -15.5900002 -25.2299996 -39.2000008 0 0 0 2 8 2 0 0 0 11.5546217
537 5 -19.6399994 -19.6499996 -14.1000004 0 0 0 2 8 5 0 0 0 12.1418505
544 3 -30.7800007 -12.7100001 -39.0800018 0 0 0 2 8 3 0 0 0 11.5252114
546 2 -15.9899998 -13.0500002 -33.5600014 0 0 0 3 8 2 0 0 0 11.7119265
553 4 -32.4900017 -27.9200002 -5.4889999 0 0 0 1 10 2 0 0 0 11.8757192
554 5 -19.1000004 -39.2599983 -18.6200009 0 0 0 1 10 2 0 0 0 11.6115637
567 2 -8.903 -42.8400002 -18.3199997 0 0 0 2 8 3 0 0 0 11.9157906
574 4 -30.8199997 -23.5799999 -16.3199997 0 0 0 0 12 3 0 0 0 12.4613877
579 5 -19.4899998 -26.4699993 -25.4200001 0 0 0 4 5 3 1 0 0 12.4802151
595 4 -4.3439999 -23.9099998 -23.9599992 0 0 0 1 10 2 0 0 0 11.9958868
621 2 -28.4899998 -33.0 -7.0139999 0 0 0 1 10 2 0 0 0 12.2795725
634 4 1.027 -0.4897 -11.1700001 0 0 0 1 10 4 0 0 0 12.4955864
639 5 -36.2700005 -11.6499996 -28.5400009 0 0 0 3 8 4 0 0 0 12.909319
644 2 -14.5699997 -8.5010004 -20.8400002 0 0 0 0 12 0 0 0 0 11.500145
664 4 -3.2839999 -31.5200005 -37.5600014 0 0 0 2 8 4 0 0 0 12.6756354
670 4 -25.7299996 -19.5300007 -40.9399986 0 0 0 2 8 5 0 0 0 12.976593
672 4 -0.3656 -42.6100006 -26.4200001 0 0 0 1 10 4 0 0 0 11.9846916
690 2 -19.0100002 -32.4799996 -36.5499993 0 0 1 2 6 2 1 0 0 12.4060612
699 4 -6.197 -22.0200005 -26.8999996 0 0 0 3 8 2 2 0 0 14.3789787
701 5 -17.5699997 -32.2299996 -2.941 0 0 0 4 6 2 0 0 0 11.8978416
702 5 -7.5349999 -34.619999 -13.6999998 0 0 0 0 12 0 0 0 0 10.9250612
708 4 0.06662 -3.3299999 -34.1699982 0 0 0 2 8 4 0 0 0 12.6924372
718 4 -20.6599999 -13.6400004 -30.7299996 0 0 0 0 12 2 0 0 0 12.0788469
731 4 -3.3900001 -20.1000004 -29.1399994 0 0 0 1 10 2 0 0 0 12.0013113
733 4 -16.2600002 -20.2000008 -24.9099998 0 0 0 1 10 2 0 0 0 11.7530012
740 2 -34.4000015 -37.5499993 -42.1199989 0 0 0 0 12 0 0 0 0 10.9770804
766 4 -28.8099995 -12.0100002 -12.6300001 0 0 0 3 8 3 0 0 0 12.1140575
773 2 -14.0100002 -26.1900005 -30.4099999 0 0 0 1 10 2 0 0 0 11.3031473
779 5 -11.7799998 -34.6300011 -18.7299996 0 0 0 4 4 6 0 0 0 12.7838221
782 2 1.151 -20.1299992 -9.0179996 0 0 0 0 12 0 0 0 0 10.8151884
783 5 -0.05165 -26.6200009 -16.6800003 0 0 0 2 8 2 2 0 0 12.3750486
792 4 -0.8734 -31.5200005 -36.619999 0 0 0 2 8 4 0 0 0 13.083087
800 2 -37.0 -37.2999992 -19.6599999 0 0 0 0 12 0 0 0 0 11.5800362
804 2 -8.559 -1.4730001 -39.9199982 0 0 0 1 10 2 0 0 0 12.0391436
824 5 -26.8700008 -23.3700009 -1.357 0 0 0 2 8 4 0 0 0 11.5236063
827 2 -5.4629998 -36.7099991 -23.2900009 0 0 0 2 10 1 0 0 0 12.011569
839 2 -24.6200009 -41.5299988 -2.1900001 0 0 0 2 8 6 0 0 0 12.5860691
853 4 -32.1399994 -8.8929996 -28.6900006 0 0 0 2 8 4 0 0 0 13.4670382
857 5 -27.8299999 -14.8999996 -17.8299999 0 0 1 3 5 5 0 0 0 12.2847405
858 4 -23.8600006 -10.0699997 -4.3509998 0 0 0 1 10 4 0 0 0 13.4941368
864 4 -0.2434 -12.3000002 -27.6399994 0 0 0 1 9 2 1 0 0 11.94687
867 1 0.4088 -28.3199997 -21.1599999 0 0 0 0 12 0 0 0 0 11.5443087
907 5 -24.5200005 -27.4200001 -43.6599999 0 0 0 1 10 2 0 0 0 12.3109923
912 5 -21.7700005 -42.8600006 -39.2999992 0 0 1 0 9 3 0 0 0 11.9704028
913 1 -11.9099998 -10.4200001 -24.1700001 0 0 0 3 8 2 0 0 0 11.8555804
918 4 -14.1700001 -18.8199997 -33.8100014 0 0 0 2 8 4 0 0 0 12.1709452
919 5 -3.786 -14.96 -9.5439997 0 0 0 4 5 5 1 0 0 12.8775226
927 5 -16.9500008 -24.8299999 -29.4500008 0 0 1 2 7 4 2 0 0 13.4229899
934 4 -21.3299999 -7.8709998 -26.8400002 0 0 0 0 12 0 0 0 0 11.0202589
935 2 -26.7900009 -5.8169999 -26.0100002 0 0 0 2 8 2 0 0 0 11.4038725
939 2 -39.0699997 -36.5499993 -30.9300004 0 0 0 2 10 1 0 0 0 11.7108307
949 2 -23.6499996 -5.4600001 -32.4700012 0 0 0 4 7 2 1 0 0 13.0215158
959 4 -20.7000008 -25.1599999 -9.2480002 0 0 0 0 12 3 0 0 0 13.1378594
961 2 -16.6200009 -40.2400017 -41.2700005 0 0 1 0 10 2 1 0 0 12.4671908
969 2 -31.9200002 -9.8780004 -12.0500002 0 0 0 3 6 4 0 0 0 11.605443
979 2 -8.2189999 -14.29 -19.9300004 0 0 1 1 8 3 1 0 0 12.0320921
983 2 0.4244 -4.8940002 -8.6770001 0 0 0 4 4 3 2 0 0 12.0364895
990 5 -24.6000004 -25.3999996 -42.3300018 0 0 0 1 10 2 0 0 0 11.8567382
1001 4 -8.7399998 -19.8700008 -23.5 0 0 0 1 10 2 0 0 0 13.0512495
1015 5 -38.9799996 -39.5800019 -14.4300003 0 0 0 1 10 3 0 0 0 12.0465288
1016 2 -3.9300002 -30.4500008 -8.0209999 0 0 0 0 12 0 0 0 0 11.3381329
1033 2 -23.4599991 -34.1500015 -10.8299999 0 0 0 3 6 3 0 0 0 11.4276877
1051 4 -15.3999996 -15.4200001 -18.5499993 0 0 0 3 6 4 0 0 0 12.2359514
1064 5 -5.1989999 -19.5699997 -31.3799992 0 0 1 3 7 3 0 0 0 12.308156
1065 2 -10.75 -19.4099999 -8.3570004 0 0 0 4 4 6 0 0 0 11.4319706
1075 4 -34.4599991 -1.909 -34.9799996 0 0 1 2 7 3 0 0 0 12.007864
1084 1 2.458 -6.448 -33.7900009 0 0 0 1 10 2 0 0 0 11.6754198
1086 1 -16.0100002 -38.7900009 -23.8600006 0 0 0 1 10 2 0 0 0 11.093852
1089 3 -27.8700008 -33.1500015 -38.1699982 0 0 0 1 10 4 0 0 0 12.9405708
1099 2 3.5209999 -2.5539999 -39.2000008 0 0 0 0 12 2 0 0 0 12.5274649
1102 1 -11.7799998 -36.0800018 -37.2799988 0 0 0 0 12 0 0 0 0 11.1527395
1110 2 -23.5200005 -22.0200005 -5.6160002 0 0 2 2 6 3 0 0 0 11.3437367
1111 5 -34.6599999 -5.7620001 -5.9239998 0 0 0 1 10 2 0 0 0 12.580493
1122 4 -19.2800007 -24.1599999 -15.3900004 0 0 0 1 9 2 1 0 0 11.658494
1131 2 -5.7210002 -2.5420001 -21.3899994 0 0 0 1 10 2 0 0 0 12.47929
1133 2 -10.3800001 -42.5099983 -7.6630001 0 0 0 5 6 2 0 0 0 11.7298336
1138 4 -33.1899986 -29.4699993 -0.6094 0 0 0 2 10 1 0 0 0 12.2552242
1163 2 -33.4399987 -19.0499992 -12.3900004 0 0 0 0 12 0 0 0 0 12.3952198
1164 4 0.2437 -25.2299996 -31.6499996 0 0 0 1 9 2 1 0 0 11.8915826
1166 5 -23.6000004 -28.6200009 -9.559 0 0 0 0 10 2 0 0 0 12.3202458
1170 2 -8.0830002 -4.0560002 -17.1399994 0 0 0 2 8 1 0 0 0 11.5266371
1178 1 -24.4400006 -33.5800019 -5.5029998 0 0 0 3 6 4 0 0 0 11.3928309
1195 5 -12.7100001 -39.1599999 -9.4110003 0 0 0 3 6 4 0 0 0 10.9139404
1198 5 -8.2150002 -34.4300003 -38.2200012 0 0 1 1 8 3 1 0 0 11.7877989
1209 2 -12.1599999 -5.6160002 -9.6999998 0 0 0 2 8 2 0 0 0 12.2543621
1211 5 -26.1700001 -23.1000004 -21.1200008 0 0 1 1 9 3 0 0 0 11.9816152
1219 5 -25.8400002 -32.5299988 -39.6100006 0 0 1 1 9 3 0 0 0 12.955392
1238 4 -37.0400009 -32.5699997 -38.9599992 0 0 0 2 8 7 0 0 0 13.8156109
1239 2 -18.8700008 -10.6899996 -19.3799992 0 0 0 0 12 0 0 0 0 11.6005287
1251 4 -37.8600006 -31.8500004 -7.514 0 0 0 0 12 3 0 0 0 12.997695
1256 4 -14.25 -6.007 -8.401 0 0 0 2 10 3 0 0 0 13.2521458
1259 2 -35.9300004 -43.7400017 -15.8800002 0 0 0 2 10 0 0 0 0 11.2825832
1262 4 -29.1800003 -22.0599995 -14.6999998 0 0 0 3 6 4 0 0 0 12.2551432
1266 4 -0.9492 -22.6900006 -36.9099998 0 0 1 3 9 1 2 0 0 12.9113712
1280 4 -36.9700012 -27.9799996 -32.2799988 0 0 0 2 8 4 0 0 0 12.0291023
1286 5 -5.8509998 -11.1700001 -36.3899994 0 0 2 2 6 3 2 0 0 12.1581097
1289 2 -6.882 -10.4300003 -23.0200005 0 0 0 0 12 0 0 0 0 11.3032217
1299 2 -7.151 -15.9399996 -40.4900017 0 0 0 2 8 2 0 0 0 11.4117413
1303 4 -12.4300003 -20.0 -35.3100014 0 0 1 4 5 5 0 0 0 11.9953508
1304 5 -11.1000004 -18.8700008 -14.4600001 0 0 0 1 10 4 0 0 0 13.5243635
1306 5 -0.9032 -10.8800002 -29.4400006 0 0 0 4 6 2 2 0 0 12.4082375
1315 2 -37.7700005 -34.2999992 -42.8600006 0 0 0 0 12 0 0 0 0 11.1635294
1319 2 -20.6599999 -28.6399994 -1.311 0 0 0 3 6 5 0 0 0 11.86547
1322 4 -0.7375 -27.8600006 -3.4260001 0 0 0 1 12 1 0 0 0 12.9655724
1336 4 -8.7519999 -4.8169999 -23.3400002 0 0 0 1 10 4 0 0 0 13.2370997
1337 4 -14.3699999 -19.9699994 -36.9500008 0 0 0 3 6 4 0 0 0 11.684413
1340 2 -28.0799999 -24.7299996 -39.1399994 0 0 0 2 8 2 0 0 0 11.6945839
1342 2 -37.3100014 -32.2400017 -32.5600014 0 0 0 1 10 4 0 0 0 12.7708931
1343 2 -23.2999992 -4.8470002 -35.0699997 0 0 0 0 12 0 0 0 0 11.6269188
1352 5 -11.1999998 -15.4200001 -42.75 0 0 0 1 10 2 0 0 0 10.9837762
1372 2 -18.1800003 -22.8700008 -28.5799999 0 0 1 0 9 3 0 0 0 12.0575218
1385 5 1.63 -10.7799998 -33.6699982 0 0 0 1 10 2 0 0 0 11.5969515
1394 5 -0.2576 -36.4300003 -26.1000004 0 0 0 4 6 3 0 0 0 12.0067997
1399 4 -36.8899994 -17.5300007 -2.3169999 0 0 0 3 6 4 0 0 0 11.576705
1407 5 -34.1599999 -6.8049999 -24.6900006 0 0 0 0 12 0 0 0 0 10.7589169
1408 1 -20.5499993 -34.7000008 -7.8200002 0 0 0 4 7 1 0 0 0 11.1254749
1414 2 -30.1399994 -20.6700001 -31.8299999 0 0 0 0 12 0 0 0 0 12.1077232
1419 2 -33.5800019 -43.75 -15.3500004 0 0 0 2 10 1 0 0 0 11.7227125
1421 2 -17.3099995 -36.2599983 -33.2999992 0 0 0 4 6 4 0 0 0 12.1947241
1437 4 -37.0699997 -19.5300007 -19.8400002 0 0 0 1 10 3 0 0 0 12.7158976
1495 5 -14.8999996 -23.5200005 -6.4450002 0 0 0 1 10 2 0 0 0 12.1178351
1502 4 -4.6869998 -12.9700004 -38.4399987 0 0 0 3 6 4 0 0 0 12.3887224
1521 5 -15.5100003 -24.5599995 -2.906 0 0 1 0 9 3 0 0 0 11.971036
1526 4 -15.8100004 -9.1309996 -35.4900017 0 0 0 1 10 3 0 0 0 11.813942
1527 5 -17.0799999 -40.3300018 -35.4399987 0 0 1 2 7 4 0 0 0 11.3772431
1529 2 -13.9799996 -36.8400002 -26.4699993 0 0 0 3 6 3 0 0 0 11.8226729
1539 5 -29.7399998 -1.5160001 -30.4200001 0 0 3 2 5 6 0 0 0 13.4710617
1540 5 -0.4289 -9.4270001 -23.2600002 0 0 0 1 10 4 0 0 0 12.5947275
1546 4 -10.0500002 -41.6699982 -38.619999 0 0 1 3 5 6 0 0 0 11.9742948
1552 4 -34.5800019 -40.5099983 -29.6499996 0 0 0 1 10 3 0 0 0 12.4750242
1555 2 -13.3000002 -19.0900002 -42.25 0 0 0 1 10 2 0 0 0 12.0950851
1563 5 -4.7410002 -30.4300003 -16.7600003 0 0 0 2 8 3 0 0 0 11.7170744
1566 5 -5.7319999 -7.8410002 -18.7399998 0 0 0 1 10 3 0 0 0 12.5631304
1585 4 -34.8600006 -27.9099998 -6.4089999 0 0 0 1 10 3 0 0 0 11.9853784
1593 2 -22.9099998 -4.039 -29.1599999 0 0 0 0 12 0 0 0 0 11.5457392
1595 4 -36.7299996 -16.9799996 -28.0400009 0 0 0 4 5 4 1 0 0 12.4127312
1597 5 -5.1110001 -17.5799999 -5.916 0 0 0 3 6 5 0 0 0 12.4454012
1611 5 -15.0799999 -8.059 -0.3347 0 0 0 3 6 4 0 0 0 12.0672379
1617 4 -17.5799999 -2.678 -38.1500015 0 0 0 1 10 2 0 0 0 11.6869459
1625 2 -37.6399994 -35.3499985 -29.3299999 0 0 0 2 8 2 0 0 0 10.6289158
1626 2 -17.8299999 -35.7700005 -27.6599999 0 0 0 0 12 0 0 0 0 11.3590994
1632 5 -3.6889999 -23.3099995 -33.0499992 0 0 0 2 8 5 0 0 0 13.1172981
1651 2 -2.57 -2.0550001 -6.5999999 0 0 0 2 8 3 0 0 0 11.4842091
1656 4 -9.349 -3.685 -19.0599995 0 0 0 0 12 3 0 0 0 13.3268385
1658 4 -36.3600006 -15.04 -6.448 0 0 0 0 12 2 0 0 0 11.6945639
1660 4 -31.9200002 -5.8119998 -25.6700001 0 0 0 1 12 1 0 0 0 11.840744
1670 2 -23.9200002 -23.4599991 -24.3899994 0 0 1 3 5 5 0 0 0 11.8733998
1671 4 -1.089 -29.1100006 -34.9099998 0 0 0 1 10 2 0 0 0 12.8311043
1675 4 -0.4187 -41.4799996 -28.8299999 0 0 0 2 8 4 0 0 0 12.7080736
1680 5 -1.173 -31.2999992 -23.2299996 0 0 0 1 10 2 0 0 0 11.4091931
1683 4 -26.6599999 -15.79 -38.6100006 0 0 0 3 6 5 0 0 0 12.1209984
1686 5 -9.5819998 -16.75 -26.4300003 0 0 0 2 8 4 0 0 0 12.5594397
1687 2 -21.9799996 -30.1299992 -31.1000004 0 0 0 3 6 4 0 0 0 11.4987383
1707 4 -16.0300007 -30.3899994 -3.2820001 0 0 1 0 11 1 0 0 0 11.6387844
1727 5 -18.0100002 -9.9379998 -15.7100001 0 0 2 0 8 4 0 0 0 11.7074309
1733 4 -7.5570002 -26.2299996 -28.7700005 0 0 0 2 8 3 0 0 0 12.5607653
1741 3 -22.6100006 -36.6699982 -36.8199997 0 0 0 2 10 2 0 0 0 12.5898285
1748 2 0.1727 -9.2550001 -15.8999996 0 0 0 2 8 4 0 0 0 12.2071581
1749 5 -34.9099998 -24.6100006 -29.8099995 0 0 0 2 8 5 0 0 0 12.6122084
1755 2 -35.6399994 -9.0690002 -20.8600006 0 0 0 3 6 4 0 0 0 12.289197
1759 1 -16.5599995 -20.4799996 -6.6240001 0 0 0 2 8 3 0 0 0 11.6370983
1771 5 -17.2399998 -13.5 -14.2100001 0 0 0 0 12 0 0 0 0 10.7565317
1772 2 -16.6100006 -10.2100001 -4.9759998 0 0 0 3 6 3 0 0 0 11.6611672
1786 2 -10.1899996 -18.6900006 -1.717 0 0 0 0 12 0 0 0 0 11.1765375
1795 2 -8.9680004 -8.5439997 -11.8000002 0 0 0 1 10 2 0 0 0 11.6524401
1796 4 -25.3299999 -4.6550002 -36.6100006 0 0 0 1 10 3 0 0 0 11.9803916
1798 5 -26.9899998 -19.9500008 -29.2700005 0 0 0 2 8 3 0 0 0 12.2980881
1804 5 -34.2299996 -14.9399996 -32.6300011 0 0 1 1 9 3 2 0 0 13.2249746
1810 2 -25.7999993 -39.6800003 -31.6100006 0 0 0 0 12 0 0 0 0 11.0341816
1811 4 0.6103 -26.5100003 -43.2000008 0 0 0 0 12 3 0 0 0 12.5614634
1834 1 -11.1499996 -26.8700008 -15.8100004 0 0 1 2 7 3 0 0 0 12.1111908
1835 2 -12.3299999 -3.151 -15.4899998 0 0 1 2 6 4 1 0 0 11.8270579
1844 2 -28.4899998 -42.0400009 -29.6800003 0 0 2 2 6 3 0 0 0 11.7097664
1849 5 -7.461 -31.8799992 -9.389 0 0 0 2 8 3 0 0 0 12.1894999
1850 4 -27.2399998 -27.4899998 -19.5 0 0 1 0 11 3 0 0 0 12.7154408
1855 2 -3.2100001 -36.2599983 -18.3500004 0 0 0 1 10 2 0 0 0 11.4045658
1870 5 -11.4399996 -30.4099999 -25.8500004 0 0 0 2 8 4 0 0 0 12.3613711
1876 4 -32.3899994 -29.2700005 -35.869999 0 0 0 0 12 3 0 0 0 12.3665667
1893 4 -26.6299992 -7.4330001 -19.8899994 0 0 0 0 12 4 0 0 0 13.2544861
1908 2 -34.2599983 -9.1040001 -24.8799992 0 0 0 0 12 0 0 0 0 11.1391621
1914 2 -26.6800003 -6.823 -35.9799996 0 0 0 0 12 0 0 0 0 10.5466576
1919 4 -8.1049995 -11.9499998 -2.106 0 0 0 1 10 3 0 0 0 12.3709049
1923 4 -7.7160001 -7.5819998 -9.6899996 0 0 0 3 6 6 0 0 0 12.0255985
1927 2 -37.0 -28.3199997 -35.1800003 0 0 0 1 12 2 0 0 0 12.4659605
1928 2 -31.2600002 -12.3299999 -12.0200005 0 0 0 4 4 4 2 0 0 12.0847979
1934 3 -26.8700008 -20.5 -21.8199997 0 0 2 2 7 3 1 1 0 12.2254591
1937 4 -34.2700005 -41.3600006 -24.4099999 0 0 1 3 6 4 1 0 0 11.9464646
1955 5 -20.3700009 -7.8010001 -8.6770001 0 0 0 3 8 3 0 0 0 12.5056467
1958 5 -28.4300003 -1.2690001 -11.0799999 0 0 0 0 12 0 0 0 0 11.2913599
1960 4 -26.6000004 -35.4000015 -15.9799996 0 0 0 3 8 3 0 0 0 12.2468109
1967 4 -13.54 -10.04 -30.4599991 0 0 0 0 12 3 0 0 0 12.7417784
1980 2 -10.7399998 -14.0299997 -39.3400002 0 0 0 2 8 2 0 0 0 11.5921345
1989 2 1.407 -19.9400006 -13.2100001 0 0 1 3 8 2 1 0 0 12.0618486
2006 4 -20.8400002 -40.4300003 -38.1500015 0 0 1 2 7 6 0 0 0 13.9494668
2013 4 -13.6700001 -13.8299999 -1.665 0 0 2 2 8 4 0 0 0 12.7533512
2014 4 -11.6599999 -42.6500016 -9.651 0 0 0 4 6 2 0 0 0 11.6051941
2021 5 -36.2999992 -20.3999996 -42.0200005 0 0 0 1 10 4 0 0 0 13.0664396
2030 5 1.6130001 -18.9400006 -15.7200003 0 0 2 3 8 2 0 0 0 12.6093769
2034 4 -27.9099998 -30.7099991 -39.25 0 0 0 3 6 1 2 0 0 11.93297
2038 4 -1.931 -2.0380001 -34.8499986 0 0 1 2 7 5 0 0 0 12.7392454
2055 1 -3.4960001 -17.1599999 -40.75 0 0 0 2 10 0 0 0 0 11.4126368
2062 4 -29.1100006 -33.6899987 -21.1900005 0 0 0 2 8 4 0 0 0 11.847705
2079 4 -5.8790002 -11.0699997 -30.2700005 0 0 0 4 6 3 0 0 0 11.6017475
2085 4 -14.3999996 -38.6800003 -28.1499996 0 0 0 2 8 6 0 0 0 13.1969252
2090 2 -3.444 -22.1000004 -5.6859999 0 0 0 0 12 0 0 0 0 11.2685757
2108 1 -23.2999992 -15.8500004 -0.1792 0 0 0 0 12 0 0 0 0 10.5407524
2110 1 -9.573 -18.9400006 -32.4000015 0 0 0 5 6 1 0 0 0 11.5096913
2113 1 -35.8100014 -3.964 -31.1800003 0 0 0 0 12 0 0 0 0 10.6576157
2118 5 -7.6040001 -14.6700001 -22.4200001 0 0 0 2 8 4 0 0 0 13.0819874
2133 1 -16.0100002 -42.3600006 -42.3800011 0 0 0 0 12 0 0 0 0 10.7324047
2149 4 -14.4499998 -28.6299992 -36.8199997 0 0 0 1 10 2 0 0 0 12.2027798
2161 2 -13.7399998 -33.5800019 -8.3990002 0 0 0 2 8 2 0 0 0 10.8554754
2177 4 -20.3099995 -0.1456 -25.1200008 0 0 0 1 10 2 0 0 0 11.7109795
2195 2 -22.7700005 -36.0400009 -15.1800003 0 0 1 2 7 4 0 0 0 11.2324238
2208 4 -38.1399994 -28.1800003 -39.2700005 0 0 0 0 12 2 0 0 0 12.8783836
2216 5 -15.5100003 -20.0 -29.7900009 0 0 0 2 8 3 0 0 0 12.0076532
2229 4 -29.1599999 -36.2400017 -25.6299992 0 0 0 2 8 4 0 0 0 12.1861029
2232 5 -38.1100006 -27.1599999 -10.2600002 0 0 0 0 12 2 0 0 0 12.2921019
2234 5 -31.0200005 -22.8700008 -33.1199989 0 0 0 1 10 3 0 0 0 12.0636787
2238 4 -26.7099991 -12.1000004 -14.2200003 0 0 0 0 12 0 0 0 0 11.0749817
2243 2 -15.5699997 -25.9500008 -15.7600003 0 0 0 0 12 0 0 0 0 11.0105305
2246 4 -27.4899998 -7.6350003 -4.829 0 0 0 2 10 2 0 0 0 13.0048447
2247 2 -17.7700005 -25.5400009 -19.2099991 0 0 0 2 8 3 0 0 0 11.3530665
2256 4 -15.5200005 -15.6000004 -41.7900009 0 0 0 0 12 4 0 0 0 13.6921091
2265 5 -5.2969999 -35.0800018 -17.1299992 0 0 1 2 7 4 0 0 0 12.1874666
2266 2 -9.8000002 -3.323 -25.0799999 0 0 1 3 5 2 2 0 0 12.0600748
2270 5 -22.2800007 -20.3899994 -35.3300018 0 0 0 2 8 4 0 0 0 12.467866
2272 4 -22.7299996 -23.5200005 -39.4799996 0 0 0 2 8 5 0 0 0 13.5603714
2277 5 -12.2700005 -27.5599995 -41.8499986 0 0 1 1 9 4 0 0 0 12.2198792
2282 4 -30.2900009 -37.2900009 -5.848 0 0 0 1 10 2 0 0 0 12.0823898
2283 4 -4.7220001 -14.8400002 -22.0699997 0 0 0 1 10 2 0 0 0 11.480875
2287 4 -26.8899994 -7.1810002 -15.6899996 0 0 1 2 8 3 1 0 0 12.9170008
2288 4 -17.9799996 -2.4519999 -22.4899998 0 0 0 1 10 3 0 0 0 12.6590529
2294 4 -27.6599999 -5.4180002 -37.8499986 0 0 0 0 12 2 0 0 0 11.7591849
2295 5 -21.8600006 -26.1100006 -39.3800011 0 0 0 1 10 3 0 0 0 12.419529
2298 4 -20.2999992 -21.7299996 -15.4200001 0 0 0 3 6 4 0 0 0 12.0193777
2309 4 -16.75 -10.8199997 -23.7800007 0 0 2 1 10 2 0 0 0 13.3452759
2313 4 -7.8839998 -35.4199982 -4.033 0 0 1 2 7 1 0 0 0 11.5018282
2315 2 -38.0800018 -38.8899994 -21.0699997 0 0 1 0 11 1 0 0 0 11.4256573
2322 1 -24.5699997 -14.5 -10.5100003 0 0 2 1 7 3 1 0 0 12.144454
2346 5 -12.2799997 -20.1499996 -38.2200012 0 0 0 3 8 2 0 0 0 11.248291
2347 4 -30.1499996 -2.0469999 -1.252 0 0 0 3 8 3 0 0 0 12.7399941
2355 4 0.8849 -20.9099998 -36.8400002 0 0 0 0 12 0 0 0 0 11.4638891
2365 2 -3.55 -8.4189997 -26.8500004 0 0 1 1 9 3 0 0 0 11.3907862
2388 4 -22.2399998 -30.0499992 -8.1049995 0 0 0 1 12 2 0 0 0 12.963027
2394 2 -21.0699997 -6.02 -6.856 0 0 0 3 8 2 0 0 0 12.0857554
2397 2 3.905 -0.3511 -34.9799996 0 0 0 2 8 2 0 0 0 12.2588072
2412 5 -32.6300011 -37.7000008 -9.3970003 0 0 0 1 12 1 0 0 0 12.7011528
2414 1 -15.9799996 -37.9799996 -7.8350001 0 0 0 0 12 0 0 0 0 11.282712
2423 5 -4.863 -17.3500004 -32.5099983 0 0 0 1 10 4 0 0 0 12.69728
2446 5 -11.0500002 -10.5299998 -19.1000004 0 0 0 1 10 2 0 0 0 11.802083
2457 1 -35.3300018 -40.7599983 -12.6599999 0 0 1 0 9 3 0 0 0 12.0713825
2464 4 -18.75 -35.0 -14.6099997 0 0 0 0 12 0 0 0 0 11.4098654
2469 5 -6.691 -5.711 -36.9700012 0 0 1 1 9 4 0 0 0 12.9689818
2479 4 -12.1899996 -3.333 -8.415 0 0 0 1 10 3 0 0 0 12.423914
2492 2 -5.1430001 -12.3999996 -28.4599991 0 0 0 1 10 2 0 0 0 11.8771524
2499 4 -10.4499998 -38.3100014 -0.1093 0 0 0 3 6 4 0 0 0 12.3508091
2506 2 -12.6800003 -37.0200005 -11.0799999 0 0 0 1 10 2 0 0 0 11.883896
2507 2 -27.7999993 -39.9700012 -33.0200005 0 0 0 1 10 3 0 0 0 12.3326941
2509 4 -18.1499996 -11.3299999 -41.4799996 0 0 1 4 3 4 2 0 0 12.589468
2515 4 -17.3400002 -0.2757 -10.1300001 0 0 0 1 10 4 0 0 0 11.9227248
2529 4 -35.5400009 -15.7100001 -37.5999985 0 0 0 1 10 2 0 0 0 11.7116804
2536 5 -18.9200002 -3.914 -26.4099999 0 0 0 1 10 2 0 0 0 11.8937446
2537 5 -0.5602 -11.1000004 -25.5799999 0 0 0 0 12 0 0 0 0 10.9817286
2542 2 -6.0009999 -19.3600006 -37.8499986 0 0 0 0 12 0 0 0 0 11.7401915
2545 2 -18.3999996 -20.9599992 -38.0200005 0 0 0 4 6 4 0 0 0 12.81602
2570 2 -21.2900009 -28.5300007 -38.3100014 0 0 0 1 10 2 0 0 0 12.3052416
2574 4 -29.1499996 -1.3480001 -26.3299999 0 0 0 3 8 5 0 0 0 12.7625942
2585 3 -31.6000004 -5.1919999 -3.4879999 0 0 0 2 8 4 0 0 0 12.1710196
2593 4 -18.8999996 -28.9899998 -39.0299988 0 0 0 0 12 4 0 0 0 13.6935435
2597 5 -38.6300011 -33.3600006 -21.4500008 0 0 0 3 6 3 0 0 0 10.4834948
2606 4 -9.467 -31.3999996 -7.875 0 0 0 3 6 5 0 0 0 12.2815247
2614 4 -28.4200001 -15.1899996 -3.0680001 0 0 0 4 6 4 0 0 0 12.7036705
2620 4 -4.691 -26.0599995 -5.941 0 0 0 1 10 2 0 0 0 12.3196411
2621 2 -0.9441 -2.842 -19.2000008 0 0 0 3 6 4 0 0 0 11.1975212
2634 2 -22.8899994 -32.2400017 -9.5690003 0 0 0 3 8 3 0 0 0 12.2329283
2635 2 -28.7900009 -19.7600003 -3.845 0 0 1 3 5 5 0 0 0 12.3207636
2646 5 -15.3999996 -29.7199993 -10.5 0 0 0 2 10 2 0 0 0 12.3762341
2649 4 -39.1599999 -40.7000008 -4.6160002 0 0 1 1 8 4 1 0 0 12.2883148
2659 2 -29.2700005 -23.1299992 -24.8999996 0 0 0 0 12 0 0 0 0 11.501071
2665 5 -20.9799996 -19.6700001 -41.5 0 0 0 3 8 4 0 0 0 14.0104828
2667 4 -35.5200005 -23.25 -12.2600002 0 0 0 5 5 1 3 0 0 12.1910858
2685 5 3.74 -6.8179999 -21.2700005 0 0 0 1 12 4 0 0 0 14.4600506
2690 4 -19.8099995 -2.306 -4.388 0 0 0 4 8 3 0 0 0 12.8189764
2691 2 1.429 -3.879 -2.4200001 0 0 0 0 12 0 0 0 0 11.231823
2694 4 -19.4899998 -33.0200005 -32.4399987 0 0 0 2 8 3 0 0 0 11.912159
2704 5 -6.6129999 -5.5819998 -39.4700012 0 0 0 3 6 4 0 0 0 12.1788998
2711 5 -7.5700002 -16.9899998 -16.6499996 0 0 0 4 4 6 0 0 0 13.4052477
2713 2 -27.6000004 -20.8700008 -41.9000016 0 0 0 1 10 2 0 0 0 11.8966866
2717 2 -24.1000004 -25.5200005 -39.9700012 0 0 1 1 7 5 0 0 0 12.2659149
2721 2 -2.445 -13.7100001 -32.3400002 0 0 1 0 9 3 0 0 0 11.7933092
2731 4 -35.5900002 -35.4799996 -18.3099995 0 0 0 1 10 3 0 0 0 13.3249331
2740 1 -2.435 -18.8199997 -1.981 0 0 1 2 7 4 0 0 0 12.0261498
2749 4 -11.9799996 -16.0400009 -38.7200012 0 0 0 3 6 6 0 0 0 12.3779869
2764 2 -25.6900006 -34.6399994 -1.829 0 0 0 0 12 0 0 0 0 11.1082964
2765 5 -3.0450001 -16.0799999 -5.4229999 0 0 0 4 4 6 0 0 0 12.2859306
2766 4 -24.6100006 -23.75 -26.75 0 0 1 2 7 3 0 0 0 11.7820978
2769 4 -20.1599999 -30.4799996 -15.1099997 0 0 0 1 10 3 0 0 0 12.1312466
2778 4 -16.7900009 -29.6200009 -17.6200009 0 0 0 0 12 2 0 0 0 12.3980532
2783 4 -11.4300003 -29.4899998 -21.75 0 0 0 2 10 0 0 0 0 11.0486555
2800 5 -30.8299999 -43.4500008 -8.4020004 0 0 0 4 6 3 0 0 0 10.7774935
2802 5 -29.8799992 -26.9799996 -13.5 0 0 0 4 5 5 1 0 0 12.1801729
2818 4 -31.5499993 -15.1999998 -17.8899994 0 0 0 3 6 5 0 0 0 12.3600502
2823 2 -20.6499996 -29.9799996 -17.6499996 0 0 0 2 8 2 0 0 0 11.415535
2825 5 -16.9099998 -9.3430004 -20.6599999 0 0 2 2 8 3 0 0 0 12.7383538
2832 4 -25.7099991 -1.379 -1.188 0 0 0 1 10 4 0 0 0 13.1208048
2834 5 -22.7000008 -32.0699997 -12.0699997 0 0 2 2 6 5 0 0 0 12.6907931
2836 4 -21.8799992 -14.0500002 -25.9799996 0 0 1 3 5 5 0 0 0 12.2351027
2839 5 -28.3899994 -16.7700005 -1.017 0 0 1 2 7 4 0 0 0 12.7509909
2861 4 -10.8199997 -33.1800003 -31.6399994 0 0 0 2 8 3 2 0 0 13.3280916
2863 5 -26.0300007 -35.2000008 -38.3600006 0 0 1 1 9 2 2 0 0 12.3501034
2878 2 -14.8599998 -17.8299999 -14.5500002 0 0 0 3 6 4 0 0 0 11.5398245
2884 2 -17.8600006 -32.6899987 -19.1599999 0 0 0 2 8 2 0 0 0 10.798997
2910 4 -25.2099991 -1.0190001 -23.7399998 0 0 0 2 8 4 0 0 0 12.6444998
2945 5 -5.5520001 -23.6499996 -17.6399994 0 0 0 1 10 5 0 0 0 12.5000601
2954 5 -21.2600002 -35.1399994 -38.7700005 0 0 0 0 12 2 0 0 0 12.7824154
2956 2 -19.4500008 -32.1300011 -28.3400002 0 0 0 0 12 0 0 0 0 11.516345
2962 4 1.629 -12.0299997 -40.0499992 0 0 1 1 9 2 2 0 0 12.959342
2963 4 -31.6599999 -7.0100002 -41.0400009 0 0 1 0 11 3 0 0 0 12.3654156
2964 2 -2.319 -26.6499996 -5.2220001 0 0 0 3 8 2 0 0 0 11.6603632
2973 4 -37.1699982 -18.7299996 -29.6399994 0 0 1 4 6 4 1 0 0 13.0695162
2979 4 -26.8400002 -32.6399994 -0.7658 0 0 0 0 12 3 0 0 0 12.6652556
2992 4 -34.5900002 -2.6819999 -37.2900009 0 0 0 2 8 5 0 0 0 12.6695433
2997 5 1.097 -18.3600006 -27.3999996 0 0 0 2 8 2 0 0 0 11.7327528
2998 2 -35.1199989 -38.1300011 -9.1339998 0 0 0 3 6 4 0 0 0 11.623581
3014 5 -14.4200001 -2.983 -30.2600002 0 0 0 0 12 2 0 0 0 13.1760664
3016 1 -7.5149999 -38.2299996 -38.0900002 0 0 0 0 12 0 0 0 0 10.8066702
3025 5 -13.8599998 -9.3940001 -36.6699982 0 0 0 0 12 2 0 0 0 12.1852341
3032 4 -38.2400017 -35.5999985 -18.1499996 0 0 0 2 8 4 0 0 0 12.6106196
3049 4 -31.0300007 -13.6700001 -36.8899994 0 0 0 2 8 5 0 0 0 12.7246075
3056 5 -13.5900002 -32.3699989 -12.8900004 0 0 0 4 4 6 0 0 0 11.6866131
3059 4 -26.5 -30.2099991 -15.2600002 0 0 0 2 8 6 0 0 0 13.7456398
3069 2 4.2350001 -2.556 -29.1499996 0 0 0 1 10 2 0 0 0 11.8882046
3072 4 -20.3099995 -13.5799999 -33.3600006 0 0 0 0 12 2 0 0 0 11.7595387
3076 2 -30.8899994 -10.6899996 -43.2799988 0 0 0 1 10 4 0 0 0 12.8835136
3078 1 -1.573 -37.6899987 -5.7259999 0 0 0 0 12 0 0 0 0 11.2373753
3093 2 -3.7479999 -13.8299999 -30.1200008 0 0 0 0 12 0 0 0 0 11.0669174
3095 4 -26.2199993 -17.0100002 -21.2600002 0 0 1 3 5 3 2 0 0 12.1338968
3096 2 -35.0 -31.75 -40.8400002 0 0 0 0 12 0 0 0 0 11.6906815
3099 5 -1.532 -25.9400006 -11.5100003 0 0 0 1 10 5 0 0 0 13.7264614
3100 2 -19.2800007 -43.2700005 -17.4699993 0 0 0 0 12 2 0 0 0 11.9454508
3104 1 -19.7999993 -9.8380003 -37.5400009 0 0 0 5 4 4 0 0 0 11.0412035
3117 2 -26.5699997 -3.2149999 -18.0499992 0 0 0 1 10 2 0 0 0 11.8010512
3134 5 -33.3100014 -17.2900009 -41.2799988 0 0 0 0 12 0 0 0 0 11.7100992
3135 4 0.3648 -23.3500004 -19.7099991 0 0 0 0 12 0 0 0 0 11.3750839
3138 5 -8.5710001 -9.1409998 -22.0599995 0 0 0 1 12 1 0 0 0 11.96484
3146 4 -13.5600004 -19.7999993 -14.3900004 0 0 0 4 4 6 0 0 0 12.1711073
3159 5 -33.9199982 -33.9599992 -22.1599999 0 0 1 0 9 3 0 0 0 11.9704676
3182 4 -7.2449999 -38.0200005 -29.4099999 0 0 0 4 6 5 0 0 0 12.9897882
3188 5 -14.2299996 -22.2000008 -21.1299992 0 0 1 3 4 3 1 0 0 12.2109251
3193 5 -33.2099991 -35.6699982 -3.638 0 0 0 1 10 2 0 0 0 10.9568624
3200 2 -11.5799999 -2.5910001 -29.4599991 0 0 0 0 12 0 0 0 0 11.1911478
3201 4 -13.7600003 -29.2000008 -26.2700005 0 0 0 1 10 2 0 0 0 12.3388748
3202 5 -23.8799992 -36.0600014 -12.2100001 0 0 1 2 7 5 0 0 0 11.650836
3218 2 -28.0699997 -3.3280001 -9.9169998 0 0 0 4 6 2 0 0 0 11.6784792
3219 5 -3.744 -36.7999993 -38.3499985 0 0 1 4 6 1 1 1 0 13.0038738
3224 4 -16.2399998 -30.9400006 -1.082 0 0 0 5 6 3 0 0 0 12.2246752