ITEM: TIMESTEP
0
ITEM: NUMBER OF ATOMS
16384
ITEM: BOX BOUNDS pp pp pp
0.0000000000000000e+00 3.9372545777164000e+01
0.0000000000000000e+00 3.9372545777164000e+01
0.0000000000000000e+00 3.9372545777164000e+01
ITEM: ATOMS id type x y z
1 4 0 0 0
2 4 1.24016 1.24016 0
5 4 2.48031 1.24016 1.24016
32 4 1.24016 2.48031 1.24016
8193 2 0 0 0
8194 2 1.24016 1.24016 0
8195 2 1.24016 0 1.24016
8196 2 0 1.24016 1.24016
8226 2 0 2.48031 0
8730 2 1.24016 1.24016 2.48031
8760 2 2.48031 2.48031 2.48031
3 4 3.72047 1.24016 0
4 4 3.72047 0 1.24016
6 4 6.20079 0 1.24016
7 4 4.96063 1.24016 1.24016
34 4 3.72047 2.48031 1.24016
36 4 4.96063 2.48031 0
38 4 6.20079 2.48031 1.24016
558 4 4.96063 2.48031 2.48031
8197 2 3.72047 0 1.24016
8198 2 4.96063 0 0
8199 2 6.20079 1.24016 0
8228 2 3.72047 2.48031 1.24016
8229 2 4.96063 2.48031 0
8732 2 3.72047 1.24016 2.48031
8735 2 4.96063 0 2.48031
8 4 8.6811 1.24016 0
9 4 8.6811 0 1.24016
10 4 7.44094 1.24016 1.24016
41 4 8.6811 2.48031 1.24016
525 4 8.6811 1.24016 2.48031
561 4 7.44094 2.48031 2.48031
8200 2 8.6811 1.24016 0
11 4 9.92126 0 0
12 4 9.92126 1.24016 1.24016
43 4 9.92126 2.48031 0
528 4 9.92126 0 2.48031
565 4 12.4016 2.48031 2.48031
8201 2 11.1614 0 1.24016
8203 2 12.4016 1.24016 1.24016
8231 2 9.92126 2.48031 0
8232 2 11.1614 2.48031 1.24016
8740 2 9.92126 0 2.48031
13 4 14.8819 0 0
46 4 13.6417 2.48031 1.24016
48 4 14.8819 2.48031 0
50 4 16.122 2.48031 1.24016
532 4 16.122 1.24016 2.48031
568 4 14.8819 2.48031 2.48031
8202 2 13.6417 0 1.24016
8204 2 14.8819 0 0
8205 2 16.122 1.24016 0
8206 2 14.8819 1.24016 1.24016
8235 2 16.122 2.48031 1.24016
8743 2 14.8819 0 2.48031
8744 2 16.122 1.24016 2.48031
8770 2 14.8819 2.48031 2.48031
14 4 17.3622 0 0
15 4 18.6024 0 1.24016
16 4 17.3622 1.24016 1.24016
534 4 17.3622 0 2.48031
8207 2 17.3622 0 0
8208 2 18.6024 0 1.24016
8236 2 17.3622 2.48031 0
8746 2 17.3622 0 2.48031
8773 2 17.3622 2.48031 2.48031
17 4 19.8425 0 0
18 4 21.0827 1.24016 0
19 4 21.0827 0 1.24016
53 4 19.8425 2.48031 0
55 4 21.0827 2.48031 1.24016
57 4 22.3228 2.48031 0
536 4 19.8425 0 2.48031
537 4 21.0827 1.24016 2.48031
571 4 19.8425 2.48031 2.48031
575 4 22.3228 2.48031 2.48031
8209 2 21.0827 1.24016 0
8212 2 22.3228 1.24016 1.24016
8238 2 19.8425 2.48031 0
8748 2 19.8425 0 2.48031
8778 2 22.3228 2.48031 2.48031
20 4 23.563 1.24016 0
21 4 23.563 0 1.24016
22 4 26.0433 1.24016 0
60 4 26.0433 2.48031 1.24016
540 4 24.8031 0 2.48031
8210 2 23.563 1.24016 0
8211 2 23.563 0 1.24016
8213 2 24.8031 0 0
8214 2 26.0433 0 1.24016
8215 2 24.8031 1.24016 1.24016
8240 2 23.563 2.48031 1.24016
8242 2 26.0433 2.48031 1.24016
8750 2 23.563 1.24016 2.48031
23 4 27.2835 0 0
24 4 28.5236 1.24016 0
62 4 28.5236 2.48031 1.24016
541 4 27.2835 0 2.48031
542 4 28.5236 1.24016 2.48031
8216 2 28.5236 1.24016 0
8217 2 27.2835 1.24016 1.24016
8243 2 27.2835 2.48031 0
8754 2 28.5236 1.24016 2.48031
25 4 31.0039 1.24016 0
63 4 29.7638 2.48031 0
65 4 31.0039 2.48031 1.24016
543 4 31.0039 1.24016 2.48031
546 4 32.2441 0 2.48031
583 4 32.2441 2.48031 2.48031
8218 2 29.7638 0 0
8219 2 31.0039 1.24016 0
8220 2 29.7638 1.24016 1.24016
8221 2 32.2441 0 0
8223 2 32.2441 1.24016 1.24016
8245 2 29.7638 2.48031 0
8246 2 31.0039 2.48031 1.24016
8247 2 32.2441 2.48031 0
8757 2 32.2441 0 2.48031
8783 2 29.7638 2.48031 2.48031
26 4 33.4843 1.24016 0
27 4 34.7244 0 0
28 4 35.9646 0 1.24016
29 4 34.7244 1.24016 1.24016
67 4 33.4843 2.48031 1.24016
68 4 34.7244 2.48031 0
547 4 33.4843 1.24016 2.48031
8222 2 33.4843 0 1.24016
8224 2 35.9646 0 1.24016
8249 2 33.4843 2.48031 1.24016
8251 2 34.7244 2.48031 0
8787 2 34.7244 2.48031 2.48031
30 4 37.2047 0 0
31 4 38.4449 1.24016 0
70 4 37.2047 2.48031 0
551 4 37.2047 0 2.48031
8225 2 37.2047 0 0
8252 2 37.2047 2.48031 0
8254 2 38.4449 2.48031 1.24016
8759 2 38.4449 1.24016 2.48031
33 4 0 3.72047 1.24016
35 4 2.48031 3.72047 1.24016
73 4 1.24016 4.96063 1.24016
75 4 2.48031 6.20079 1.24016
553 4 1.24016 3.72047 2.48031
587 4 0 4.96063 2.48031
588 4 1.24016 6.20079 2.48031
8227 2 1.24016 3.72047 0
8256 2 1.24016 4.96063 1.24016
8257 2 0 6.20079 1.24016
8258 2 2.48031 4.96063 0
8790 2 0 4.96063 2.48031
8793 2 2.48031 4.96063 2.48031
37 4 6.20079 3.72047 0
39 4 4.96063 3.72047 1.24016
74 4 3.72047 4.96063 1.24016
555 4 3.72047 3.72047 2.48031
590 4 3.72047 6.20079 2.48031
8230 2 6.20079 3.72047 0
8259 2 3.72047 6.20079 0
8260 2 4.96063 4.96063 0
8261 2 6.20079 4.96063 1.24016
8262 2 4.96063 6.20079 1.24016
8761 2 3.72047 3.72047 2.48031
8762 2 6.20079 3.72047 2.48031
8794 2 3.72047 6.20079 2.48031
40 4 8.6811 3.72047 0
42 4 7.44094 3.72047 1.24016
76 4 7.44094 4.96063 0
77 4 8.6811 4.96063 1.24016
562 4 8.6811 3.72047 2.48031
8263 2 7.44094 4.96063 0
8264 2 7.44094 6.20079 1.24016
8798 2 8.6811 6.20079 2.48031
44 4 11.1614 3.72047 0
45 4 9.92126 3.72047 1.24016
47 4 12.4016 3.72047 1.24016
78 4 11.1614 4.96063 1.24016
563 4 11.1614 3.72047 2.48031
592 4 9.92126 4.96063 2.48031
594 4 12.4016 4.96063 2.48031
8265 2 9.92126 4.96063 0
8266 2 11.1614 6.20079 0
8267 2 11.1614 4.96063 1.24016
8268 2 12.4016 4.96063 0
8765 2 11.1614 3.72047 2.48031
49 4 16.122 3.72047 0
51 4 14.8819 3.72047 1.24016
79 4 13.6417 6.20079 0
80 4 13.6417 4.96063 1.24016
81 4 14.8819 4.96063 0
82 4 16.122 4.96063 1.24016
566 4 13.6417 3.72047 2.48031
569 4 16.122 3.72047 2.48031
595 4 13.6417 6.20079 2.48031
596 4 14.8819 4.96063 2.48031
8233 2 13.6417 3.72047 0
8234 2 16.122 3.72047 0
8269 2 13.6417 6.20079 0
8270 2 13.6417 4.96063 1.24016
8271 2 16.122 6.20079 0
8272 2 14.8819 6.20079 1.24016
8768 2 13.6417 3.72047 2.48031
8771 2 16.122 3.72047 2.48031
8801 2 13.6417 6.20079 2.48031
52 4 17.3622 3.72047 1.24016
83 4 17.3622 6.20079 1.24016
598 4 17.3622 4.96063 2.48031
599 4 18.6024 6.20079 2.48031
8237 2 17.3622 3.72047 1.24016
8273 2 17.3622 6.20079 1.24016
8804 2 17.3622 4.96063 2.48031
54 4 21.0827 3.72047 0
56 4 19.8425 3.72047 1.24016
59 4 22.3228 3.72047 1.24016
84 4 21.0827 4.96063 1.24016
86 4 22.3228 6.20079 1.24016
572 4 21.0827 3.72047 2.48031
601 4 21.0827 6.20079 2.48031
603 4 22.3228 4.96063 2.48031
8239 2 21.0827 3.72047 0
8241 2 22.3228 3.72047 1.24016
8274 2 19.8425 4.96063 0
8275 2 21.0827 6.20079 0
8276 2 19.8425 6.20079 1.24016
8277 2 22.3228 4.96063 0
8280 2 22.3228 6.20079 1.24016
8776 2 21.0827 3.72047 2.48031
8805 2 21.0827 6.20079 2.48031
58 4 23.563 3.72047 0
61 4 24.8031 3.72047 1.24016
85 4 23.563 6.20079 0
87 4 26.0433 4.96063 1.24016
88 4 24.8031 6.20079 1.24016
576 4 23.563 3.72047 2.48031
8278 2 23.563 6.20079 0
8279 2 23.563 4.96063 1.24016
8281 2 24.8031 4.96063 0
8282 2 26.0433 6.20079 0
8283 2 26.0433 4.96063 1.24016
8809 2 26.0433 6.20079 2.48031
89 4 28.5236 4.96063 1.24016
90 4 27.2835 6.20079 1.24016
579 4 28.5236 3.72047 2.48031
604 4 27.2835 4.96063 2.48031
8244 2 28.5236 3.72047 0
8284 2 28.5236 6.20079 0
8812 2 27.2835 4.96063 2.48031
8813 2 28.5236 6.20079 2.48031
64 4 31.0039 3.72047 0
91 4 31.0039 6.20079 0
92 4 29.7638 6.20079 1.24016
93 4 32.2441 6.20079 1.24016
582 4 31.0039 3.72047 2.48031
8250 2 32.2441 3.72047 1.24016
8285 2 29.7638 4.96063 0
8288 2 32.2441 6.20079 1.24016
8784 2 31.0039 3.72047 2.48031
8816 2 29.7638 4.96063 2.48031
8817 2 31.0039 6.20079 2.48031
66 4 33.4843 3.72047 0
69 4 35.9646 3.72047 0
94 4 34.7244 4.96063 0
584 4 33.4843 3.72047 2.48031
8248 2 33.4843 3.72047 0
8286 2 33.4843 6.20079 0
8287 2 33.4843 4.96063 1.24016
8289 2 34.7244 4.96063 0
8290 2 35.9646 6.20079 0
8291 2 34.7244 6.20079 1.24016
71 4 38.4449 3.72047 0
72 4 37.2047 3.72047 1.24016
95 4 37.2047 4.96063 0
96 4 38.4449 6.20079 0
97 4 37.2047 6.20079 1.24016
586 4 38.4449 3.72047 2.48031
609 4 37.2047 4.96063 2.48031
610 4 38.4449 6.20079 2.48031
8253 2 38.4449 3.72047 0
8255 2 37.2047 3.72047 1.24016
8292 2 37.2047 4.96063 0
8293 2 38.4449 6.20079 0
8294 2 37.2047 6.20079 1.24016
8789 2 38.4449 3.72047 2.48031
8822 2 38.4449 6.20079 2.48031
98 4 1.24016 8.6811 0
99 4 1.24016 7.44094 1.24016
100 4 0 8.6811 1.24016
101 4 2.48031 7.44094 0
8295 2 0 7.44094 0
8296 2 2.48031 7.44094 0
8824 2 0 7.44094 2.48031
8825 2 1.24016 8.6811 2.48031
8826 2 2.48031 7.44094 2.48031
102 4 3.72047 8.6811 0
103 4 3.72047 7.44094 1.24016
104 4 4.96063 7.44094 0
105 4 6.20079 7.44094 1.24016
612 4 3.72047 8.6811 2.48031
613 4 4.96063 7.44094 2.48031
614 4 6.20079 8.6811 2.48031
8297 2 3.72047 8.6811 0
8298 2 3.72047 7.44094 1.24016
8299 2 4.96063 7.44094 0
8300 2 6.20079 8.6811 0
8827 2 4.96063 7.44094 2.48031
8828 2 6.20079 8.6811 2.48031
106 4 8.6811 8.6811 0
107 4 8.6811 7.44094 1.24016
616 4 8.6811 8.6811 2.48031
8301 2 7.44094 7.44094 0
8302 2 8.6811 8.6811 0
8303 2 7.44094 8.6811 1.24016
8829 2 8.6811 8.6811 2.48031
108 4 12.4016 7.44094 0
618 4 12.4016 7.44094 2.48031
8304 2 11.1614 8.6811 0
8305 2 11.1614 7.44094 1.24016
8831 2 9.92126 7.44094 2.48031
109 4 13.6417 8.6811 0
110 4 13.6417 7.44094 1.24016
111 4 14.8819 7.44094 0
112 4 16.122 7.44094 1.24016
113 4 14.8819 8.6811 1.24016
620 4 16.122 8.6811 2.48031
8306 2 13.6417 8.6811 0
8307 2 16.122 8.6811 0
8308 2 14.8819 8.6811 1.24016
8833 2 16.122 8.6811 2.48031
114 4 17.3622 7.44094 0
115 4 18.6024 8.6811 0
116 4 18.6024 7.44094 1.24016
117 4 17.3622 8.6811 1.24016
621 4 18.6024 8.6811 2.48031
8309 2 17.3622 7.44094 0
8310 2 18.6024 7.44094 1.24016
8311 2 17.3622 8.6811 1.24016
8834 2 18.6024 8.6811 2.48031
118 4 19.8425 8.6811 1.24016
119 4 22.3228 7.44094 0
122 4 22.3228 8.6811 1.24016
623 4 19.8425 7.44094 2.48031
624 4 21.0827 8.6811 2.48031
626 4 22.3228 7.44094 2.48031
8312 2 19.8425 7.44094 0
8313 2 21.0827 8.6811 0
8314 2 22.3228 7.44094 0
8835 2 19.8425 7.44094 2.48031
8836 2 21.0827 8.6811 2.48031
120 4 23.563 8.6811 0
121 4 23.563 7.44094 1.24016
123 4 24.8031 7.44094 0
124 4 26.0433 7.44094 1.24016
628 4 24.8031 7.44094 2.48031
629 4 26.0433 8.6811 2.48031
8315 2 23.563 7.44094 1.24016
8316 2 24.8031 7.44094 0
8838 2 23.563 8.6811 2.48031
8839 2 24.8031 7.44094 2.48031
8840 2 26.0433 8.6811 2.48031
8317 2 27.2835 7.44094 0
8318 2 27.2835 8.6811 1.24016
8843 2 28.5236 8.6811 2.48031
125 4 31.0039 8.6811 0
126 4 31.0039 7.44094 1.24016
127 4 29.7638 8.6811 1.24016
128 4 32.2441 7.44094 0
633 4 29.7638 7.44094 2.48031
8320 2 32.2441 8.6811 1.24016
129 4 33.4843 7.44094 1.24016
130 4 34.7244 7.44094 0
635 4 35.9646 8.6811 2.48031
8319 2 33.4843 7.44094 1.24016
8321 2 34.7244 7.44094 0
8322 2 34.7244 8.6811 1.24016
8847 2 34.7244 7.44094 2.48031
8848 2 35.9646 8.6811 2.48031
131 4 38.4449 8.6811 0
637 4 37.2047 7.44094 2.48031
8323 2 37.2047 7.44094 0
8324 2 38.4449 8.6811 0
8325 2 37.2047 8.6811 1.24016
8851 2 38.4449 8.6811 2.48031
132 4 1.24016 11.1614 0
160 4 0 12.4016 0
162 4 1.24016 12.4016 1.24016
164 4 2.48031 12.4016 0
640 4 1.24016 11.1614 2.48031
672 4 0 12.4016 2.48031
675 4 2.48031 12.4016 2.48031
8326 2 1.24016 11.1614 0
8327 2 1.24016 9.92126 1.24016
8328 2 0 11.1614 1.24016
8329 2 2.48031 9.92126 0
8332 2 2.48031 11.1614 1.24016
8366 2 0 12.4016 0
8368 2 1.24016 12.4016 1.24016
8370 2 2.48031 12.4016 0
8852 2 0 9.92126 2.48031
8853 2 1.24016 11.1614 2.48031
8856 2 2.48031 9.92126 2.48031
8880 2 0 12.4016 2.48031
8883 2 2.48031 12.4016 2.48031
133 4 3.72047 11.1614 0
134 4 6.20079 9.92126 1.24016
165 4 3.72047 12.4016 1.24016
167 4 6.20079 12.4016 1.24016
679 4 4.96063 12.4016 2.48031
8330 2 3.72047 11.1614 0
8331 2 3.72047 9.92126 1.24016
8333 2 4.96063 9.92126 0
8334 2 6.20079 11.1614 0
8335 2 4.96063 11.1614 1.24016
8372 2 3.72047 12.4016 1.24016
8374 2 4.96063 12.4016 0
8857 2 3.72047 11.1614 2.48031
8860 2 6.20079 11.1614 2.48031
8886 2 4.96063 12.4016 2.48031
135 4 7.44094 11.1614 1.24016
169 4 8.6811 12.4016 1.24016
682 4 7.44094 12.4016 2.48031
8336 2 8.6811 11.1614 0
8377 2 8.6811 12.4016 1.24016
136 4 9.92126 11.1614 1.24016
137 4 12.4016 9.92126 0
171 4 9.92126 12.4016 0
173 4 11.1614 12.4016 1.24016
175 4 12.4016 12.4016 0
685 4 9.92126 12.4016 2.48031
688 4 12.4016 12.4016 2.48031
8337 2 11.1614 11.1614 0
8338 2 11.1614 9.92126 1.24016
8339 2 9.92126 11.1614 1.24016
8340 2 12.4016 9.92126 0
8342 2 12.4016 11.1614 1.24016
8378 2 9.92126 12.4016 0
8380 2 11.1614 12.4016 1.24016
8863 2 11.1614 11.1614 2.48031
8864 2 12.4016 9.92126 2.48031
8890 2 9.92126 12.4016 2.48031
138 4 13.6417 11.1614 0
139 4 14.8819 9.92126 0
140 4 16.122 11.1614 0
177 4 14.8819 12.4016 0
8341 2 13.6417 9.92126 1.24016
8343 2 16.122 11.1614 0
8344 2 16.122 9.92126 1.24016
8345 2 14.8819 11.1614 1.24016
8383 2 13.6417 12.4016 1.24016
8385 2 16.122 12.4016 1.24016
8866 2 14.8819 9.92126 2.48031
8867 2 16.122 11.1614 2.48031
8894 2 14.8819 12.4016 2.48031
141 4 18.6024 11.1614 0
142 4 17.3622 11.1614 1.24016
652 4 18.6024 11.1614 2.48031
8346 2 17.3622 11.1614 1.24016
8386 2 17.3622 12.4016 0
8868 2 17.3622 9.92126 2.48031
8869 2 18.6024 11.1614 2.48031
8897 2 17.3622 12.4016 2.48031
143 4 21.0827 9.92126 1.24016
144 4 19.8425 11.1614 1.24016
147 4 22.3228 11.1614 1.24016
180 4 22.3228 12.4016 0
654 4 19.8425 9.92126 2.48031
655 4 21.0827 11.1614 2.48031
657 4 22.3228 9.92126 2.48031
8347 2 21.0827 11.1614 0
8348 2 19.8425 11.1614 1.24016
8350 2 22.3228 11.1614 1.24016
8870 2 21.0827 11.1614 2.48031
145 4 23.563 11.1614 0
146 4 23.563 9.92126 1.24016
148 4 24.8031 9.92126 0
149 4 26.0433 11.1614 0
150 4 24.8031 11.1614 1.24016
183 4 24.8031 12.4016 0
658 4 23.563 11.1614 2.48031
659 4 26.0433 11.1614 2.48031
8349 2 23.563 9.92126 1.24016
8351 2 26.0433 11.1614 0
8352 2 24.8031 11.1614 1.24016
8390 2 23.563 12.4016 1.24016
8391 2 24.8031 12.4016 0
8393 2 26.0433 12.4016 1.24016
8871 2 23.563 11.1614 2.48031
8874 2 26.0433 11.1614 2.48031
8902 2 24.8031 12.4016 2.48031
151 4 28.5236 11.1614 0
184 4 27.2835 12.4016 0
660 4 27.2835 9.92126 2.48031
661 4 28.5236 11.1614 2.48031
698 4 27.2835 12.4016 2.48031
8353 2 27.2835 9.92126 0
8354 2 28.5236 9.92126 1.24016
8355 2 27.2835 11.1614 1.24016
152 4 29.7638 9.92126 0
153 4 31.0039 11.1614 0
154 4 29.7638 11.1614 1.24016
155 4 32.2441 9.92126 0
157 4 32.2441 11.1614 1.24016
186 4 31.0039 12.4016 1.24016
662 4 29.7638 9.92126 2.48031
663 4 31.0039 11.1614 2.48031
664 4 32.2441 9.92126 2.48031
701 4 29.7638 12.4016 2.48031
702 4 32.2441 12.4016 2.48031
8356 2 29.7638 9.92126 0
8357 2 31.0039 9.92126 1.24016
8358 2 29.7638 11.1614 1.24016
8360 2 32.2441 11.1614 1.24016
8395 2 29.7638 12.4016 0
8396 2 31.0039 12.4016 1.24016
8398 2 32.2441 12.4016 0
8878 2 32.2441 9.92126 2.48031
8906 2 29.7638 12.4016 2.48031
8909 2 32.2441 12.4016 2.48031
156 4 33.4843 9.92126 1.24016
158 4 34.7244 9.92126 0
188 4 33.4843 12.4016 1.24016
667 4 34.7244 9.92126 2.48031
668 4 35.9646 11.1614 2.48031
705 4 34.7244 12.4016 2.48031
8359 2 33.4843 9.92126 1.24016
8361 2 35.9646 11.1614 0
8399 2 33.4843 12.4016 1.24016
8401 2 34.7244 12.4016 0
159 4 37.2047 11.1614 1.24016
192 4 38.4449 12.4016 1.24016
709 4 37.2047 12.4016 2.48031
8362 2 37.2047 9.92126 0
8363 2 38.4449 11.1614 0
8364 2 38.4449 9.92126 1.24016
8365 2 37.2047 11.1614 1.24016
8916 2 37.2047 12.4016 2.48031
161 4 1.24016 13.6417 0
163 4 0 13.6417 1.24016
193 4 1.24016 16.122 0
194 4 1.24016 14.8819 1.24016
195 4 0 16.122 1.24016
196 4 2.48031 14.8819 0
711 4 0 14.8819 2.48031
712 4 1.24016 16.122 2.48031
713 4 2.48031 14.8819 2.48031
8367 2 1.24016 13.6417 0
8369 2 0 13.6417 1.24016
8373 2 2.48031 13.6417 1.24016
8404 2 2.48031 14.8819 0
8405 2 2.48031 16.122 1.24016
8918 2 0 14.8819 2.48031
8919 2 1.24016 16.122 2.48031
8920 2 2.48031 14.8819 2.48031
166 4 6.20079 13.6417 0
168 4 4.96063 13.6417 1.24016
197 4 3.72047 16.122 0
198 4 4.96063 14.8819 0
199 4 6.20079 16.122 0
200 4 6.20079 14.8819 1.24016
201 4 4.96063 16.122 1.24016
676 4 3.72047 13.6417 2.48031
680 4 6.20079 13.6417 2.48031
715 4 6.20079 16.122 2.48031
8371 2 3.72047 13.6417 0
8375 2 6.20079 13.6417 0
8406 2 4.96063 14.8819 0
8407 2 6.20079 16.122 0
8884 2 3.72047 13.6417 2.48031
8887 2 6.20079 13.6417 2.48031
8921 2 3.72047 16.122 2.48031
8923 2 4.96063 14.8819 2.48031
8924 2 6.20079 16.122 2.48031
170 4 7.44094 13.6417 1.24016
202 4 7.44094 14.8819 0
203 4 8.6811 16.122 0
204 4 8.6811 14.8819 1.24016
683 4 8.6811 13.6417 2.48031
718 4 7.44094 14.8819 2.48031
719 4 8.6811 16.122 2.48031
8376 2 8.6811 13.6417 0
8408 2 7.44094 14.8819 0
8409 2 7.44094 16.122 1.24016
8888 2 8.6811 13.6417 2.48031
8926 2 7.44094 14.8819 2.48031
8927 2 8.6811 16.122 2.48031
172 4 11.1614 13.6417 0
174 4 9.92126 13.6417 1.24016
176 4 12.4016 13.6417 1.24016
205 4 11.1614 16.122 0
206 4 11.1614 14.8819 1.24016
208 4 12.4016 16.122 1.24016
686 4 11.1614 13.6417 2.48031
721 4 9.92126 14.8819 2.48031
8379 2 11.1614 13.6417 0
8381 2 9.92126 13.6417 1.24016
8410 2 9.92126 14.8819 0
8411 2 11.1614 16.122 0
8412 2 9.92126 16.122 1.24016
8413 2 12.4016 14.8819 0
8891 2 11.1614 13.6417 2.48031
8928 2 9.92126 14.8819 2.48031
178 4 16.122 13.6417 0
207 4 13.6417 16.122 0
209 4 14.8819 14.8819 0
210 4 16.122 16.122 0
689 4 13.6417 13.6417 2.48031
691 4 16.122 13.6417 2.48031
723 4 13.6417 16.122 2.48031
8382 2 13.6417 13.6417 0
8384 2 16.122 13.6417 0
8414 2 13.6417 14.8819 1.24016
8415 2 16.122 16.122 0
8416 2 16.122 14.8819 1.24016
8892 2 13.6417 13.6417 2.48031
8895 2 16.122 13.6417 2.48031
8930 2 13.6417 16.122 2.48031
179 4 18.6024 13.6417 0
211 4 18.6024 16.122 0
727 4 18.6024 16.122 2.48031
8387 2 18.6024 13.6417 0
8417 2 17.3622 14.8819 0
8418 2 18.6024 14.8819 1.24016
8933 2 17.3622 14.8819 2.48031
8934 2 18.6024 16.122 2.48031
182 4 22.3228 13.6417 1.24016
212 4 19.8425 14.8819 0
213 4 21.0827 16.122 0
214 4 21.0827 14.8819 1.24016
215 4 19.8425 16.122 1.24016
728 4 19.8425 14.8819 2.48031
729 4 21.0827 16.122 2.48031
731 4 22.3228 14.8819 2.48031
8388 2 19.8425 13.6417 1.24016
8419 2 19.8425 14.8819 0
8420 2 21.0827 14.8819 1.24016
8421 2 22.3228 14.8819 0
8898 2 21.0827 13.6417 2.48031
8936 2 21.0827 16.122 2.48031
8937 2 22.3228 14.8819 2.48031
181 4 23.563 13.6417 0
216 4 23.563 16.122 0
217 4 23.563 14.8819 1.24016
218 4 24.8031 14.8819 0
219 4 26.0433 14.8819 1.24016
734 4 24.8031 14.8819 2.48031
735 4 26.0433 16.122 2.48031
8389 2 23.563 13.6417 0
8392 2 26.0433 13.6417 0
8422 2 23.563 16.122 0
8423 2 23.563 14.8819 1.24016
8424 2 24.8031 14.8819 0
8425 2 26.0433 16.122 0
8899 2 23.563 13.6417 2.48031
8903 2 26.0433 13.6417 2.48031
8938 2 23.563 16.122 2.48031
8941 2 26.0433 16.122 2.48031
185 4 27.2835 13.6417 1.24016
220 4 27.2835 14.8819 0
221 4 28.5236 16.122 0
699 4 28.5236 13.6417 2.48031
736 4 28.5236 16.122 2.48031
8394 2 27.2835 13.6417 1.24016
8426 2 28.5236 16.122 0
8427 2 27.2835 16.122 1.24016
8943 2 27.2835 14.8819 2.48031
189 4 32.2441 13.6417 1.24016
222 4 31.0039 16.122 0
223 4 31.0039 14.8819 1.24016
224 4 32.2441 14.8819 0
225 4 32.2441 16.122 1.24016
739 4 29.7638 14.8819 2.48031
740 4 31.0039 16.122 2.48031
8397 2 29.7638 13.6417 1.24016
8400 2 32.2441 13.6417 1.24016
8428 2 29.7638 16.122 1.24016
8907 2 31.0039 13.6417 2.48031
8944 2 31.0039 16.122 2.48031
8947 2 32.2441 14.8819 2.48031
187 4 33.4843 13.6417 0
190 4 35.9646 13.6417 0
226 4 34.7244 14.8819 0
227 4 35.9646 16.122 0
228 4 34.7244 16.122 1.24016
703 4 33.4843 13.6417 2.48031
706 4 35.9646 13.6417 2.48031
743 4 35.9646 16.122 2.48031
8402 2 35.9646 13.6417 0
8429 2 33.4843 14.8819 1.24016
8430 2 35.9646 16.122 0
8910 2 33.4843 13.6417 2.48031
8913 2 35.9646 13.6417 2.48031
8949 2 34.7244 14.8819 2.48031
191 4 38.4449 13.6417 0
229 4 38.4449 16.122 0
710 4 38.4449 13.6417 2.48031
745 4 38.4449 16.122 2.48031
8403 2 38.4449 13.6417 0
230 4 0 17.3622 0
231 4 1.24016 18.6024 0
232 4 1.24016 17.3622 1.24016
233 4 0 18.6024 1.24016
236 4 2.48031 18.6024 1.24016
747 4 0 17.3622 2.48031
748 4 1.24016 18.6024 2.48031
750 4 2.48031 17.3622 2.48031
8431 2 0 17.3622 0
8432 2 1.24016 18.6024 0
8433 2 1.24016 17.3622 1.24016
8434 2 0 18.6024 1.24016
8952 2 0 17.3622 2.48031
8953 2 1.24016 18.6024 2.48031
234 4 3.72047 18.6024 0
235 4 3.72047 17.3622 1.24016
237 4 6.20079 17.3622 1.24016
238 4 4.96063 18.6024 1.24016
752 4 6.20079 18.6024 2.48031
8435 2 3.72047 18.6024 0
8436 2 3.72047 17.3622 1.24016
8437 2 4.96063 17.3622 0
8438 2 6.20079 18.6024 0
8439 2 6.20079 17.3622 1.24016
8440 2 4.96063 18.6024 1.24016
8954 2 3.72047 18.6024 2.48031
8956 2 4.96063 17.3622 2.48031
239 4 7.44094 17.3622 0
240 4 8.6811 17.3622 1.24016
241 4 7.44094 18.6024 1.24016
753 4 8.6811 18.6024 2.48031
8958 2 8.6811 18.6024 2.48031
242 4 11.1614 18.6024 0
243 4 11.1614 17.3622 1.24016
244 4 9.92126 18.6024 1.24016
755 4 9.92126 17.3622 2.48031
756 4 11.1614 18.6024 2.48031
8441 2 11.1614 17.3622 1.24016
8962 2 12.4016 17.3622 2.48031
245 4 14.8819 17.3622 0
246 4 16.122 17.3622 1.24016
759 4 14.8819 17.3622 2.48031
8442 2 13.6417 18.6024 0
8443 2 13.6417 17.3622 1.24016
8444 2 16.122 18.6024 0
8445 2 16.122 17.3622 1.24016
8963 2 13.6417 18.6024 2.48031
247 4 18.6024 18.6024 0
248 4 18.6024 17.3622 1.24016
249 4 17.3622 18.6024 1.24016
8446 2 17.3622 17.3622 0
8965 2 17.3622 17.3622 2.48031
250 4 19.8425 18.6024 1.24016
251 4 22.3228 17.3622 0
765 4 22.3228 17.3622 2.48031
8447 2 19.8425 17.3622 0
8448 2 21.0827 18.6024 0
8449 2 22.3228 17.3622 0
8966 2 19.8425 17.3622 2.48031
8968 2 22.3228 17.3622 2.48031
252 4 24.8031 17.3622 0
253 4 26.0433 17.3622 1.24016
767 4 26.0433 18.6024 2.48031
8450 2 23.563 17.3622 1.24016
8451 2 24.8031 17.3622 0
8452 2 26.0433 18.6024 0
8453 2 26.0433 17.3622 1.24016
8969 2 23.563 18.6024 2.48031
8971 2 26.0433 18.6024 2.48031
254 4 28.5236 18.6024 0
769 4 27.2835 17.3622 2.48031
8454 2 27.2835 17.3622 0
8455 2 27.2835 18.6024 1.24016
8974 2 28.5236 18.6024 2.48031
255 4 31.0039 18.6024 0
256 4 31.0039 17.3622 1.24016
257 4 32.2441 18.6024 1.24016
772 4 32.2441 17.3622 2.48031
8456 2 29.7638 17.3622 0
8457 2 31.0039 18.6024 0
8458 2 29.7638 18.6024 1.24016
258 4 35.9646 18.6024 0
773 4 33.4843 18.6024 2.48031
8459 2 33.4843 18.6024 0
8460 2 35.9646 18.6024 0
8461 2 34.7244 18.6024 1.24016
8976 2 33.4843 18.6024 2.48031
259 4 38.4449 17.3622 1.24016
776 4 37.2047 17.3622 2.48031
777 4 38.4449 18.6024 2.48031
8462 2 38.4449 18.6024 0
8980 2 38.4449 18.6024 2.48031
260 4 0 19.8425 0
261 4 1.24016 21.0827 0
262 4 0 21.0827 1.24016
263 4 2.48031 19.8425 0
266 4 2.48031 21.0827 1.24016
295 4 2.48031 22.3228 0
778 4 0 19.8425 2.48031
779 4 1.24016 21.0827 2.48031
781 4 2.48031 19.8425 2.48031
811 4 2.48031 22.3228 2.48031
8463 2 1.24016 21.0827 0
8464 2 1.24016 19.8425 1.24016
8465 2 0 21.0827 1.24016
8466 2 2.48031 19.8425 0
8495 2 0 22.3228 0
8981 2 0 19.8425 2.48031
8984 2 2.48031 19.8425 2.48031
9014 2 0 22.3228 2.48031
264 4 3.72047 21.0827 0
265 4 3.72047 19.8425 1.24016
267 4 4.96063 19.8425 0
268 4 6.20079 19.8425 1.24016
297 4 6.20079 22.3228 1.24016
814 4 4.96063 22.3228 2.48031
8467 2 4.96063 19.8425 0
8468 2 6.20079 21.0827 0
8469 2 6.20079 19.8425 1.24016
8498 2 3.72047 22.3228 1.24016
8499 2 4.96063 22.3228 0
8985 2 3.72047 21.0827 2.48031
8986 2 4.96063 19.8425 2.48031
8987 2 6.20079 21.0827 2.48031
269 4 7.44094 19.8425 0
270 4 8.6811 21.0827 0
271 4 7.44094 21.0827 1.24016
299 4 8.6811 22.3228 1.24016
817 4 7.44094 22.3228 2.48031
8470 2 7.44094 19.8425 0
8502 2 8.6811 22.3228 1.24016
8990 2 8.6811 21.0827 2.48031
272 4 9.92126 21.0827 1.24016
275 4 12.4016 21.0827 1.24016
301 4 9.92126 22.3228 0
302 4 11.1614 22.3228 1.24016
785 4 9.92126 19.8425 2.48031
786 4 11.1614 21.0827 2.48031
788 4 12.4016 19.8425 2.48031
819 4 12.4016 22.3228 2.48031
8471 2 11.1614 19.8425 1.24016
8472 2 9.92126 21.0827 1.24016
8504 2 9.92126 22.3228 0
8506 2 11.1614 22.3228 1.24016
8508 2 12.4016 22.3228 0
8992 2 9.92126 19.8425 2.48031
9019 2 9.92126 22.3228 2.48031
273 4 13.6417 21.0827 0
274 4 13.6417 19.8425 1.24016
276 4 16.122 19.8425 1.24016
277 4 14.8819 21.0827 1.24016
306 4 16.122 22.3228 1.24016
789 4 16.122 21.0827 2.48031
823 4 14.8819 22.3228 2.48031
8473 2 13.6417 21.0827 0
8474 2 14.8819 19.8425 0
8510 2 14.8819 22.3228 0
8994 2 13.6417 21.0827 2.48031
278 4 17.3622 19.8425 0
279 4 17.3622 21.0827 1.24016
792 4 17.3622 19.8425 2.48031
825 4 17.3622 22.3228 2.48031
8513 2 17.3622 22.3228 0
8997 2 17.3622 19.8425 2.48031
8998 2 18.6024 21.0827 2.48031
9023 2 17.3622 22.3228 2.48031
280 4 19.8425 19.8425 0
281 4 21.0827 19.8425 1.24016
282 4 22.3228 19.8425 0
308 4 19.8425 22.3228 0
793 4 19.8425 19.8425 2.48031
828 4 22.3228 22.3228 2.48031
8475 2 19.8425 19.8425 0
8476 2 21.0827 21.0827 0
8477 2 21.0827 19.8425 1.24016
8478 2 22.3228 19.8425 0
8515 2 21.0827 22.3228 1.24016
9000 2 22.3228 19.8425 2.48031
9027 2 19.8425 22.3228 2.48031
283 4 23.563 21.0827 0
284 4 23.563 19.8425 1.24016
285 4 24.8031 21.0827 1.24016
311 4 26.0433 22.3228 1.24016
797 4 24.8031 19.8425 2.48031
830 4 24.8031 22.3228 2.48031
8479 2 23.563 21.0827 0
8480 2 24.8031 19.8425 0
8481 2 26.0433 21.0827 0
8482 2 26.0433 19.8425 1.24016
8483 2 24.8031 21.0827 1.24016
8519 2 24.8031 22.3228 0
8520 2 26.0433 22.3228 1.24016
9003 2 24.8031 19.8425 2.48031
9030 2 24.8031 22.3228 2.48031
286 4 27.2835 19.8425 0
287 4 28.5236 21.0827 0
798 4 27.2835 19.8425 2.48031
799 4 28.5236 21.0827 2.48031
832 4 27.2835 22.3228 2.48031
8484 2 28.5236 19.8425 1.24016
8485 2 27.2835 21.0827 1.24016
9005 2 28.5236 21.0827 2.48031
288 4 31.0039 21.0827 0
289 4 31.0039 19.8425 1.24016
290 4 29.7638 21.0827 1.24016
314 4 29.7638 22.3228 0
316 4 32.2441 22.3228 0
801 4 31.0039 21.0827 2.48031
837 4 32.2441 22.3228 2.48031
8486 2 31.0039 21.0827 0
8487 2 31.0039 19.8425 1.24016
8490 2 32.2441 21.0827 1.24016
8523 2 29.7638 22.3228 0
9007 2 29.7638 19.8425 2.48031
9008 2 31.0039 21.0827 2.48031
9035 2 29.7638 22.3228 2.48031
9038 2 32.2441 22.3228 2.48031
291 4 35.9646 19.8425 1.24016
318 4 33.4843 22.3228 1.24016
320 4 34.7244 22.3228 0
803 4 33.4843 21.0827 2.48031
806 4 35.9646 21.0827 2.48031
8488 2 33.4843 21.0827 0
8489 2 33.4843 19.8425 1.24016
8491 2 34.7244 19.8425 0
8492 2 35.9646 21.0827 0
8525 2 34.7244 22.3228 0
8526 2 35.9646 22.3228 1.24016
9009 2 33.4843 21.0827 2.48031
9011 2 34.7244 19.8425 2.48031
292 4 38.4449 19.8425 1.24016
293 4 37.2047 21.0827 1.24016
808 4 37.2047 19.8425 2.48031
809 4 38.4449 21.0827 2.48031
8493 2 38.4449 19.8425 1.24016
8494 2 37.2047 21.0827 1.24016
9042 2 37.2047 22.3228 2.48031
294 4 1.24016 23.563 0
322 4 1.24016 26.0433 0
323 4 1.24016 24.8031 1.24016
324 4 2.48031 24.8031 0
843 4 0 24.8031 2.48031
844 4 1.24016 26.0433 2.48031
846 4 2.48031 24.8031 2.48031
8496 2 1.24016 23.563 0
8528 2 0 24.8031 0
8529 2 0 26.0433 1.24016
8531 2 2.48031 26.0433 1.24016
9045 2 1.24016 26.0433 2.48031
296 4 3.72047 23.563 0
325 4 3.72047 24.8031 1.24016
326 4 6.20079 24.8031 1.24016
327 4 4.96063 26.0433 1.24016
812 4 3.72047 23.563 2.48031
849 4 6.20079 26.0433 2.48031
8497 2 3.72047 23.563 0
8500 2 4.96063 23.563 1.24016
8530 2 3.72047 26.0433 0
8532 2 4.96063 24.8031 0
8533 2 6.20079 26.0433 0
9015 2 3.72047 23.563 2.48031
9046 2 3.72047 26.0433 2.48031
9049 2 4.96063 24.8031 2.48031
9050 2 6.20079 26.0433 2.48031
298 4 8.6811 23.563 0
300 4 7.44094 23.563 1.24016
328 4 8.6811 24.8031 1.24016
851 4 8.6811 26.0433 2.48031
8501 2 8.6811 23.563 0
8503 2 7.44094 23.563 1.24016
8534 2 8.6811 26.0433 0
9018 2 8.6811 23.563 2.48031
9053 2 7.44094 24.8031 2.48031
304 4 12.4016 23.563 1.24016
329 4 9.92126 24.8031 0
330 4 11.1614 26.0433 0
331 4 9.92126 26.0433 1.24016
332 4 12.4016 24.8031 0
852 4 9.92126 24.8031 2.48031
853 4 11.1614 26.0433 2.48031
856 4 12.4016 24.8031 2.48031
8505 2 11.1614 23.563 0
8507 2 9.92126 23.563 1.24016
8535 2 11.1614 26.0433 0
8536 2 11.1614 24.8031 1.24016
8537 2 12.4016 24.8031 0
8539 2 12.4016 26.0433 1.24016
9020 2 11.1614 23.563 2.48031
9055 2 9.92126 24.8031 2.48031
9056 2 11.1614 26.0433 2.48031
303 4 13.6417 23.563 0
305 4 16.122 23.563 0
333 4 13.6417 26.0433 0
334 4 14.8819 24.8031 0
335 4 16.122 26.0433 0
336 4 14.8819 26.0433 1.24016
820 4 13.6417 23.563 2.48031
857 4 13.6417 26.0433 2.48031
8509 2 13.6417 23.563 0
8511 2 16.122 23.563 0
8512 2 14.8819 23.563 1.24016
8538 2 13.6417 24.8031 1.24016
8540 2 14.8819 24.8031 0
8541 2 16.122 26.0433 0
8542 2 16.122 24.8031 1.24016
8543 2 14.8819 26.0433 1.24016
9057 2 13.6417 26.0433 2.48031
9060 2 16.122 26.0433 2.48031
307 4 18.6024 23.563 0
337 4 18.6024 26.0433 0
338 4 18.6024 24.8031 1.24016
826 4 18.6024 23.563 2.48031
860 4 17.3622 24.8031 2.48031
861 4 18.6024 26.0433 2.48031
8544 2 18.6024 26.0433 0
8545 2 18.6024 24.8031 1.24016
9024 2 18.6024 23.563 2.48031
9063 2 17.3622 24.8031 2.48031
309 4 21.0827 23.563 0
339 4 19.8425 24.8031 0
340 4 21.0827 26.0433 0
341 4 21.0827 24.8031 1.24016
342 4 19.8425 26.0433 1.24016
343 4 22.3228 24.8031 0
8514 2 21.0827 23.563 0
8516 2 19.8425 23.563 1.24016
8518 2 22.3228 23.563 1.24016
8546 2 19.8425 24.8031 0
8547 2 21.0827 26.0433 0
8548 2 21.0827 24.8031 1.24016
8549 2 19.8425 26.0433 1.24016
8551 2 22.3228 26.0433 1.24016
9028 2 21.0827 23.563 2.48031
310 4 26.0433 23.563 0
312 4 24.8031 23.563 1.24016
344 4 23.563 26.0433 0
345 4 23.563 24.8031 1.24016
346 4 24.8031 24.8031 0
865 4 23.563 26.0433 2.48031
866 4 24.8031 24.8031 2.48031
867 4 26.0433 26.0433 2.48031
8517 2 23.563 23.563 0
8521 2 24.8031 23.563 1.24016
8550 2 23.563 24.8031 1.24016
8552 2 26.0433 24.8031 1.24016
8553 2 24.8031 26.0433 1.24016
9031 2 26.0433 23.563 2.48031
9066 2 23.563 26.0433 2.48031
313 4 28.5236 23.563 0
347 4 27.2835 24.8031 0
833 4 28.5236 23.563 2.48031
870 4 27.2835 24.8031 2.48031
871 4 28.5236 26.0433 2.48031
8522 2 28.5236 23.563 0
9069 2 27.2835 24.8031 2.48031
9070 2 28.5236 26.0433 2.48031
315 4 31.0039 23.563 0
319 4 32.2441 23.563 1.24016
348 4 29.7638 24.8031 0
349 4 31.0039 24.8031 1.24016
350 4 29.7638 26.0433 1.24016
834 4 31.0039 23.563 2.48031
8554 2 31.0039 26.0433 0
8555 2 29.7638 26.0433 1.24016
8556 2 32.2441 24.8031 0
9073 2 31.0039 26.0433 2.48031
9076 2 32.2441 24.8031 2.48031
317 4 33.4843 23.563 0
351 4 33.4843 26.0433 0
352 4 34.7244 24.8031 0
353 4 35.9646 26.0433 0
354 4 35.9646 24.8031 1.24016
838 4 33.4843 23.563 2.48031
8524 2 33.4843 23.563 0
8557 2 33.4843 24.8031 1.24016
8558 2 35.9646 26.0433 0
9040 2 35.9646 23.563 2.48031
9077 2 33.4843 26.0433 2.48031
9079 2 35.9646 26.0433 2.48031
321 4 38.4449 23.563 0
355 4 38.4449 26.0433 0
356 4 37.2047 26.0433 1.24016