ITEM: TIMESTEP
0
ITEM: NUMBER OF ATOMS
50688
ITEM: BOX BOUNDS xy xz yz pp pp pp
-40.1340523 49.0698586 8.935813
-43.8030052 43.8030052 0.0
-43.7915344 43.7915344 0.0
ITEM: ATOMS id type x y z VoronoiIndex1 VoronoiIndex2 VoronoiIndex3 VoronoiIndex4 VoronoiIndex5 VoronoiIndex6 VoronoiIndex7 VoronoiIndex8 VoronoiIndex9 AtomicVolume
2 2 -13.4700003 -19.0900002 -8.5369997 0 0 1 1 9 1 0 0 0 11.772461
4 2 -29.3700009 -20.7900009 -19.4500008 0 0 0 2 10 0 0 0 0 11.8226156
15 4 -7.6100002 -26.1000004 -21.1599999 0 0 0 1 10 2 0 0 0 11.7494574
23 2 -15.7700005 -31.6299992 -14.1499996 0 0 0 1 10 4 0 0 0 12.6292038
32 5 -37.4300003 -22.0699997 -35.5999985 0 0 2 2 8 2 2 0 0 13.6529436
33 1 -12.8800002 -5.487 -27.1100006 0 0 0 0 12 0 0 0 0 10.9197664
39 4 -22.5300007 -34.0800018 -41.7700005 0 0 0 0 12 3 0 0 0 12.777339
45 4 -3.2260001 -14.96 -15.6199999 0 0 0 0 12 0 0 0 0 11.1776218
46 4 -28.8600006 -11.9499998 -42.8499986 0 0 0 1 10 2 0 0 0 11.1191654
68 4 -12.6199999 -9.7770005 -9.4189997 0 0 0 2 8 4 0 0 0 11.6937657
75 5 1.036 -29.4300003 -35.9199982 0 0 0 3 6 5 0 0 0 13.0278883
88 5 -31.7800007 -31.0400009 -0.3491 0 0 1 4 5 2 0 0 0 11.1681376
90 4 -12.1999998 -43.0999985 -36.0699997 0 0 0 4 8 4 0 0 0 12.2451
93 2 -33.869999 -19.5900002 -25.75 0 0 0 4 4 4 0 0 0 11.644476
97 5 -21.8899994 -9.0129995 -0.405 0 0 0 1 10 3 0 0 0 12.8440362
106 4 -11.4700003 -32.5999985 -2.987 0 0 0 2 8 4 0 0 0 11.5261231
109 4 -32.3699989 -10.1000004 -26.1000004 0 0 0 1 10 5 0 0 0 12.9917192
114 2 -9.2069998 -40.1899986 -6.79 0 0 0 2 8 3 0 0 0 11.9040356
118 2 -3.2739999 -35.5499993 -30.3799992 0 0 0 2 8 2 0 0 0 11.264019
119 4 -33.5400009 -22.1900005 -19.3099995 0 0 0 3 10 3 0 0 0 12.9881822
122 4 0.1791 -35.2900009 -33.0999985 0 0 0 0 12 3 0 0 0 12.7123785
141 4 -20.3799992 -11.0799999 -40.2299996 0 0 0 1 10 4 0 0 0 12.6692629
162 4 -3.5739999 -14.0200005 -34.5 0 0 0 0 12 2 0 0 0 12.2650442
164 1 -6.5760002 -8.1140003 -40.3800011 0 0 0 2 10 1 0 0 0 11.9530706
169 1 -0.7671 -12.6099997 -18.9400006 0 0 1 1 9 3 0 0 0 11.9062586
174 5 1.412 -8.4589997 -29.7999993 0 0 1 2 7 6 0 0 0 13.0507936
187 4 0.712 -10.9799996 -21.8099995 0 0 0 3 8 2 0 0 0 11.632742
199 1 -6.3979998 -31.3299999 -27.3500004 0 0 0 1 10 2 0 0 0 11.8284827
211 2 -36.2299996 -24.8500004 -37.4900017 0 0 1 0 9 3 0 0 0 11.3714895
223 2 -3.122 -37.5099983 -23.1599999 0 0 1 1 9 3 0 0 0 12.1804562
227 4 -16.6100006 -6.6279998 -28.8799992 0 0 0 1 10 4 0 0 0 13.7527285
237 2 -13.2299996 -38.2700005 -34.1899986 0 0 0 0 12 0 0 0 0 11.3656292
253 5 -2.263 -4.5679999 -34.5200005 0 0 0 4 6 4 0 0 0 13.2153244
254 4 -6.4720001 -25.7900009 -4.2779999 0 0 1 2 7 4 0 0 0 12.0823002
258 2 -6.526 -37.4599991 -41.9900018 0 0 0 0 12 0 0 0 0 11.0509195
259 5 -3.3829999 -37.0699997 -34.9099998 0 0 1 0 11 1 0 0 0 12.2175884
265 5 -34.0 -21.9500008 -25.7399998 0 0 1 3 4 5 1 0 0 12.5012245
275 5 -34.6800003 -21.2099991 -32.2000008 0 0 0 2 8 5 0 0 0 11.9776134
286 3 -13.4499998 -33.2599983 -23.2700005 0 0 0 2 10 3 0 0 0 12.7032042
290 4 -39.2000008 -42.75 -3.346 0 0 0 2 8 3 0 0 0 11.9214212
293 5 -19.6000004 -8.514 -43.6699982 0 0 0 4 8 1 0 0 0 12.3017883
297 5 -19.4200001 -8.2980003 -20.3899994 0 0 1 2 7 4 0 0 0 11.4106064
306 1 -0.5914001 -17.2999992 -0.8702 0 0 0 0 12 0 0 0 0 11.1224098
326 4 -24.1200008 -23.2600002 -10.5299998 0 0 1 0 11 1 0 0 0 12.4178696
338 5 -25.4799996 -34.0600014 -30.2299996 0 0 0 1 10 2 0 0 0 11.5652781
339 4 -2.197 -38.7999993 -10.6899996 0 0 0 3 6 6 0 0 0 13.7792664
349 4 -23.7999993 -42.5 -16.4799996 0 0 0 1 10 2 0 0 0 12.3088751
350 4 -33.5200005 -14.5699997 -37.1599999 0 0 0 1 10 3 0 0 0 12.4496641
364 4 -5.0240002 -21.6499996 -42.3499985 0 0 1 2 7 6 0 0 0 13.3193817
378 1 -5.2140002 -43.7599983 -17.3099995 0 0 0 2 8 2 0 0 0 11.3428221
387 3 -16.5499993 -23.5699997 -32.2200012 0 0 0 4 5 5 1 0 0 12.3656006
397 1 -7.1409998 -27.2000008 -25.0100002 0 0 0 3 6 3 0 0 0 11.371831
403 4 -33.8100014 -33.3100014 -14.6499996 0 0 1 3 7 4 0 0 0 12.2743044
414 4 -11.4899998 -0.6316 -7.514 0 0 0 0 12 2 0 0 0 11.9603978
415 4 -13.1300001 -3.1140001 -27.2000008 0 0 0 1 10 4 0 0 0 12.8871032
423 2 -28.4899998 -13.1700001 -26.1700001 0 0 0 0 12 0 0 0 0 12.32689
424 3 -21.5200005 -37.4599991 -30.3199997 0 0 0 2 8 5 0 0 0 12.5352717
440 2 -10.29 -30.9300004 -36.4099999 0 0 1 3 5 4 0 0 0 12.0326433
458 1 -35.2700005 -28.4300003 -39.0 0 0 0 0 12 0 0 0 0 10.3097868
461 2 -20.6200009 -0.8671 -6.296 0 0 0 2 8 2 0 0 0 11.5133171
469 2 -7.289 -15.5699997 -6.96 0 0 0 3 8 1 0 0 0 11.0815115
477 2 -17.5 -18.4500008 -26.4099999 0 0 1 4 7 2 0 0 0 12.1029997
478 5 -12.3000002 -9.6999998 -32.619999 0 0 1 2 7 5 0 0 0 12.0958729
483 4 -9.9259996 -6.4099999 -30.9500008 0 0 1 0 11 1 0 0 0 11.3851805
485 4 -15.1400003 -16.9200002 -4.3829999 0 0 1 2 6 3 1 0 0 12.3258867
495 4 -33.1899986 -25.6299992 -1.706 0 0 0 1 10 3 0 0 0 12.1675949
497 5 -2.76 -38.0400009 -42.7299996 0 0 0 2 8 2 0 0 0 11.3613711
508 4 -21.7299996 -23.3099995 -14.4899998 0 0 0 0 12 4 0 0 0 13.1489801
511 4 -20.0699997 -22.8799992 -35.8400002 0 0 2 3 4 6 0 0 0 12.3828688
514 2 -15.4899998 -25.4500008 -39.1199989 0 0 1 2 7 3 0 0 0 11.4297266
537 5 -19.5400009 -19.2999992 -14.1300001 0 0 0 2 8 5 0 0 0 12.1946869
544 3 -30.8400002 -12.9399996 -38.9700012 0 0 0 4 6 3 0 0 0 12.0855913
546 2 -15.87 -13.0200005 -33.5400009 0 0 0 2 8 3 0 0 0 11.1350117
553 4 -32.1300011 -28.0200005 -5.4879999 0 0 1 3 6 3 1 0 0 11.6761723
554 5 -19.2399998 -39.1899986 -18.6499996 0 0 0 1 10 2 0 0 0 11.7238636
567 2 -8.8599998 -42.7299996 -18.1299992 0 0 2 2 7 3 1 0 0 12.1854324
574 4 -30.4699993 -23.6499996 -16.2999992 0 0 0 1 10 4 0 0 0 12.9052382
579 5 -19.3899994 -25.8199997 -26.1700001 0 0 2 1 8 3 0 0 0 11.7479878
595 4 -4.3340001 -24.0200005 -24.0599995 0 0 1 1 9 3 0 0 0 12.0847845
621 2 -28.4099999 -32.7200012 -7.0819998 0 0 0 1 10 2 0 0 0 12.2249012
634 4 0.9491 -0.3049 -11.3100004 0 0 0 1 10 4 0 0 0 12.570014
639 5 -36.4500008 -11.7100001 -28.5300007 0 0 0 2 8 5 0 0 0 13.5245476
644 2 -14.4899998 -8.3719998 -20.7999993 0 0 0 0 12 0 0 0 0 10.8489122
664 4 -2.909 -31.6100006 -37.3899994 0 0 2 0 10 2 0 0 0 12.5627623
670 4 -25.6700001 -19.3299999 -41.0299988 0 0 1 1 7 5 0 0 0 12.6170149
672 4 -0.2689 -42.5699997 -26.4200001 0 0 0 1 10 3 0 0 0 11.9215918
690 2 -18.8099995 -32.5400009 -36.6699982 0 0 2 2 6 3 0 0 0 11.8911686
699 4 -6.2709999 -22.2099991 -27.1399994 0 0 0 5 6 5 0 0 0 14.1831322
701 5 -17.3199997 -32.0999985 -2.901 0 0 0 4 4 5 0 0 0 12.2099819
702 5 -7.329 -34.7599983 -14.0100002 0 0 0 0 12 0 0 0 0 10.7936144
708 4 0.2525 -3.1530001 -34.2999992 0 0 0 3 6 4 0 0 0 12.2703686
718 4 -20.4200001 -13.79 -30.7399998 0 0 0 0 12 2 0 0 0 12.3297157
731 4 -3.2409999 -20.0200005 -29.1000004 0 0 0 2 10 1 0 0 0 11.9151554
733 4 -16.0699997 -19.9300004 -25.0699997 0 0 0 2 10 1 0 0 0 12.0686731
740 2 -34.1399994 -37.4199982 -42.0 0 0 0 0 12 0 0 0 0 11.3260231
766 4 -28.7800007 -11.96 -12.7799998 0 0 0 2 8 4 0 0 0 11.9966516
773 2 -13.9099998 -26.1299992 -30.4400006 0 0 0 1 10 2 0 0 0 11.2522345
779 5 -11.4899998 -34.4199982 -18.8700008 0 0 0 3 6 5 0 0 0 13.308095
782 2 1.143 -20.0100002 -9.085 0 0 1 0 9 3 0 0 0 11.3477278
783 5 0.1496 -26.4500008 -16.6700001 0 0 0 3 6 4 0 0 0 12.0861435
792 4 -0.5224 -31.5799999 -36.4799996 0 0 0 2 9 2 1 0 0 13.4515476
800 2 -37.0200005 -37.3199997 -19.8199997 0 0 0 0 12 0 0 0 0 11.8959198
804 2 -8.4270001 -1.415 -39.9000016 0 0 0 1 10 2 0 0 0 11.8939038
824 5 -26.6499996 -23.3299999 -1.596 0 0 0 1 10 3 0 0 0 11.4706297
827 2 -5.2519999 -36.619999 -23.2000008 0 0 1 1 9 2 0 0 0 11.7423344
833 4 -37.5499993 -19.1599999 -36.0400009 0 0 0 3 8 2 0 0 0 12.825305
839 2 -24.4699993 -41.3199997 -2.1849999 0 0 0 2 10 3 0 0 0 12.8307619
853 4 -32.0299988 -8.6899996 -28.4200001 0 0 0 2 8 4 0 0 0 12.8768358
857 5 -27.8099995 -14.5200005 -17.1499996 0 0 0 2 8 2 2 0 0 12.4855309
858 4 -23.8400002 -9.9989996 -4.0939999 0 0 0 1 10 4 0 0 0 13.7183895
864 4 -0.4329 -12.3100004 -27.7299996 0 0 0 1 10 3 0 0 0 12.1825218
867 1 0.5678 -28.1200008 -21.1100006 0 0 0 2 8 2 0 0 0 11.068223
907 5 -24.4699993 -27.4599991 -43.6699982 0 0 0 1 10 2 0 0 0 12.2808628
912 5 -21.7900009 -42.9700012 -39.3600006 0 0 2 0 8 4 0 0 0 11.9961186
913 1 -11.8500004 -10.4300003 -24.2099991 0 0 1 3 5 5 0 0 0 11.8343611
918 4 -14.0900002 -18.7800007 -33.9000016 0 0 0 3 6 3 2 0 0 12.2052717
919 5 -3.8180001 -14.9099998 -9.4370003 0 0 2 4 3 6 1 1 0 13.0146942
927 5 -17.0499992 -24.7399998 -29.6700001 0 0 0 2 10 3 0 0 0 13.2059164
934 4 -21.3500004 -7.875 -26.9400006 0 0 0 0 12 0 0 0 0 11.368104
935 2 -26.8199997 -5.7449999 -25.9099998 0 0 0 2 8 2 0 0 0 11.7193527
939 2 -38.7999993 -36.7799988 -30.9599992 0 0 0 2 8 3 0 0 0 11.4531985
949 2 -23.8099995 -5.6209998 -32.25 0 0 0 4 5 3 1 0 0 12.6861906
959 4 -20.4599991 -24.9899998 -9.132 0 0 0 0 12 3 0 0 0 13.1235828
961 2 -16.5599995 -40.4099999 -41.2700005 0 0 1 1 9 3 0 0 0 12.5310049
969 2 -31.9300004 -9.7659998 -11.9099998 0 0 0 3 6 4 0 0 0 11.3230543
979 2 -8.2609997 -14.1300001 -19.75 0 0 1 0 11 1 0 0 0 12.0959969
983 2 0.3841 -4.5320001 -8.731 0 0 1 2 6 3 1 0 0 12.0999155
990 5 -24.5599995 -25.3500004 -42.2999992 0 0 0 0 12 0 0 0 0 11.295166
1001 4 -8.6160002 -19.8899994 -23.7399998 0 0 0 2 10 1 0 0 0 12.7570973
1015 5 -39.0800018 -39.5699997 -14.2100001 0 0 0 3 10 1 0 0 0 12.5623265
1016 2 -3.8050001 -30.4400006 -8.1280003 0 0 0 0 12 0 0 0 0 11.0724678
1033 2 -23.4899998 -34.0400009 -11.04 0 0 0 2 10 0 0 0 0 11.4915066
1051 4 -15.1599999 -15.3400002 -18.6700001 0 0 0 4 6 4 0 0 0 12.5954294
1064 5 -4.9450002 -19.9099998 -31.0100002 0 0 0 3 8 3 0 0 0 11.8314142
1065 2 -10.7600003 -19.3500004 -8.4239998 0 0 0 4 6 4 0 0 0 11.4874068
1075 4 -34.4199982 -1.964 -34.9700012 0 0 1 3 4 4 1 0 0 11.8404704
1084 1 2.402 -6.5229998 -33.4799996 0 0 0 2 10 0 0 0 0 11.7410145
1086 1 -16.0400009 -38.8899994 -24.0 0 0 0 1 10 2 0 0 0 11.1296978
1089 3 -27.5599995 -33.1199989 -38.2599983 0 0 0 1 10 4 0 0 0 12.4920864
1099 2 3.6570001 -2.5050001 -38.9900018 0 0 0 2 9 1 1 0 0 11.7867165
1102 1 -11.4300003 -36.25 -37.2799988 0 0 0 0 12 0 0 0 0 10.8044796
1110 2 -23.5 -21.8999996 -5.777 0 0 0 2 8 2 0 0 0 11.4463854
1111 5 -34.5800019 -5.6810003 -5.901 0 0 0 1 10 2 0 0 0 11.3399172
1122 4 -19.1599999 -23.8999996 -15.3100004 0 0 0 0 12 0 0 0 0 11.3591442
1131 2 -5.844 -2.596 -21.3099995 0 0 0 1 10 2 0 0 0 12.3145142
1133 2 -9.9969998 -42.2700005 -7.968 0 0 1 4 3 5 0 0 0 11.7131443
1138 4 -33.2999992 -29.5400009 -0.5579 0 0 0 1 10 2 0 0 0 11.7880268
1163 2 -33.3699989 -19.1100006 -12.3400002 0 0 0 0 12 0 0 0 0 12.0402308
1164 4 0.2029 -25.1599999 -31.9300004 0 0 0 1 10 2 0 0 0 11.9694662
1166 5 -23.5699997 -28.6499996 -9.6400004 0 0 1 0 11 1 0 0 0 12.7499571
1170 2 -7.993 -4.0650001 -17.0 0 0 0 2 8 1 0 0 0 11.3539105
1178 1 -24.3199997 -33.8400002 -5.7890001 0 0 0 3 6 4 0 0 0 11.1757631
1195 5 -12.4899998 -38.9500008 -9.3599997 0 0 0 3 6 4 0 0 0 11.6193733
1198 5 -8.1359997 -34.5499993 -38.2400017 0 0 0 1 10 2 0 0 0 11.9102144
1209 2 -12.1099997 -5.4879999 -9.7629996 0 0 0 3 8 2 0 0 0 12.1418619
1211 5 -26.0799999 -23.0400009 -21.2399998 0 0 1 1 9 2 2 0 0 12.8914146
1219 5 -25.7299996 -32.8199997 -39.7799988 0 0 0 3 8 2 0 0 0 12.4516135
1238 4 -36.8600006 -33.0099983 -38.9500008 0 0 0 1 10 6 0 0 0 14.2633715
1239 2 -18.8500004 -10.5100003 -19.3600006 0 0 0 0 12 0 0 0 0 10.8591538
1251 4 -37.869999 -31.8299999 -7.5 0 0 0 0 12 3 0 0 0 13.069438
1256 4 -14.1199999 -5.8720002 -8.4630003 0 0 0 1 10 4 0 0 0 13.1483355
1259 2 -35.8300019 -43.6399994 -15.7799998 0 0 0 2 8 2 0 0 0 11.3046904
1262 4 -28.9200002 -22.0799999 -14.7299996 0 0 1 1 9 2 0 0 0 12.2386208
1266 4 -0.8201 -23.0300007 -36.8600006 0 0 0 4 6 5 0 0 0 12.7648525
1280 4 -36.6500016 -27.9400006 -31.9899998 0 0 0 2 8 5 0 0 0 12.6110869
1286 5 -5.928 -11.2600002 -36.6300011 0 0 2 2 5 4 1 1 0 12.1903954
1289 2 -6.8649998 -10.3400002 -23.1700001 0 0 0 0 12 0 0 0 0 11.5286951
1299 2 -7.1729999 -15.9499998 -40.3100014 0 0 0 0 12 0 0 0 0 11.2026672
1303 4 -12.3100004 -19.9599992 -35.4500008 0 0 0 2 8 5 0 0 0 12.469801
1304 5 -11.2799997 -18.8099995 -14.6700001 0 0 1 1 11 3 0 0 0 13.9943772
1306 5 -0.7616 -10.9399996 -29.5900002 0 0 0 4 6 4 0 0 0 11.8877068
1315 2 -37.4599991 -34.2700005 -42.8199997 0 0 0 0 12 0 0 0 0 11.315423
1319 2 -20.3099995 -28.4500008 -1.2740001 0 0 1 3 7 3 0 0 0 11.6751652
1322 4 -0.7113 -27.8600006 -3.5420001 0 0 0 2 10 2 0 0 0 12.8492576
1336 4 -8.8549996 -4.7090001 -23.2399998 0 0 0 3 10 2 0 0 0 13.6183996
1337 4 -14.3299999 -20.0200005 -37.0499992 0 0 0 4 4 5 0 0 0 11.7468071
1340 2 -28.0499992 -24.5900002 -38.9599992 0 0 0 2 8 3 0 0 0 12.1522226
1342 2 -37.2099991 -32.1199989 -32.5800019 0 0 0 3 6 6 0 0 0 11.9809762
1343 2 -23.2999992 -4.882 -35.0200005 0 0 0 1 10 2 0 0 0 11.2902117
1352 5 -11.1700001 -15.4099999 -42.619999 0 0 0 0 12 0 0 0 0 11.056222
1372 2 -18.3899994 -22.6399994 -28.6200009 0 0 0 0 12 0 0 0 0 11.5698357
1385 5 1.678 -10.6999998 -33.6300011 0 0 0 1 10 2 0 0 0 11.5290919
1394 5 -0.04684 -36.25 -26.2199993 0 0 0 0 12 0 0 0 0 12.4035511
1399 4 -36.9300004 -17.5400009 -1.982 0 0 1 3 5 5 0 0 0 11.76964
1407 5 -34.2000008 -6.8530002 -24.7000008 0 0 0 0 12 0 0 0 0 10.6179762
1408 1 -20.4099999 -34.7099991 -8.0909996 0 0 0 3 8 2 0 0 0 11.3811712
1414 2 -30.0599995 -20.7199993 -31.7199993 0 0 0 0 12 0 0 0 0 11.8126087
1419 2 -33.4700012 -43.7099991 -15.3500004 0 0 0 2 10 1 0 0 0 12.1576643
1421 2 -17.5499993 -36.2000008 -33.4199982 0 0 0 3 6 4 0 0 0 11.870472
1437 4 -37.0699997 -19.75 -19.8400002 0 0 0 1 12 1 0 0 0 12.9039928
1495 5 -14.7799998 -23.25 -6.2810001 0 0 0 1 10 2 0 0 0 12.1878014
1502 4 -4.6859999 -12.8100004 -38.4000015 0 0 0 3 6 4 0 0 0 12.1600056
1505 2 -25.8500004 -19.3600006 -43.4799996 0 0 0 2 8 2 0 0 0 12.0569744
1521 5 -15.2399998 -24.7600003 -2.883 0 0 0 0 12 0 0 0 0 11.2796745
1526 4 -15.8599998 -9.0010004 -35.5699997 0 0 0 1 10 3 0 0 0 11.8053971
1527 5 -17.0900002 -40.5800019 -35.6699982 0 0 2 0 8 2 2 0 0 11.8399774
1529 2 -13.75 -36.7900009 -26.2999992 0 0 0 3 6 3 0 0 0 11.9149276
1539 5 -29.7999993 -1.75 -30.4899998 0 0 0 3 8 2 0 0 0 12.1371098
1540 5 -0.4569 -9.592 -23.25 0 0 0 2 10 3 0 0 0 12.5736275
1546 4 -10.3800001 -42.2099991 -38.5299988 0 0 0 4 8 3 0 0 0 12.7400656
1552 4 -34.4199982 -40.869999 -29.5499993 0 0 0 2 10 2 0 0 0 12.4182568
1555 2 -13.0100002 -19.1200008 -42.0299988 0 0 0 1 10 2 0 0 0 12.3573847
1563 5 -4.7399998 -30.7099991 -16.7099991 0 0 0 2 8 3 0 0 0 11.7141199
1566 5 -5.658 -7.7199998 -18.4300003 0 0 0 3 10 1 0 0 0 12.8122397
1585 4 -34.7799988 -28.0100002 -6.4089999 0 0 1 2 9 2 0 0 0 12.0221958
1593 2 -22.8999996 -3.973 -29.0200005 0 0 0 0 12 0 0 0 0 11.5693617
1595 4 -36.4099999 -16.9899998 -28.1900005 0 0 2 2 5 1 3 0 0 12.0924797
1597 5 -5.105 -17.6299992 -5.9699998 0 0 1 3 4 6 1 0 0 12.5778113
1611 5 -15.0200005 -7.941 -0.3696 0 0 0 3 6 4 0 0 0 11.904338
1617 4 -17.7999993 -2.4530001 -38.2700005 0 0 1 1 8 3 1 0 0 11.8357811
1625 2 -37.6100006 -35.3499985 -29.2999992 0 0 0 2 8 2 0 0 0 11.2879162
1626 2 -17.5300007 -35.7400017 -27.8899994 0 0 0 0 12 0 0 0 0 11.2841139
1632 5 -3.4960001 -23.2800007 -33.0800018 0 0 0 3 8 4 0 0 0 13.0829401
1651 2 -2.3610001 -1.904 -6.4860001 0 0 0 5 5 1 1 0 0 11.8458978
1656 4 -9.3459997 -3.823 -18.9699994 0 0 0 0 12 3 0 0 0 13.1422539
1658 4 -36.4000015 -15.1800003 -6.2820001 0 0 0 0 12 2 0 0 0 11.7707281
1660 4 -32.0600014 -5.8039999 -25.5 0 0 0 0 12 2 0 0 0 12.0092449
1670 2 -23.5100003 -23.3400002 -24.7299996 0 0 0 6 2 2 2 0 0 11.7373638
1671 4 -0.9418 -29.25 -34.8199997 0 0 0 4 8 1 0 0 0 12.3652125
1675 4 -0.3806 -41.5299988 -28.9599992 0 0 1 2 7 5 0 0 0 13.3659096
1680 5 -0.7757 -31.25 -23.1299992 0 0 0 1 10 2 0 0 0 11.9568138
1683 4 -26.8700008 -15.7100001 -38.4500008 0 0 0 3 6 4 0 0 0 11.9623508
1686 5 -9.4600001 -16.8199997 -26.2999992 0 0 1 1 9 4 0 0 0 11.876051
1687 2 -21.6499996 -30.3999996 -30.7099991 0 0 1 4 6 2 1 0 0 12.2624922
1707 4 -15.8199997 -30.1700001 -3.26 0 0 1 0 11 1 0 0 0 12.3600979
1727 5 -18.0900002 -9.6370001 -15.5100003 0 0 1 1 9 3 0 0 0 12.0225725
1733 4 -7.3460002 -26.25 -28.8899994 0 0 0 2 10 2 0 0 0 12.1815596
1741 3 -22.6499996 -36.7599983 -37.1599999 0 0 1 4 7 2 0 0 0 12.2588577
1748 2 0.09096 -9.4709997 -15.8999996 0 0 0 2 8 4 0 0 0 11.7999506
1749 5 -34.6699982 -24.6599999 -29.9500008 0 0 0 2 10 3 0 0 0 12.775034
1755 2 -35.8600006 -9.2950001 -20.7700005 0 0 0 4 6 3 0 0 0 11.8894958
1759 1 -16.3600006 -20.5200005 -6.6929999 0 0 0 4 4 6 0 0 0 11.968484
1771 5 -17.0 -13.3699999 -14.1800003 0 0 0 0 12 0 0 0 0 11.0858717
1772 2 -16.6499996 -10.3199997 -4.862 0 0 0 3 6 4 0 0 0 11.800025
1786 2 -9.8100004 -18.8099995 -1.8250001 0 0 1 2 7 2 0 0 0 11.5466147
1795 2 -8.8299999 -8.5579996 -11.5500002 0 0 0 1 10 2 0 0 0 12.0696821
1796 4 -25.3199997 -4.5700002 -36.4799996 0 0 0 1 10 3 0 0 0 11.9188148
1798 5 -27.5400009 -20.3299999 -28.8500004 0 0 1 3 5 4 0 0 0 11.5008126
1804 5 -33.9900018 -14.8400002 -32.6599999 0 0 0 1 10 4 0 0 0 13.2722559
1810 2 -25.6000004 -39.7599983 -31.6100006 0 0 0 0 12 0 0 0 0 11.3821573
1811 4 0.6651 -26.4899998 -43.1699982 0 0 0 0 12 3 0 0 0 12.5820885
1834 1 -11.0100002 -27.2099991 -15.9899998 0 0 0 3 6 4 0 0 0 11.8139582
1835 2 -12.29 -3.1530001 -15.3999996 0 0 1 2 7 4 0 0 0 11.8803034
1844 2 -28.5 -42.0099983 -29.5400009 0 0 1 2 5 4 0 0 0 11.5259695
1849 5 -7.2950001 -31.9699994 -9.606 0 0 0 1 10 2 0 0 0 11.7480107
1850 4 -27.1000004 -27.5900002 -19.4899998 0 0 0 2 8 4 0 0 0 12.1339455
1855 2 -2.993 -36.25 -18.1800003 0 0 0 0 12 0 0 0 0 10.984417
1870 5 -11.2299996 -30.4599991 -25.9099998 0 0 0 2 10 2 0 0 0 12.581852
1876 4 -32.2400017 -29.1100006 -35.9099998 0 0 0 0 12 3 0 0 0 12.4279156
1893 4 -26.9500008 -7.322 -20.0 0 0 0 0 12 4 0 0 0 13.1248169
1908 2 -34.4300003 -9.1120005 -24.7199993 0 0 0 0 12 0 0 0 0 11.045001
1914 2 -26.7700005 -6.6599999 -36.0600014 0 0 1 0 9 3 0 0 0 11.4876833
1919 4 -8.0019999 -11.7600003 -2.1210001 0 0 0 3 8 4 0 0 0 12.071187
1923 4 -7.632 -7.5679999 -9.7180004 0 0 0 3 6 5 0 0 0 11.8073797
1927 2 -36.9900018 -27.9799996 -35.2599983 0 0 0 1 10 3 0 0 0 11.7062845
1928 2 -31.1299992 -12.0200005 -11.96 0 0 0 4 4 6 0 0 0 12.2819471
1934 3 -26.6299992 -20.4599991 -21.8099995 0 0 0 3 6 4 0 0 0 11.7889853
1937 4 -34.1199989 -41.6899987 -24.5400009 0 0 0 3 7 4 1 0 0 12.165165
1955 5 -20.3099995 -7.6310001 -8.5170002 0 0 0 3 7 2 1 0 0 12.1708918
1958 5 -28.4699993 -1.1540001 -11.0900002 0 0 0 0 12 0 0 0 0 11.236846
1960 4 -26.6100006 -35.2099991 -16.1200008 0 0 0 2 9 2 1 0 0 12.4937754
1967 4 -13.5500002 -10.1000004 -30.6000004 0 0 0 0 12 3 0 0 0 13.0148201
1980 2 -10.8800002 -13.8599998 -39.3699989 0 0 0 2 8 2 0 0 0 11.1909485
1989 2 1.332 -20.0300007 -13.1099997 0 0 0 2 9 3 1 0 0 13.029665
2006 4 -20.8099995 -40.3300018 -38.2799988 0 0 0 2 8 6 0 0 0 13.4641009
2013 4 -13.4899998 -13.3299999 -1.5670001 0 0 0 3 6 7 0 0 0 13.5912037
2014 4 -11.4300003 -42.5299988 -9.8190003 0 0 0 3 6 4 0 0 0 11.3851957
2021 5 -35.9799996 -20.3500004 -41.9500008 0 0 1 0 11 3 0 0 0 12.7491579
2030 5 1.622 -19.1599999 -15.5799999 0 0 0 4 4 6 0 0 0 13.07125
2034 4 -27.5499993 -30.5799999 -39.4399987 0 0 0 3 6 3 0 0 0 11.8223152
2038 4 -1.9400002 -1.904 -34.8600006 0 0 0 3 7 5 1 0 0 12.6901665
2055 1 -3.4070001 -17.1000004 -40.5600014 0 0 0 2 10 0 0 0 0 11.3997793
2062 4 -29.0699997 -33.6899987 -21.2199993 0 0 0 3 6 4 0 0 0 11.5099736
2079 4 -5.7540002 -11.25 -30.2600002 0 0 0 2 8 5 0 0 0 11.92694
2085 4 -14.0500002 -38.619999 -28.1100006 0 0 0 2 8 6 0 0 0 13.4320107
2090 2 -3.329 -22.0799999 -5.7030001 0 0 0 0 12 0 0 0 0 11.4893017
2108 1 -23.3299999 -15.8999996 -0.04076 0 0 0 0 12 0 0 0 0 10.3905802
2110 1 -9.3809996 -19.0499992 -32.3600006 0 0 0 2 10 0 0 0 0 11.6135502
2113 1 -35.8300019 -3.75 -31.25 0 0 0 0 12 0 0 0 0 11.4873533
2118 5 -7.6960001 -14.6599999 -22.3999996 0 0 0 2 8 4 0 0 0 13.466939
2133 1 -15.8800002 -42.4399987 -42.4000015 0 0 0 1 10 2 0 0 0 11.0519009
2147 4 -36.869999 -14.1599999 -19.8500004 0 0 0 0 12 2 0 0 0 12.290514
2149 4 -14.5299998 -28.6599999 -36.8800012 0 0 0 1 10 2 0 0 0 11.6943951
2161 2 -13.8100004 -33.4399987 -8.3129997 0 0 1 2 7 3 0 0 0 11.7121115
2195 2 -22.6700001 -35.7599983 -15.2799997 0 0 0 2 8 4 0 0 0 11.7524815
2208 4 -37.9500008 -28.1399994 -39.2200012 0 0 0 1 10 3 0 0 0 12.7419529
2216 5 -15.4600001 -19.9400006 -30.0400009 0 0 0 2 10 1 0 0 0 11.9987546
2229 4 -28.8099995 -36.1100006 -25.4699993 0 0 0 2 8 4 0 0 0 11.9536724
2232 5 -38.1100006 -27.0100002 -10.3100004 0 0 0 0 12 2 0 0 0 12.3315916
2234 5 -30.9500008 -22.9699994 -33.1800003 0 0 0 1 10 3 0 0 0 12.1861305
2238 4 -26.6100006 -12.1400003 -14.1300001 0 0 0 0 12 0 0 0 0 11.2948761
2243 2 -15.4399996 -25.6700001 -15.7700005 0 0 1 0 11 1 0 0 0 11.2574759
2246 4 -27.6299992 -7.7930002 -4.7430001 0 0 0 0 12 2 0 0 0 12.6620512
2247 2 -17.5499993 -25.2099991 -19.2399998 0 0 0 3 8 1 0 0 0 11.2760601
2256 4 -15.3900004 -15.5900002 -41.6699982 0 0 0 0 12 4 0 0 0 13.4302778
2265 5 -4.927 -35.25 -17.2000008 0 0 1 1 9 3 0 0 0 11.4245482
2266 2 -10.0299997 -3.454 -25.0799999 0 0 1 4 2 4 1 0 0 12.062295
2270 5 -22.1800003 -20.5599995 -35.2400017 0 0 0 1 10 2 0 0 0 12.0388794
2272 4 -22.2199993 -23.6599999 -39.4000015 0 0 0 2 8 4 0 0 0 12.913373
2277 5 -12.1499996 -27.5900002 -41.7999993 0 0 1 2 9 2 0 0 0 12.3017178
2282 4 -30.1700001 -37.25 -6.0139999 0 0 2 2 6 4 2 0 0 12.9021436
2283 4 -4.7550001 -14.8100004 -22.0799999 0 0 0 0 12 0 0 0 0 11.5720063
2287 4 -27.0499992 -7.0120001 -15.6400004 0 0 0 1 10 3 0 0 0 13.2935305
2288 4 -17.7900009 -2.342 -22.3899994 0 0 0 1 10 3 0 0 0 13.868949
2294 4 -27.6700001 -5.3179999 -37.9500008 0 0 0 2 8 4 0 0 0 11.8043957
2295 5 -21.9300004 -26.2399998 -39.3899994 0 0 0 0 12 2 0 0 0 12.2743683
2298 4 -20.0100002 -21.6000004 -15.2100001 0 0 0 3 6 5 0 0 0 12.1268759
2309 4 -16.6399994 -10.5799999 -23.7199993 0 0 2 2 5 5 1 0 0 12.3568545
2313 4 -7.3629999 -35.1300011 -4.2340002 0 0 1 4 6 2 1 0 0 12.7462797
2315 2 -37.9500008 -39.0699997 -21.0699997 0 0 0 2 10 0 0 0 0 11.7823553
2322 1 -25.1900005 -13.8900004 -11.1400003 0 0 1 2 6 2 1 0 0 11.2868557
2346 5 -12.0200005 -20.2399998 -38.0900002 0 0 0 2 8 2 0 0 0 11.4402371
2347 4 -29.9300004 -2.1300001 -1.273 0 0 0 3 6 5 0 0 0 12.2943068
2355 4 0.874 -21.0 -36.7599983 0 0 1 2 9 2 0 0 0 11.392375
2365 2 -3.5940001 -8.5629998 -26.9899998 0 0 0 1 10 3 0 0 0 12.2431231
2388 4 -22.1399994 -29.9899998 -8.1820002 0 0 0 1 10 4 0 0 0 13.4455195
2394 2 -20.8299999 -6.184 -6.7589998 0 0 0 3 6 3 0 0 0 11.8405906
2397 2 3.9990002 -0.3215 -35.1899986 0 0 0 3 6 4 0 0 0 11.7178469
2412 5 -32.5999985 -37.6100006 -9.7010002 0 0 2 0 8 2 2 0 0 12.3521338
2414 1 -15.9499998 -37.9399986 -8.1000004 0 0 0 0 12 0 0 0 0 10.8200674
2423 5 -4.8540002 -17.4699993 -32.2299996 0 0 1 1 9 2 2 0 0 12.905921
2446 5 -10.9899998 -10.25 -18.9400006 0 0 0 1 10 2 0 0 0 11.710845
2457 1 -35.1800003 -40.4900017 -12.6700001 0 0 1 0 9 3 0 0 0 11.6938782
2464 4 -18.75 -34.8199997 -14.5900002 0 0 0 0 12 0 0 0 0 11.1158085
2469 5 -6.9190002 -5.8119998 -37.1599999 0 0 0 1 10 4 0 0 0 12.8209276
2479 4 -12.3400002 -3.352 -8.3009997 0 0 0 1 10 4 0 0 0 12.4812346
2492 2 -4.8779998 -12.4399996 -28.2399998 0 0 0 3 8 2 0 0 0 11.1231928
2499 4 -11.0799999 -38.7200012 -0.8398 0 0 0 1 10 2 0 0 0 11.9781818
2506 2 -12.6999998 -36.9199982 -11.2600002 0 0 0 1 10 2 0 0 0 11.9287444
2507 2 -27.6599999 -39.9900018 -33.0299988 0 0 1 1 9 3 0 0 0 12.2993746
2509 4 -18.2199993 -11.4899998 -41.5800019 0 0 0 4 4 5 0 0 0 12.0912037
2515 4 -17.4500008 -0.3387 -10.2600002 0 0 0 1 10 4 0 0 0 12.1787663
2529 4 -35.7900009 -15.6800003 -37.4900017 0 0 0 1 10 2 0 0 0 11.7748261
2536 5 -18.7900009 -3.671 -26.2999992 0 0 0 1 10 2 0 0 0 12.4330635
2537 5 -0.5596 -11.1099997 -25.7000008 0 0 0 0 12 0 0 0 0 10.831604
2542 2 -5.7049999 -19.3899994 -37.8899994 0 0 0 0 12 0 0 0 0 11.3896599
2545 2 -18.3099995 -20.7199993 -37.6899987 0 0 1 2 7 4 0 0 0 11.3123779
2570 2 -21.2199993 -28.4500008 -38.2599983 0 0 0 0 12 0 0 0 0 11.5238142
2574 4 -29.1800003 -1.323 -26.5 0 0 1 2 7 6 0 0 0 12.1475716
2585 3 -31.7299996 -5.2290001 -3.3150001 0 0 0 2 8 4 0 0 0 12.7216425
2593 4 -18.7999993 -29.0499992 -38.9399986 0 0 1 1 9 5 0 0 0 13.2385273
2597 5 -38.3400002 -33.4199982 -21.5100003 0 0 2 3 3 4 1 1 0 11.0224037
2606 4 -9.1809998 -31.3700009 -7.3379998 0 0 0 1 10 2 0 0 0 12.5545912
2614 4 -28.3700009 -15.0600004 -2.949 0 0 0 4 6 3 0 0 0 12.3812199
2620 4 -4.48 -26.0599995 -5.8860002 0 0 0 1 9 2 1 0 0 11.7843018
2621 2 -0.9505 -2.8570002 -19.3600006 0 0 0 3 6 4 0 0 0 11.0767021
2634 2 -23.0200005 -32.1899986 -9.6999998 0 0 1 3 5 6 0 0 0 12.3467159
2635 2 -28.9200002 -19.7800007 -3.931 0 0 1 3 7 3 0 0 0 12.5166426
2646 5 -15.2299996 -29.3500004 -10.6300001 0 0 0 0 12 2 0 0 0 12.6239996
2649 4 -39.1699982 -40.8199997 -4.8299999 0 0 0 3 8 2 0 0 0 12.4763794
2659 2 -28.8799992 -23.0599995 -24.8400002 0 0 0 0 12 0 0 0 0 11.4947834
2665 5 -21.1700001 -19.5300007 -41.619999 0 0 0 4 4 6 0 0 0 12.7354775
2667 4 -35.5 -23.2199993 -12.3800001 0 0 1 5 4 2 3 0 0 12.3977909
2685 5 3.5750001 -6.6350003 -21.1200008 0 0 0 0 12 5 0 0 0 13.8626528
2690 4 -19.6700001 -2.2880001 -4.3260002 0 0 0 4 6 5 0 0 0 13.20368
2691 2 1.206 -3.9360002 -2.161 0 0 0 0 12 0 0 0 0 11.1743946
2694 4 -19.3199997 -32.9900018 -32.4199982 0 0 0 2 8 4 0 0 0 12.5913039
2704 5 -6.5549999 -5.7030001 -39.4300003 0 0 0 4 6 3 0 0 0 12.2759962
2711 5 -7.5089998 -17.0200005 -16.7299996 0 0 0 3 6 5 0 0 0 13.2048016
2713 2 -27.6100006 -20.7199993 -41.8600006 0 0 0 1 10 2 0 0 0 12.0950909
2717 2 -24.0499992 -25.5699997 -39.8600006 0 0 0 2 8 4 0 0 0 11.7036944
2721 2 -2.257 -13.6599999 -32.3499985 0 0 1 0 11 1 0 0 0 11.5945187
2731 4 -35.5499993 -35.3300018 -18.1599999 0 0 0 2 8 5 0 0 0 13.3510733
2740 1 -2.523 -18.75 -1.902 0 0 1 2 7 4 0 0 0 12.1027441
2749 4 -12.04 -15.87 -38.6899987 0 0 0 3 6 6 0 0 0 12.4376478
2764 2 -25.5900002 -34.75 -2.0469999 0 0 0 0 12 0 0 0 0 11.2530041
2765 5 -3.0320001 -16.1599999 -5.1859999 0 0 0 4 4 6 0 0 0 12.423028
2766 4 -24.4400006 -23.7099991 -26.8400002 0 0 0 5 6 2 0 0 0 11.8609134
2769 4 -20.0300007 -30.2999992 -15.2600002 0 0 0 2 8 4 0 0 0 12.478714
2778 4 -16.5400009 -29.25 -17.4599991 0 0 0 1 10 3 0 0 0 11.9871236
2783 4 -11.3800001 -29.7199993 -21.6800003 0 0 0 0 12 0 0 0 0 11.0024014
2800 5 -30.7299996 -43.3400002 -8.5609999 0 0 0 3 6 4 0 0 0 11.0791245
2802 5 -29.8999996 -26.8999996 -13.2600002 0 0 0 5 3 5 1 0 0 12.1075783
2818 4 -31.2000008 -15.04 -17.9300004 0 0 1 2 7 4 0 0 0 12.2408676
2823 2 -20.7600003 -30.2399998 -17.9099998 0 0 0 2 8 4 0 0 0 12.1276465
2825 5 -17.0100002 -9.2650004 -20.4400006 0 0 1 1 8 3 1 0 0 11.5803242
2832 4 -25.5400009 -1.845 -1.13 0 0 0 2 8 5 0 0 0 13.1070232
2834 5 -22.6399994 -31.9500008 -12.1700001 0 0 0 2 10 1 0 0 0 11.6062155
2836 4 -21.3600006 -13.9899998 -26.1000004 0 0 0 4 4 6 0 0 0 11.5329886
2839 5 -28.2199993 -16.7099991 -1.077 0 0 1 1 7 4 0 0 0 12.4534846
2861 4 -10.7600003 -33.0200005 -31.2000008 0 0 1 3 7 4 0 0 0 13.5316477
2863 5 -25.9099998 -35.2400017 -38.4199982 0 0 0 2 9 2 0 0 0 11.7571306
2878 2 -14.6099997 -17.7800007 -14.6599999 0 0 1 3 5 4 0 0 0 11.0999107
2884 2 -17.7999993 -32.5200005 -19.1700001 0 0 0 2 8 2 0 0 0 11.4001112
2910 4 -25.2099991 -1.227 -23.7399998 0 0 1 2 7 3 2 0 0 13.0302639
2945 5 -5.6739998 -23.5799999 -17.7099991 0 0 0 1 10 5 0 0 0 13.2435141
2954 5 -21.0300007 -35.1500015 -38.9099998 0 0 0 2 10 2 0 0 0 12.716507
2956 2 -19.0799999 -32.2799988 -28.3500004 0 0 0 3 8 1 0 0 0 11.8132792
2962 4 1.5620001 -12.1999998 -39.8499986 0 0 0 2 10 1 0 0 0 12.3997517
2963 4 -31.7399998 -6.934 -40.9500008 0 0 1 0 11 3 0 0 0 12.2867899
2964 2 -2.237 -26.7900009 -5.1370001 0 0 0 2 7 3 1 0 0 11.1841154
2973 4 -37.2900009 -18.8099995 -29.4300003 0 0 0 4 5 7 1 0 0 13.2839871
2979 4 -26.8500004 -32.9500008 -0.9062 0 0 0 0 12 3 0 0 0 12.7418347
2992 4 -34.6100006 -2.526 -37.2799988 0 0 0 3 6 6 0 0 0 12.7430115
2997 5 1.1 -18.3899994 -27.2199993 0 0 1 3 6 2 1 0 0 11.6274138
2998 2 -34.9799996 -37.9000016 -9.0010004 0 0 0 2 8 2 0 0 0 11.1441488
3012 4 -38.6100006 -29.2299996 -3.8110001 0 0 0 1 10 5 0 0 0 13.2750797
3014 5 -14.2100001 -2.806 -30.1100006 0 0 0 0 12 2 0 0 0 12.9060106
3016 1 -7.6199999 -38.4900017 -38.0299988 0 0 0 0 12 0 0 0 0 10.8235483
3025 5 -13.7799998 -9.1920004 -36.5999985 0 0 0 1 10 4 0 0 0 12.0835514
3032 4 -38.25 -35.5800019 -18.1299992 0 0 0 3 8 2 0 0 0 12.8235226
3049 4 -31.1200008 -13.8199997 -36.619999 0 0 0 2 8 5 0 0 0 12.1366463
3056 5 -13.4300003 -32.1599999 -12.8599998 0 0 0 4 4 6 0 0 0 12.4363079
3059 4 -26.5100003 -30.0900002 -15.1199999 0 0 0 1 10 5 0 0 0 13.6440306
3069 2 4.1929998 -2.431 -29.2099991 0 0 0 1 10 2 0 0 0 12.0007668
3072 4 -20.2199993 -13.7200003 -33.4500008 0 0 0 0 12 2 0 0 0 12.0795345
3076 2 -30.6100006 -10.5699997 -43.0499992 0 0 1 1 10 2 1 0 0 12.6339588
3078 1 -1.458 -37.5999985 -5.923 0 0 0 1 10 2 0 0 0 11.4828463
3093 2 -3.6640001 -13.96 -30.2099991 0 0 0 1 10 2 0 0 0 10.8321982
3095 4 -25.9899998 -16.1700001 -20.8600006 0 0 2 3 6 4 0 0 0 12.3013611
3096 2 -34.6800003 -31.6299992 -40.7299996 0 0 0 0 12 0 0 0 0 12.1379404
3099 5 -1.398 -26.0699997 -11.75 0 0 0 0 12 3 0 0 0 12.8569078
3100 2 -19.0900002 -43.2400017 -17.4500008 0 0 0 0 12 2 0 0 0 11.9751692
3104 1 -20.0200005 -9.9960004 -37.5299988 0 0 0 1 10 2 0 0 0 11.6276217
3117 2 -26.5 -3.0480001 -17.9899998 0 0 0 1 10 2 0 0 0 11.8308192
3134 5 -33.2299996 -17.0200005 -41.3699989 0 0 0 4 5 4 1 0 0 11.9929104
3135 4 0.5291 -23.2999992 -19.8299999 0 0 0 0 12 0 0 0 0 11.0758724
3138 5 -8.5319996 -8.9370004 -22.1299992 0 0 0 0 12 2 0 0 0 12.4763346
3146 4 -13.6700001 -19.7999993 -14.29 0 0 0 2 8 3 0 0 0 11.6033812
3159 5 -33.5900002 -33.8499986 -22.3400002 0 0 0 0 12 0 0 0 0 11.6775513
3182 4 -7.0939999 -38.0499992 -29.4300003 0 0 0 4 6 4 0 0 0 12.6096916
3188 5 -14.0 -22.2000008 -21.4300003 0 0 1 4 4 2 1 0 0 12.277422
3193 5 -33.1500015 -35.4000015 -3.6770001 0 0 0 2 10 1 0 0 0 10.986725
3200 2 -11.6099997 -2.5639999 -29.4899998 0 0 0 0 12 0 0 0 0 11.0656681
3201 4 -13.7299996 -29.2600002 -26.2700005 0 0 0 1 10 2 0 0 0 12.5658875
3202 5 -23.8600006 -35.75 -12.7200003 0 0 0 3 6 4 0 0 0 11.9531374
3218 2 -28.0300007 -3.0869999 -9.75 0 0 0 3 6 3 0 0 0 11.4660588
3219 5 -3.593 -36.8600006 -38.4900017 0 0 2 1 9 2 1 0 0 13.6880293