ITEM: TIMESTEP
0
ITEM: NUMBER OF ATOMS
16384
ITEM: BOX BOUNDS pp pp pp
0.0000000000000000e+00 2.5023440205042100e+01
0.0000000000000000e+00 2.5023440205042100e+01
0.0000000000000000e+00 2.5023440205042100e+01
ITEM: ATOMS id type x y z
1 4 0 0 0
2 4 0.788189 0.788189 0
3 4 2.36457 0.788189 0
4 4 2.36457 0 0.788189
5 4 1.57638 0.788189 0.788189
7 4 3.15276 0.788189 0.788189
32 4 0.788189 1.57638 0.788189
33 4 0 2.36457 0.788189
34 4 2.36457 1.57638 0.788189
35 4 1.57638 2.36457 0.788189
36 4 3.15276 1.57638 0
39 4 3.15276 2.36457 0.788189
73 4 0.788189 3.15276 0.788189
74 4 2.36457 3.15276 0.788189
522 4 2.36457 0 2.36457
523 4 1.57638 0.788189 2.36457
553 4 0.788189 2.36457 1.57638
554 4 0 2.36457 2.36457
555 4 2.36457 2.36457 1.57638
556 4 2.36457 1.57638 2.36457
557 4 1.57638 2.36457 2.36457
558 4 3.15276 1.57638 1.57638
560 4 3.15276 2.36457 2.36457
587 4 0 3.15276 1.57638
589 4 0.788189 3.15276 2.36457
1037 4 2.36457 0.788189 3.15276
1075 4 1.57638 1.57638 3.15276
1105 4 1.57638 3.15276 3.15276
8193 2 0 0 0
8194 2 0.788189 0.788189 0
8195 2 0.788189 0 0.788189
8196 2 0 0.788189 0.788189
8197 2 2.36457 0 0.788189
8198 2 3.15276 0 0
8226 2 0 1.57638 0
8227 2 0.788189 2.36457 0
8228 2 2.36457 1.57638 0.788189
8229 2 3.15276 1.57638 0
8256 2 0.788189 3.15276 0.788189
8258 2 1.57638 3.15276 0
8260 2 3.15276 3.15276 0
8730 2 0.788189 0.788189 1.57638
8731 2 0 0.788189 2.36457
8732 2 2.36457 0.788189 1.57638
8733 2 2.36457 0 2.36457
8734 2 1.57638 0.788189 2.36457
8735 2 3.15276 0 1.57638
8737 2 3.15276 0.788189 2.36457
8760 2 1.57638 1.57638 1.57638
8761 2 2.36457 2.36457 1.57638
8790 2 0 3.15276 1.57638
8791 2 0.788189 3.15276 2.36457
8793 2 1.57638 3.15276 1.57638
9232 2 0 0 3.15276
9233 2 0.788189 0.788189 3.15276
9234 2 1.57638 0 3.15276
9236 2 3.15276 0 3.15276
9265 2 0.788189 2.36457 3.15276
9267 2 1.57638 1.57638 3.15276
6 4 3.94094 0 0.788189
8 4 5.51732 0.788189 0
9 4 5.51732 0 0.788189
10 4 4.72913 0.788189 0.788189
11 4 6.30551 0 0
12 4 6.30551 0.788189 0.788189
37 4 3.94094 2.36457 0
38 4 3.94094 1.57638 0.788189
40 4 5.51732 2.36457 0
41 4 5.51732 1.57638 0.788189
42 4 4.72913 2.36457 0.788189
43 4 6.30551 1.57638 0
44 4 7.0937 2.36457 0
45 4 6.30551 2.36457 0.788189
76 4 4.72913 3.15276 0
77 4 5.51732 3.15276 0.788189
78 4 7.0937 3.15276 0.788189
524 4 3.94094 0 2.36457
525 4 5.51732 0.788189 1.57638
526 4 5.51732 0 2.36457
527 4 4.72913 0.788189 2.36457
528 4 6.30551 0 1.57638
529 4 7.0937 0 2.36457
559 4 3.94094 1.57638 2.36457
561 4 4.72913 1.57638 1.57638
562 4 5.51732 2.36457 1.57638
563 4 7.0937 2.36457 1.57638
564 4 7.0937 1.57638 2.36457
592 4 6.30551 3.15276 1.57638
593 4 7.0937 3.15276 2.36457
1040 4 3.94094 0.788189 3.15276
1042 4 4.72913 0 3.15276
1043 4 5.51732 0.788189 3.15276
1045 4 6.30551 0 3.15276
1046 4 7.0937 0.788189 3.15276
1077 4 3.94094 2.36457 3.15276
1080 4 4.72913 1.57638 3.15276
1081 4 5.51732 2.36457 3.15276
1110 4 6.30551 3.15276 3.15276
8199 2 3.94094 0.788189 0
8200 2 5.51732 0.788189 0
8201 2 7.0937 0 0.788189
8230 2 3.94094 2.36457 0
8231 2 6.30551 1.57638 0
8232 2 7.0937 1.57638 0.788189
8261 2 3.94094 3.15276 0.788189
8263 2 4.72913 3.15276 0
8265 2 6.30551 3.15276 0
8267 2 7.0937 3.15276 0.788189
8736 2 3.94094 0 2.36457
8738 2 5.51732 0 2.36457
8739 2 4.72913 0.788189 2.36457
8740 2 6.30551 0 1.57638
8741 2 6.30551 0.788189 2.36457
8762 2 3.94094 2.36457 1.57638
8763 2 3.94094 1.57638 2.36457
8764 2 4.72913 2.36457 2.36457
8765 2 7.0937 2.36457 1.57638
8766 2 7.0937 1.57638 2.36457
8767 2 6.30551 2.36457 2.36457
8796 2 3.94094 3.15276 2.36457
9237 2 3.94094 0.788189 3.15276
9239 2 5.51732 0.788189 3.15276
9240 2 6.30551 0 3.15276
9269 2 3.94094 2.36457 3.15276
9272 2 4.72913 1.57638 3.15276
9273 2 5.51732 2.36457 3.15276
9275 2 6.30551 1.57638 3.15276
9309 2 6.30551 3.15276 3.15276
13 4 9.45827 0 0
46 4 8.67008 1.57638 0.788189
47 4 7.88189 2.36457 0.788189
48 4 9.45827 1.57638 0
49 4 10.2465 2.36457 0
50 4 10.2465 1.57638 0.788189
51 4 9.45827 2.36457 0.788189
80 4 8.67008 3.15276 0.788189
81 4 9.45827 3.15276 0
82 4 10.2465 3.15276 0.788189
530 4 8.67008 0 2.36457
531 4 7.88189 0.788189 2.36457
532 4 10.2465 0.788189 1.57638
533 4 10.2465 0 2.36457
565 4 7.88189 1.57638 1.57638
566 4 8.67008 2.36457 1.57638
567 4 8.67008 1.57638 2.36457
568 4 9.45827 1.57638 1.57638
569 4 10.2465 2.36457 1.57638
570 4 10.2465 1.57638 2.36457
594 4 7.88189 3.15276 1.57638
596 4 9.45827 3.15276 1.57638
597 4 10.2465 3.15276 2.36457
1049 4 10.2465 0.788189 3.15276
1083 4 7.88189 1.57638 3.15276
1085 4 9.45827 1.57638 3.15276
1113 4 7.88189 3.15276 3.15276
8202 2 8.67008 0 0.788189
8203 2 7.88189 0.788189 0.788189
8204 2 9.45827 0 0
8205 2 10.2465 0.788189 0
8206 2 9.45827 0.788189 0.788189
8233 2 8.67008 2.36457 0
8234 2 10.2465 2.36457 0
8235 2 10.2465 1.57638 0.788189
8268 2 7.88189 3.15276 0
8270 2 8.67008 3.15276 0.788189
8742 2 7.88189 0.788189 2.36457
8743 2 9.45827 0 1.57638
8744 2 10.2465 0.788189 1.57638
8745 2 9.45827 0.788189 2.36457
8768 2 8.67008 2.36457 1.57638
8769 2 7.88189 2.36457 2.36457
8770 2 9.45827 1.57638 1.57638
8771 2 10.2465 2.36457 1.57638
8772 2 9.45827 2.36457 2.36457
8802 2 8.67008 3.15276 2.36457
9242 2 8.67008 0.788189 3.15276
9245 2 10.2465 0.788189 3.15276
9280 2 9.45827 1.57638 3.15276
9312 2 7.88189 3.15276 3.15276
9314 2 9.45827 3.15276 3.15276
14 4 11.0346 0 0
15 4 11.8228 0 0.788189
16 4 11.0346 0.788189 0.788189
17 4 12.611 0 0
18 4 13.3992 0.788189 0
19 4 13.3992 0 0.788189
52 4 11.0346 2.36457 0.788189
53 4 12.611 1.57638 0
54 4 13.3992 2.36457 0
55 4 13.3992 1.57638 0.788189
56 4 12.611 2.36457 0.788189
57 4 14.1874 1.57638 0
59 4 14.1874 2.36457 0.788189
84 4 13.3992 3.15276 0.788189
534 4 11.0346 0 1.57638
535 4 11.0346 0.788189 2.36457
536 4 12.611 0 1.57638
537 4 13.3992 0.788189 1.57638
538 4 13.3992 0 2.36457
539 4 12.611 0.788189 2.36457
571 4 12.611 1.57638 1.57638
572 4 13.3992 2.36457 1.57638
573 4 13.3992 1.57638 2.36457
574 4 12.611 2.36457 2.36457
575 4 14.1874 1.57638 1.57638
577 4 14.1874 2.36457 2.36457
598 4 11.0346 3.15276 1.57638
600 4 11.8228 3.15276 2.36457
603 4 14.1874 3.15276 1.57638
1051 4 11.8228 0.788189 3.15276
1053 4 12.611 0 3.15276
1054 4 13.3992 0.788189 3.15276
1087 4 11.0346 1.57638 3.15276
1088 4 11.8228 2.36457 3.15276
1090 4 13.3992 2.36457 3.15276
1092 4 14.1874 1.57638 3.15276
1120 4 14.1874 3.15276 3.15276
8207 2 11.0346 0 0
8208 2 11.8228 0 0.788189
8209 2 13.3992 0.788189 0
8212 2 14.1874 0.788189 0.788189
8236 2 11.0346 1.57638 0
8237 2 11.0346 2.36457 0.788189
8238 2 12.611 1.57638 0
8239 2 13.3992 2.36457 0
8241 2 14.1874 2.36457 0.788189
8274 2 12.611 3.15276 0
8277 2 14.1874 3.15276 0
8746 2 11.0346 0 1.57638
8747 2 11.8228 0 2.36457
8748 2 12.611 0 1.57638
8749 2 12.611 0.788189 2.36457
8752 2 14.1874 0.788189 2.36457
8773 2 11.0346 1.57638 1.57638
8774 2 11.8228 1.57638 2.36457
8775 2 11.0346 2.36457 2.36457
8776 2 13.3992 2.36457 1.57638
8777 2 12.611 2.36457 2.36457
8778 2 14.1874 1.57638 1.57638
8804 2 11.0346 3.15276 1.57638
8806 2 13.3992 3.15276 2.36457
9249 2 12.611 0 3.15276
9250 2 13.3992 0.788189 3.15276
9252 2 14.1874 0 3.15276
9283 2 11.8228 2.36457 3.15276
9285 2 12.611 1.57638 3.15276
9286 2 13.3992 2.36457 3.15276
9317 2 11.0346 3.15276 3.15276
9321 2 14.1874 3.15276 3.15276
20 4 14.9756 0.788189 0
21 4 14.9756 0 0.788189
22 4 16.552 0.788189 0
23 4 17.3402 0 0
58 4 14.9756 2.36457 0
60 4 16.552 1.57638 0.788189
61 4 15.7638 2.36457 0.788189
87 4 16.552 3.15276 0.788189
540 4 15.7638 0 1.57638
541 4 17.3402 0 1.57638
576 4 14.9756 2.36457 1.57638
578 4 15.7638 2.36457 2.36457
581 4 17.3402 2.36457 2.36457
604 4 17.3402 3.15276 1.57638
1056 4 14.9756 0.788189 3.15276
1061 4 17.3402 0 3.15276
1093 4 14.9756 2.36457 3.15276
1095 4 17.3402 1.57638 3.15276
1125 4 17.3402 3.15276 3.15276
8210 2 14.9756 0.788189 0
8211 2 14.9756 0 0.788189
8213 2 15.7638 0 0
8214 2 16.552 0 0.788189
8215 2 15.7638 0.788189 0.788189
8217 2 17.3402 0.788189 0.788189
8240 2 14.9756 1.57638 0.788189
8242 2 16.552 1.57638 0.788189
8243 2 17.3402 1.57638 0
8279 2 14.9756 3.15276 0.788189
8281 2 15.7638 3.15276 0
8283 2 16.552 3.15276 0.788189
8750 2 14.9756 0.788189 1.57638
8751 2 14.9756 0 2.36457
8753 2 15.7638 0.788189 2.36457
8779 2 16.552 1.57638 2.36457
8780 2 15.7638 2.36457 2.36457
8782 2 17.3402 2.36457 2.36457
8810 2 16.552 3.15276 2.36457
8812 2 17.3402 3.15276 1.57638
9253 2 14.9756 0.788189 3.15276
9255 2 15.7638 0 3.15276
9289 2 15.7638 1.57638 3.15276
9290 2 16.552 2.36457 3.15276
9291 2 17.3402 1.57638 3.15276
9325 2 15.7638 3.15276 3.15276
24 4 18.1283 0.788189 0
25 4 19.7047 0.788189 0
26 4 21.2811 0.788189 0
62 4 18.1283 1.57638 0.788189
63 4 18.9165 1.57638 0
64 4 19.7047 2.36457 0
65 4 19.7047 1.57638 0.788189
66 4 21.2811 2.36457 0
67 4 21.2811 1.57638 0.788189
89 4 18.1283 3.15276 0.788189
542 4 18.1283 0.788189 1.57638
543 4 19.7047 0.788189 1.57638
544 4 19.7047 0 2.36457
545 4 18.9165 0.788189 2.36457
546 4 20.4929 0 1.57638
547 4 21.2811 0.788189 1.57638
548 4 21.2811 0 2.36457
549 4 20.4929 0.788189 2.36457
579 4 18.1283 2.36457 1.57638
580 4 18.1283 1.57638 2.36457
582 4 19.7047 2.36457 1.57638
583 4 20.4929 1.57638 1.57638
584 4 21.2811 2.36457 1.57638
606 4 21.2811 3.15276 2.36457
1062 4 18.1283 0.788189 3.15276
1065 4 18.9165 0 3.15276
1067 4 20.4929 0 3.15276
1096 4 18.1283 2.36457 3.15276
1097 4 19.7047 2.36457 3.15276
1099 4 20.4929 1.57638 3.15276
1100 4 21.2811 2.36457 3.15276
1128 4 18.9165 3.15276 3.15276
8216 2 18.1283 0.788189 0
8218 2 18.9165 0 0
8219 2 19.7047 0.788189 0
8220 2 18.9165 0.788189 0.788189
8221 2 20.4929 0 0
8222 2 21.2811 0 0.788189
8223 2 20.4929 0.788189 0.788189
8244 2 18.1283 2.36457 0
8245 2 18.9165 1.57638 0
8246 2 19.7047 1.57638 0.788189
8247 2 20.4929 1.57638 0
8248 2 21.2811 2.36457 0
8249 2 21.2811 1.57638 0.788189
8250 2 20.4929 2.36457 0.788189
8285 2 18.9165 3.15276 0
8287 2 21.2811 3.15276 0.788189
8754 2 18.1283 0.788189 1.57638
8755 2 18.1283 0 2.36457
8756 2 18.9165 0.788189 2.36457
8757 2 20.4929 0 1.57638
8758 2 21.2811 0 2.36457
8781 2 18.1283 1.57638 2.36457
8783 2 18.9165 1.57638 1.57638
8784 2 19.7047 2.36457 1.57638
8785 2 18.9165 2.36457 2.36457
8786 2 20.4929 2.36457 2.36457
8814 2 18.1283 3.15276 2.36457
8816 2 18.9165 3.15276 1.57638
8818 2 19.7047 3.15276 2.36457
8820 2 21.2811 3.15276 2.36457
9258 2 19.7047 0.788189 3.15276
9293 2 20.4929 1.57638 3.15276
9332 2 20.4929 3.15276 3.15276
27 4 22.0693 0 0
28 4 22.8575 0 0.788189
29 4 22.0693 0.788189 0.788189
30 4 23.6457 0 0
31 4 24.4339 0.788189 0
68 4 22.0693 1.57638 0
69 4 22.8575 2.36457 0
70 4 23.6457 1.57638 0
71 4 24.4339 2.36457 0
72 4 23.6457 2.36457 0.788189
94 4 22.0693 3.15276 0
95 4 23.6457 3.15276 0
550 4 22.0693 0.788189 2.36457
551 4 23.6457 0 1.57638
552 4 23.6457 0.788189 2.36457
585 4 22.8575 1.57638 2.36457
586 4 24.4339 2.36457 1.57638
609 4 23.6457 3.15276 1.57638
1069 4 22.8575 0.788189 3.15276
1070 4 23.6457 0 3.15276
1071 4 24.4339 0.788189 3.15276
1102 4 22.8575 2.36457 3.15276
1103 4 24.4339 2.36457 3.15276
1133 4 22.0693 3.15276 3.15276
8224 2 22.8575 0 0.788189
8225 2 23.6457 0 0
8251 2 22.0693 1.57638 0
8252 2 23.6457 1.57638 0
8253 2 24.4339 2.36457 0
8254 2 24.4339 1.57638 0.788189
8255 2 23.6457 2.36457 0.788189
8289 2 22.0693 3.15276 0
8292 2 23.6457 3.15276 0
8759 2 24.4339 0.788189 1.57638
8787 2 22.0693 1.57638 1.57638
8788 2 22.8575 1.57638 2.36457
8789 2 24.4339 2.36457 1.57638
8823 2 24.4339 3.15276 2.36457
9261 2 22.0693 0 3.15276
9262 2 22.8575 0.788189 3.15276
9264 2 24.4339 0.788189 3.15276
9294 2 22.0693 1.57638 3.15276
9295 2 22.8575 2.36457 3.15276
9298 2 23.6457 1.57638 3.15276
9299 2 24.4339 2.36457 3.15276
9335 2 23.6457 3.15276 3.15276
75 4 1.57638 3.94094 0.788189
98 4 0.788189 5.51732 0
99 4 0.788189 4.72913 0.788189
100 4 0 5.51732 0.788189
101 4 1.57638 4.72913 0
102 4 2.36457 5.51732 0
103 4 2.36457 4.72913 0.788189
104 4 3.15276 4.72913 0
132 4 0.788189 7.0937 0
133 4 2.36457 7.0937 0
588 4 0.788189 3.94094 1.57638
590 4 2.36457 3.94094 1.57638
591 4 1.57638 3.94094 2.36457
611 4 0 5.51732 2.36457
612 4 2.36457 5.51732 1.57638
613 4 3.15276 4.72913 1.57638
615 4 3.15276 5.51732 2.36457
640 4 0.788189 7.0937 1.57638
641 4 0.788189 6.30551 2.36457
642 4 0 7.0937 2.36457
643 4 2.36457 6.30551 2.36457
1106 4 2.36457 3.94094 3.15276
1138 4 1.57638 4.72913 3.15276
1140 4 3.15276 4.72913 3.15276
1169 4 1.57638 6.30551 3.15276
1170 4 2.36457 7.0937 3.15276
1171 4 3.15276 6.30551 3.15276
8257 2 0 3.94094 0.788189
8259 2 2.36457 3.94094 0
8262 2 3.15276 3.94094 0.788189
8295 2 0 4.72913 0
8296 2 1.57638 4.72913 0
8297 2 2.36457 5.51732 0
8298 2 2.36457 4.72913 0.788189
8299 2 3.15276 4.72913 0
8326 2 0.788189 7.0937 0
8327 2 0.788189 6.30551 0.788189
8328 2 0 7.0937 0.788189
8329 2 1.57638 6.30551 0
8330 2 2.36457 7.0937 0
8331 2 2.36457 6.30551 0.788189
8332 2 1.57638 7.0937 0.788189
8333 2 3.15276 6.30551 0
8335 2 3.15276 7.0937 0.788189
8792 2 0 3.94094 2.36457
8794 2 2.36457 3.94094 1.57638
8795 2 1.57638 3.94094 2.36457
8797 2 3.15276 3.94094 2.36457
8824 2 0 4.72913 1.57638
8825 2 0.788189 5.51732 1.57638
8826 2 1.57638 4.72913 1.57638
8827 2 3.15276 4.72913 1.57638
8852 2 0 6.30551 1.57638
8853 2 0.788189 7.0937 1.57638
8854 2 0.788189 6.30551 2.36457
8855 2 0 7.0937 2.36457
8856 2 1.57638 6.30551 1.57638
8857 2 2.36457 7.0937 1.57638
8858 2 2.36457 6.30551 2.36457
8859 2 1.57638 7.0937 2.36457
8861 2 3.15276 7.0937 2.36457
9302 2 0.788189 3.94094 3.15276
9339 2 0 4.72913 3.15276
9340 2 0.788189 5.51732 3.15276
9342 2 1.57638 4.72913 3.15276
9343 2 3.15276 4.72913 3.15276
9377 2 0 6.30551 3.15276
9378 2 1.57638 6.30551 3.15276
9379 2 2.36457 7.0937 3.15276
9382 2 3.15276 6.30551 3.15276
105 4 3.94094 4.72913 0.788189
106 4 5.51732 5.51732 0
107 4 5.51732 4.72913 0.788189
134 4 3.94094 6.30551 0.788189
135 4 4.72913 7.0937 0.788189
136 4 6.30551 7.0937 0.788189
614 4 3.94094 5.51732 1.57638
616 4 5.51732 5.51732 1.57638
617 4 4.72913 5.51732 2.36457
644 4 5.51732 6.30551 2.36457
645 4 4.72913 7.0937 2.36457
646 4 7.0937 6.30551 2.36457
647 4 6.30551 7.0937 2.36457
1111 4 7.0937 3.94094 3.15276
1141 4 3.94094 5.51732 3.15276
1142 4 4.72913 4.72913 3.15276
1144 4 6.30551 4.72913 3.15276
1145 4 7.0937 5.51732 3.15276
1172 4 3.94094 7.0937 3.15276
1175 4 4.72913 6.30551 3.15276
1178 4 6.30551 6.30551 3.15276
1179 4 7.0937 7.0937 3.15276
8264 2 4.72913 3.94094 0.788189
8266 2 7.0937 3.94094 0
8300 2 3.94094 5.51732 0
8301 2 4.72913 4.72913 0
8302 2 5.51732 5.51732 0
8303 2 4.72913 5.51732 0.788189
8304 2 7.0937 5.51732 0
8305 2 7.0937 4.72913 0.788189
8334 2 3.94094 7.0937 0
8336 2 5.51732 7.0937 0
8337 2 7.0937 7.0937 0
8338 2 7.0937 6.30551 0.788189
8339 2 6.30551 7.0937 0.788189
8798 2 5.51732 3.94094 1.57638
8799 2 4.72913 3.94094 2.36457
8800 2 6.30551 3.94094 2.36457
8828 2 3.94094 5.51732 1.57638
8829 2 5.51732 5.51732 1.57638
8830 2 4.72913 5.51732 2.36457
8831 2 6.30551 4.72913 1.57638
8832 2 6.30551 5.51732 2.36457
8860 2 3.94094 7.0937 1.57638
8862 2 4.72913 7.0937 2.36457
8863 2 7.0937 7.0937 1.57638
9306 2 5.51732 3.94094 3.15276
9310 2 7.0937 3.94094 3.15276
9344 2 3.94094 5.51732 3.15276
9347 2 4.72913 4.72913 3.15276
9348 2 5.51732 5.51732 3.15276
9383 2 3.94094 7.0937 3.15276
9386 2 4.72913 6.30551 3.15276
79 4 8.67008 3.94094 0
108 4 7.88189 4.72913 0
109 4 8.67008 5.51732 0
110 4 8.67008 4.72913 0.788189
111 4 9.45827 4.72913 0
112 4 10.2465 4.72913 0.788189
113 4 9.45827 5.51732 0.788189
137 4 7.88189 6.30551 0
138 4 8.67008 7.0937 0
139 4 9.45827 6.30551 0
140 4 10.2465 7.0937 0
595 4 8.67008 3.94094 1.57638
618 4 7.88189 4.72913 1.57638
619 4 8.67008 4.72913 2.36457
620 4 10.2465 5.51732 1.57638
648 4 8.67008 6.30551 2.36457
649 4 7.88189 7.0937 2.36457
650 4 10.2465 6.30551 2.36457
651 4 9.45827 7.0937 2.36457
1115 4 10.2465 3.94094 3.15276
1146 4 7.88189 4.72913 3.15276
1148 4 9.45827 4.72913 3.15276
1183 4 10.2465 7.0937 3.15276
8269 2 8.67008 3.94094 0
8271 2 10.2465 3.94094 0
8272 2 9.45827 3.94094 0.788189
8306 2 8.67008 5.51732 0
8307 2 10.2465 5.51732 0
8308 2 9.45827 5.51732 0.788189
8340 2 7.88189 6.30551 0
8341 2 8.67008 6.30551 0.788189
8342 2 7.88189 7.0937 0.788189
8343 2 10.2465 7.0937 0
8344 2 10.2465 6.30551 0.788189
8345 2 9.45827 7.0937 0.788189
8801 2 8.67008 3.94094 1.57638
8803 2 9.45827 3.94094 2.36457
8833 2 10.2465 5.51732 1.57638
8864 2 7.88189 6.30551 1.57638
8865 2 8.67008 6.30551 2.36457
8866 2 9.45827 6.30551 1.57638
8867 2 10.2465 7.0937 1.57638
9313 2 8.67008 3.94094 3.15276
9353 2 9.45827 4.72913 3.15276
9354 2 10.2465 5.51732 3.15276
9389 2 8.67008 7.0937 3.15276
9391 2 9.45827 6.30551 3.15276
9392 2 10.2465 7.0937 3.15276
83 4 11.0346 3.94094 0.788189
86 4 14.1874 3.94094 0.788189
114 4 11.0346 4.72913 0
115 4 11.8228 5.51732 0
116 4 11.8228 4.72913 0.788189
117 4 11.0346 5.51732 0.788189
118 4 12.611 5.51732 0.788189
119 4 14.1874 4.72913 0
122 4 14.1874 5.51732 0.788189
141 4 11.8228 7.0937 0
142 4 11.0346 7.0937 0.788189
143 4 13.3992 6.30551 0.788189
144 4 12.611 7.0937 0.788189
147 4 14.1874 7.0937 0.788189
599 4 11.8228 3.94094 1.57638
601 4 13.3992 3.94094 1.57638
602 4 12.611 3.94094 2.36457
621 4 11.8228 5.51732 1.57638
622 4 11.0346 5.51732 2.36457
623 4 12.611 4.72913 1.57638
624 4 13.3992 5.51732 1.57638
625 4 12.611 5.51732 2.36457
626 4 14.1874 4.72913 1.57638
652 4 11.8228 7.0937 1.57638
653 4 11.0346 7.0937 2.36457
654 4 12.611 6.30551 1.57638
655 4 13.3992 7.0937 1.57638
656 4 13.3992 6.30551 2.36457
657 4 14.1874 6.30551 1.57638
1149 4 11.0346 4.72913 3.15276
1152 4 13.3992 5.51732 3.15276
1186 4 11.8228 7.0937 3.15276
1188 4 12.611 6.30551 3.15276
1189 4 13.3992 7.0937 3.15276
1191 4 14.1874 6.30551 3.15276
8273 2 11.0346 3.94094 0.788189
8275 2 13.3992 3.94094 0
8276 2 12.611 3.94094 0.788189
8280 2 14.1874 3.94094 0.788189
8309 2 11.0346 4.72913 0
8310 2 11.8228 4.72913 0.788189
8311 2 11.0346 5.51732 0.788189
8312 2 12.611 4.72913 0
8313 2 13.3992 5.51732 0
8314 2 14.1874 4.72913 0
8346 2 11.0346 7.0937 0.788189
8347 2 13.3992 7.0937 0
8348 2 12.611 7.0937 0.788189
8350 2 14.1874 7.0937 0.788189
8805 2 13.3992 3.94094 1.57638
8807 2 12.611 3.94094 2.36457
8808 2 14.1874 3.94094 2.36457
8834 2 11.8228 5.51732 1.57638
8835 2 12.611 4.72913 1.57638
8836 2 13.3992 5.51732 1.57638
8837 2 12.611 5.51732 2.36457
8868 2 11.0346 6.30551 1.57638
8869 2 11.8228 7.0937 1.57638
8870 2 13.3992 7.0937 1.57638
8873 2 14.1874 7.0937 2.36457
9318 2 11.8228 3.94094 3.15276
9319 2 13.3992 3.94094 3.15276
9356 2 11.0346 4.72913 3.15276
9357 2 11.8228 5.51732 3.15276
9360 2 14.1874 4.72913 3.15276
9393 2 11.0346 6.30551 3.15276
9395 2 12.611 6.30551 3.15276
85 4 14.9756 3.94094 0
88 4 15.7638 3.94094 0.788189
90 4 17.3402 3.94094 0.788189
120 4 14.9756 5.51732 0
121 4 14.9756 4.72913 0.788189
123 4 15.7638 4.72913 0
124 4 16.552 4.72913 0.788189
145 4 14.9756 7.0937 0
146 4 14.9756 6.30551 0.788189
148 4 15.7638 6.30551 0
149 4 16.552 7.0937 0
150 4 15.7638 7.0937 0.788189
627 4 14.9756 4.72913 2.36457
628 4 15.7638 4.72913 1.57638
629 4 16.552 5.51732 1.57638
630 4 15.7638 5.51732 2.36457
632 4 17.3402 5.51732 2.36457
658 4 14.9756 7.0937 1.57638
659 4 16.552 7.0937 1.57638
660 4 17.3402 6.30551 1.57638
1192 4 14.9756 7.0937 3.15276
1194 4 15.7638 6.30551 3.15276
1195 4 16.552 7.0937 3.15276
8278 2 14.9756 3.94094 0
8282 2 16.552 3.94094 0
8315 2 14.9756 4.72913 0.788189
8316 2 15.7638 4.72913 0
8317 2 17.3402 4.72913 0
8318 2 17.3402 5.51732 0.788189
8349 2 14.9756 6.30551 0.788189
8351 2 16.552 7.0937 0
8352 2 15.7638 7.0937 0.788189
8353 2 17.3402 6.30551 0
8355 2 17.3402 7.0937 0.788189
8809 2 16.552 3.94094 1.57638
8811 2 15.7638 3.94094 2.36457
8815 2 17.3402 3.94094 2.36457
8838 2 14.9756 5.51732 1.57638
8839 2 15.7638 4.72913 1.57638
8840 2 16.552 5.51732 1.57638
8841 2 16.552 4.72913 2.36457
8842 2 15.7638 5.51732 2.36457
8844 2 17.3402 5.51732 2.36457
8871 2 14.9756 7.0937 1.57638
8872 2 14.9756 6.30551 2.36457
8874 2 16.552 7.0937 1.57638
8875 2 16.552 6.30551 2.36457
8876 2 15.7638 7.0937 2.36457
9322 2 14.9756 3.94094 3.15276
9326 2 16.552 3.94094 3.15276
9361 2 14.9756 5.51732 3.15276
9364 2 15.7638 4.72913 3.15276
9365 2 16.552 5.51732 3.15276
9367 2 17.3402 4.72913 3.15276
9396 2 14.9756 7.0937 3.15276
9398 2 16.552 7.0937 3.15276
9401 2 17.3402 6.30551 3.15276
91 4 19.7047 3.94094 0
92 4 18.9165 3.94094 0.788189
93 4 20.4929 3.94094 0.788189
125 4 19.7047 5.51732 0
126 4 19.7047 4.72913 0.788189
127 4 18.9165 5.51732 0.788189
128 4 20.4929 4.72913 0
129 4 21.2811 4.72913 0.788189
151 4 18.1283 7.0937 0
152 4 18.9165 6.30551 0
153 4 19.7047 7.0937 0
154 4 18.9165 7.0937 0.788189
155 4 20.4929 6.30551 0
156 4 21.2811 6.30551 0.788189
157 4 20.4929 7.0937 0.788189
605 4 18.9165 3.94094 2.36457
607 4 20.4929 3.94094 2.36457
631 4 18.1283 4.72913 2.36457
633 4 18.9165 4.72913 1.57638
634 4 20.4929 5.51732 2.36457
661 4 18.1283 7.0937 1.57638
662 4 18.9165 6.30551 1.57638
663 4 19.7047 7.0937 1.57638
664 4 20.4929 6.30551 1.57638
665 4 21.2811 6.30551 2.36457
666 4 20.4929 7.0937 2.36457
1126 4 18.1283 3.94094 3.15276
1130 4 21.2811 3.94094 3.15276
1156 4 18.1283 5.51732 3.15276
1158 4 18.9165 4.72913 3.15276
1160 4 21.2811 5.51732 3.15276
1198 4 18.1283 7.0937 3.15276
1199 4 20.4929 6.30551 3.15276
8284 2 18.1283 3.94094 0
8286 2 21.2811 3.94094 0
8288 2 20.4929 3.94094 0.788189
8319 2 21.2811 4.72913 0.788189
8320 2 20.4929 5.51732 0.788189
8354 2 18.1283 6.30551 0.788189
8356 2 18.9165 6.30551 0
8357 2 19.7047 6.30551 0.788189
8358 2 18.9165 7.0937 0.788189
8359 2 21.2811 6.30551 0.788189
8360 2 20.4929 7.0937 0.788189
8813 2 18.1283 3.94094 1.57638
8817 2 19.7047 3.94094 1.57638
8819 2 18.9165 3.94094 2.36457
8843 2 18.1283 5.51732 1.57638
8845 2 18.9165 5.51732 2.36457
8846 2 20.4929 5.51732 2.36457
8877 2 19.7047 6.30551 2.36457
8878 2 20.4929 6.30551 1.57638
9329 2 19.7047 3.94094 3.15276
9369 2 18.9165 4.72913 3.15276
9370 2 21.2811 5.51732 3.15276
9403 2 20.4929 6.30551 3.15276
96 4 24.4339 3.94094 0
97 4 23.6457 3.94094 0.788189
130 4 22.0693 4.72913 0
131 4 24.4339 5.51732 0
158 4 22.0693 6.30551 0
159 4 23.6457 7.0937 0.788189
608 4 22.0693 3.94094 2.36457
610 4 24.4339 3.94094 1.57638
635 4 22.8575 5.51732 1.57638
636 4 22.0693 5.51732 2.36457
637 4 23.6457 4.72913 1.57638
638 4 24.4339 4.72913 2.36457
639 4 23.6457 5.51732 2.36457
667 4 22.0693 6.30551 1.57638
668 4 22.8575 7.0937 1.57638
669 4 22.8575 6.30551 2.36457
670 4 24.4339 6.30551 2.36457
671 4 23.6457 7.0937 2.36457
1136 4 24.4339 3.94094 3.15276
1161 4 22.0693 4.72913 3.15276
1162 4 22.8575 5.51732 3.15276
1164 4 23.6457 4.72913 3.15276
1165 4 24.4339 5.51732 3.15276
1201 4 22.0693 6.30551 3.15276
1203 4 23.6457 6.30551 3.15276
1204 4 24.4339 7.0937 3.15276
8290 2 22.8575 3.94094 0
8291 2 22.0693 3.94094 0.788189
8293 2 24.4339 3.94094 0
8294 2 23.6457 3.94094 0.788189
8321 2 22.0693 4.72913 0
8322 2 22.0693 5.51732 0.788189
8323 2 23.6457 4.72913 0
8324 2 24.4339 5.51732 0
8325 2 23.6457 5.51732 0.788189
8361 2 22.8575 7.0937 0
8362 2 23.6457 6.30551 0
8363 2 24.4339 7.0937 0
8364 2 24.4339 6.30551 0.788189
8365 2 23.6457 7.0937 0.788189
8821 2 22.0693 3.94094 2.36457
8822 2 24.4339 3.94094 1.57638
8847 2 22.0693 4.72913 1.57638
8848 2 22.8575 5.51732 1.57638
8849 2 22.8575 4.72913 2.36457
8850 2 22.0693 5.51732 2.36457
8851 2 24.4339 5.51732 1.57638
8879 2 24.4339 6.30551 2.36457
9336 2 24.4339 3.94094 3.15276
9372 2 22.0693 4.72913 3.15276
9373 2 22.8575 5.51732 3.15276
9375 2 23.6457 4.72913 3.15276
9405 2 22.0693 6.30551 3.15276
9406 2 22.8575 7.0937 3.15276
9409 2 24.4339 7.0937 3.15276
160 4 0 7.88189 0
161 4 0.788189 8.67008 0
162 4 0.788189 7.88189 0.788189
163 4 0 8.67008 0.788189
164 4 1.57638 7.88189 0
165 4 2.36457 7.88189 0.788189
168 4 3.15276 8.67008 0.788189
193 4 0.788189 10.2465 0
194 4 0.788189 9.45827 0.788189
195 4 0 10.2465 0.788189
196 4 1.57638 9.45827 0
197 4 2.36457 10.2465 0
198 4 3.15276 9.45827 0
201 4 3.15276 10.2465 0.788189
672 4 0 7.88189 1.57638
673 4 0.788189 7.88189 2.36457
674 4 0 8.67008 2.36457
675 4 1.57638 7.88189 1.57638
676 4 2.36457 8.67008 1.57638
677 4 2.36457 7.88189 2.36457
678 4 1.57638 8.67008 2.36457
679 4 3.15276 7.88189 1.57638
711 4 0 9.45827 1.57638
712 4 0.788189 10.2465 1.57638
713 4 1.57638 9.45827 1.57638
714 4 1.57638 10.2465 2.36457
717 4 3.15276 10.2465 2.36457
1207 4 0 7.88189 3.15276
1208 4 0.788189 8.67008 3.15276
1243 4 1.57638 9.45827 3.15276
8366 2 0 7.88189 0
8367 2 0.788189 8.67008 0
8368 2 0.788189 7.88189 0.788189
8369 2 0 8.67008 0.788189
8370 2 1.57638 7.88189 0
8371 2 2.36457 8.67008 0
8372 2 2.36457 7.88189 0.788189
8373 2 1.57638 8.67008 0.788189
8374 2 3.15276 7.88189 0
8404 2 1.57638 9.45827 0
8405 2 1.57638 10.2465 0.788189
8406 2 3.15276 9.45827 0
8880 2 0 7.88189 1.57638
8881 2 0.788189 7.88189 2.36457
8882 2 0 8.67008 2.36457
8883 2 1.57638 7.88189 1.57638
8884 2 2.36457 8.67008 1.57638
8885 2 2.36457 7.88189 2.36457
8886 2 3.15276 7.88189 1.57638
8918 2 0 9.45827 1.57638
8919 2 0.788189 10.2465 1.57638
8920 2 1.57638 9.45827 1.57638
8921 2 2.36457 10.2465 1.57638
8922 2 2.36457 9.45827 2.36457
8923 2 3.15276 9.45827 1.57638
9412 2 0 7.88189 3.15276
9413 2 0.788189 8.67008 3.15276
9416 2 1.57638 7.88189 3.15276
9417 2 2.36457 8.67008 3.15276
9420 2 3.15276 7.88189 3.15276
9446 2 1.57638 9.45827 3.15276
9447 2 3.15276 9.45827 3.15276
166 4 3.94094 8.67008 0
167 4 3.94094 7.88189 0.788189
169 4 5.51732 7.88189 0.788189
170 4 4.72913 8.67008 0.788189
171 4 6.30551 7.88189 0
172 4 7.0937 8.67008 0
173 4 7.0937 7.88189 0.788189
174 4 6.30551 8.67008 0.788189
199 4 3.94094 10.2465 0
200 4 3.94094 9.45827 0.788189
202 4 4.72913 9.45827 0
203 4 5.51732 10.2465 0
204 4 5.51732 9.45827 0.788189
205 4 7.0937 10.2465 0
206 4 7.0937 9.45827 0.788189
680 4 3.94094 8.67008 1.57638
681 4 3.94094 7.88189 2.36457
682 4 4.72913 7.88189 1.57638
683 4 5.51732 8.67008 1.57638
684 4 4.72913 8.67008 2.36457
685 4 6.30551 7.88189 1.57638
686 4 7.0937 8.67008 1.57638
687 4 7.0937 7.88189 2.36457
715 4 3.94094 10.2465 1.57638
716 4 3.94094 9.45827 2.36457
718 4 4.72913 9.45827 1.57638
719 4 5.51732 10.2465 1.57638
720 4 4.72913 10.2465 2.36457
721 4 6.30551 9.45827 1.57638
722 4 6.30551 10.2465 2.36457
1211 4 3.94094 8.67008 3.15276
1212 4 4.72913 7.88189 3.15276
1213 4 5.51732 8.67008 3.15276
1214 4 6.30551 7.88189 3.15276
1215 4 7.0937 8.67008 3.15276
1247 4 4.72913 9.45827 3.15276
1248 4 5.51732 10.2465 3.15276
1251 4 6.30551 9.45827 3.15276
1252 4 7.0937 10.2465 3.15276
8375 2 3.94094 8.67008 0
8376 2 5.51732 8.67008 0
8377 2 5.51732 7.88189 0.788189
8378 2 6.30551 7.88189 0
8379 2 7.0937 8.67008 0
8380 2 7.0937 7.88189 0.788189
8381 2 6.30551 8.67008 0.788189
8407 2 3.94094 10.2465 0
8408 2 4.72913 9.45827 0
8409 2 4.72913 10.2465 0.788189
8410 2 6.30551 9.45827 0
8411 2 7.0937 10.2465 0
8412 2 6.30551 10.2465 0.788189
8887 2 3.94094 8.67008 1.57638
8888 2 5.51732 8.67008 1.57638
8889 2 4.72913 8.67008 2.36457
8890 2 6.30551 7.88189 1.57638
8891 2 7.0937 8.67008 1.57638
8924 2 3.94094 10.2465 1.57638
8925 2 3.94094 9.45827 2.36457
8926 2 4.72913 9.45827 1.57638
8927 2 5.51732 10.2465 1.57638
8928 2 6.30551 9.45827 1.57638
8929 2 7.0937 9.45827 2.36457
9421 2 3.94094 8.67008 3.15276
9422 2 4.72913 7.88189 3.15276
9423 2 5.51732 8.67008 3.15276
9425 2 6.30551 7.88189 3.15276
9426 2 7.0937 8.67008 3.15276
9448 2 3.94094 10.2465 3.15276
9451 2 4.72913 9.45827 3.15276
9453 2 7.0937 10.2465 3.15276
175 4 7.88189 7.88189 0
176 4 7.88189 8.67008 0.788189
177 4 9.45827 7.88189 0
178 4 10.2465 8.67008 0
207 4 8.67008 10.2465 0
208 4 7.88189 10.2465 0.788189
209 4 9.45827 9.45827 0
210 4 10.2465 10.2465 0
688 4 7.88189 7.88189 1.57638
689 4 8.67008 8.67008 1.57638
690 4 8.67008 7.88189 2.36457
691 4 10.2465 8.67008 1.57638
692 4 10.2465 7.88189 2.36457
693 4 9.45827 8.67008 2.36457
723 4 8.67008 10.2465 1.57638
724 4 8.67008 9.45827 2.36457
725 4 10.2465 9.45827 2.36457
726 4 9.45827 10.2465 2.36457
1219 4 9.45827 7.88189 3.15276
1220 4 10.2465 8.67008 3.15276
1254 4 7.88189 9.45827 3.15276
1255 4 8.67008 10.2465 3.15276
1257 4 9.45827 9.45827 3.15276
1258 4 10.2465 10.2465 3.15276
8382 2 8.67008 8.67008 0
8383 2 8.67008 7.88189 0.788189
8384 2 10.2465 8.67008 0
8385 2 10.2465 7.88189 0.788189
8413 2 7.88189 9.45827 0
8414 2 8.67008 9.45827 0.788189
8415 2 10.2465 10.2465 0
8416 2 10.2465 9.45827 0.788189
8892 2 8.67008 8.67008 1.57638
8893 2 8.67008 7.88189 2.36457
8894 2 9.45827 7.88189 1.57638
8895 2 10.2465 8.67008 1.57638
8896 2 9.45827 8.67008 2.36457
8930 2 8.67008 10.2465 1.57638
8931 2 8.67008 9.45827 2.36457
8932 2 9.45827 10.2465 2.36457
9454 2 7.88189 9.45827 3.15276
9455 2 8.67008 10.2465 3.15276
9456 2 9.45827 9.45827 3.15276
9457 2 10.2465 10.2465 3.15276
179 4 11.8228 8.67008 0
180 4 14.1874 7.88189 0
182 4 14.1874 8.67008 0.788189
211 4 11.8228 10.2465 0
212 4 12.611 9.45827 0
213 4 13.3992 10.2465 0
214 4 13.3992 9.45827 0.788189
215 4 12.611 10.2465 0.788189
694 4 13.3992 7.88189 2.36457
695 4 12.611 8.67008 2.36457
727 4 11.8228 10.2465 1.57638
728 4 12.611 9.45827 1.57638
729 4 13.3992 10.2465 1.57638
730 4 13.3992 9.45827 2.36457
731 4 14.1874 9.45827 1.57638
733 4 14.1874 10.2465 2.36457
1222 4 11.0346 7.88189 3.15276
1223 4 11.8228 8.67008 3.15276
1261 4 13.3992 10.2465 3.15276
8386 2 11.0346 7.88189 0
8387 2 11.8228 8.67008 0
8388 2 12.611 8.67008 0.788189
8417 2 11.0346 9.45827 0
8418 2 11.8228 9.45827 0.788189
8419 2 12.611 9.45827 0
8420 2 13.3992 9.45827 0.788189
8421 2 14.1874 9.45827 0
8897 2 11.0346 7.88189 1.57638
8898 2 13.3992 8.67008 1.57638
8901 2 14.1874 8.67008 2.36457
8933 2 11.0346 9.45827 1.57638
8934 2 11.8228 10.2465 1.57638
8935 2 11.0346 10.2465 2.36457
8936 2 13.3992 10.2465 1.57638
8937 2 14.1874 9.45827 1.57638
8940 2 14.1874 10.2465 2.36457
9430 2 11.8228 8.67008 3.15276
9432 2 14.1874 7.88189 3.15276
9460 2 13.3992 10.2465 3.15276
9463 2 14.1874 9.45827 3.15276
181 4 14.9756 8.67008 0
183 4 15.7638 7.88189 0
184 4 17.3402 7.88189 0
185 4 17.3402 8.67008 0.788189
216 4 14.9756 10.2465 0
217 4 14.9756 9.45827 0.788189
218 4 15.7638 9.45827 0
219 4 16.552 9.45827 0.788189