ITEM: TIMESTEP
0
ITEM: NUMBER OF ATOMS
50688
ITEM: BOX BOUNDS xy xz yz pp pp pp
-20.3679009 73.5741272 13.6612168
-22.2159996 65.355896 0.0
-22.2159996 65.355896 0.0
ITEM: ATOMS id type x y z VoronoiIndex1 VoronoiIndex2 VoronoiIndex3 VoronoiIndex4 VoronoiIndex5 VoronoiIndex6 VoronoiIndex7 VoronoiIndex8 VoronoiIndex9 AtomicVolume
9 1 -11.8199997 -11.9899998 4.0819998 0 0 0 3 8 2 0 0 0 11.3882237
25 2 7.4959998 19.3899994 18.1399994 0 0 0 0 12 0 0 0 0 11.1928349
35 2 20.8799992 15.1000004 -13.25 0 0 1 4 7 3 0 0 0 13.0051689
42 2 21.7399998 15.4799996 -9.1040001 0 0 0 2 8 2 0 0 0 11.2689762
57 5 5.4419999 -4.0279999 -19.5599995 0 0 0 1 10 2 0 0 0 11.3746615
71 2 2.945 17.7399998 -14.2200003 0 0 0 1 10 2 0 0 0 11.8451948
81 4 13.6999998 -3.445 -9.1149998 0 0 0 0 12 0 0 0 0 11.146142
82 5 -13.7200003 -13.5500002 -21.4599991 0 0 0 2 8 4 0 0 0 12.1269541
91 2 2.753 19.0400009 -10.1199999 0 0 0 2 10 2 0 0 0 11.8458996
101 1 -9.3409996 -18.2700005 -4.2620001 0 0 0 4 4 4 0 0 0 11.8054304
105 4 2.253 13.1599999 -16.1000004 0 0 0 2 8 3 0 0 0 11.8354492
110 5 -8.2939997 -16.6599999 2.5680001 0 0 0 1 10 4 0 0 0 12.7826567
112 2 10.5699997 -3.938 15.0600004 0 0 0 2 8 4 0 0 0 12.1014347
128 5 -14.5200005 -13.4799996 7.934 0 0 0 3 6 4 0 0 0 12.7399817
141 5 3.7160001 7.8639998 -9.5819998 0 0 0 3 6 6 0 0 0 12.4692946
147 5 11.4799996 -2.2360001 11.3999996 0 0 0 1 10 2 0 0 0 11.4592047
159 4 14.7100001 -2.7249999 15.54 0 0 0 3 8 3 0 0 0 12.2404652
165 1 21.1700001 -10.9200002 -14.8100004 0 0 0 0 12 0 0 0 0 10.7253714
168 5 3.902 -7.5489998 -14.96 0 0 0 0 12 0 0 0 0 11.5208102
171 2 -1.549 7.8200002 -10.0799999 0 0 0 3 6 4 0 0 0 11.6202803
174 4 -7.89 16.3700009 11.2600002 0 0 0 3 6 3 0 0 0 11.7077322
184 2 12.9499998 -1.291 13.0799999 0 0 0 2 8 4 0 0 0 11.7061558
186 5 13.2799997 12.4799996 -15.8999996 0 0 0 3 6 4 0 0 0 12.2185488
196 5 9.9890004 -7.6170001 -2.194 0 0 0 1 10 2 0 0 0 11.8552342
214 2 0.7110001 16.7000008 -18.1700001 0 0 0 3 6 5 0 0 0 12.5257015
217 2 -16.2800007 -6.9530002 19.8600006 0 0 0 2 8 2 0 0 0 11.0421219
243 4 2.602 1.999 14.2399998 0 0 0 3 6 6 0 0 0 12.2160082
244 5 10.5500002 -12.3100004 18.9799996 0 0 0 2 10 2 0 0 0 12.7862044
245 1 -10.04 4.1750002 -20.3500004 0 0 1 2 6 3 1 0 0 11.5498352
247 2 10.8800002 14.0100002 -4.9250002 0 0 0 1 10 2 0 0 0 11.9064722
254 2 -7.6149998 19.0100002 -7.8850002 0 0 2 4 1 4 3 0 0 11.3436871
273 4 19.3500004 -11.7200003 0.2508 0 0 0 2 10 2 0 0 0 13.0092678
275 4 14.9700004 -0.195 12.0100002 0 0 0 5 2 6 0 0 0 11.6094609
288 5 -11.9899998 14.4799996 21.2199993 0 0 0 3 9 3 1 0 0 13.912346
295 4 -3.708 3.9460002 -8.8850002 0 0 0 2 12 0 0 0 0 12.7827082
299 5 -0.0809 19.2600002 -18.6900006 0 0 0 0 12 3 0 0 0 12.8567858
300 2 18.0499992 -8.3649998 1.5880001 0 0 0 3 4 5 0 0 0 12.1473665
313 5 -1.436 -13.4899998 3.5639999 0 0 0 0 12 3 0 0 0 13.2001104
314 5 -17.4799996 -21.0200005 3.5409999 0 0 2 0 8 4 0 0 0 11.4959641
327 4 -2.1099999 -2.027 14.54 0 0 1 1 9 3 0 0 0 11.3258057
335 1 -9.6330004 17.7399998 -14.1400003 0 0 0 0 12 0 0 0 0 11.0378313
348 4 -8.5719996 3.846 12.1599999 0 0 0 2 8 2 0 0 0 11.852728
360 4 9.3870001 -20.8700008 -7.848 0 0 0 1 10 6 0 0 0 14.1563978
364 4 -7.3860002 5.448 -15.6199999 0 0 0 4 6 4 0 0 0 12.0390883
387 4 14.9799996 -11.5900002 0.8554 0 0 0 2 9 2 1 0 0 11.819953
397 1 -7.934 2.2950001 19.4200001 0 0 0 2 8 2 0 0 0 11.1678457
410 4 7.7150002 -3.622 7.6209998 0 0 0 2 10 2 0 0 0 12.6892224
412 1 -6.1420002 13.4300003 -6.0510001 0 0 0 5 4 3 1 0 0 11.6803084
415 2 -7.77 3.392 -12.3999996 0 0 0 3 6 4 0 0 0 12.3805447
419 2 5.1170001 -10.3999996 -11.1499996 0 0 0 1 10 2 0 0 0 11.5925923
420 5 9.323 -10.3400002 -10.9200002 0 0 0 2 8 4 0 0 0 12.4609261
432 5 4.3239999 9.9239998 8.1750002 0 0 0 1 12 1 0 0 0 12.8786106
438 4 -13.3400002 -19.25 16.4200001 0 0 0 2 8 4 0 0 0 12.1125107
439 4 -8.1470003 18.9300004 -15.5200005 0 0 0 3 6 4 0 0 0 11.8730412
442 4 5.6209998 17.7099991 -18.1700001 0 0 0 2 8 4 0 0 0 12.4267779
453 4 0.3796 1.994 7.7729998 0 0 1 5 6 2 1 0 0 13.2642346
459 4 -10.96 1.75 -20.8299999 0 0 0 2 8 4 0 0 0 12.2411347
465 3 19.0900002 -10.1899996 -15.5699997 0 0 0 1 10 2 0 0 0 11.8206196
477 5 -13.0799999 -5.4970002 -3.5060001 0 0 1 4 4 5 1 0 0 12.4827919
485 4 7.0949998 5.1139998 -15.6700001 0 0 0 0 12 2 0 0 0 12.2212362
515 5 -1.287 -13.1099997 16.8700008 0 0 0 1 10 4 0 0 0 12.4023972
520 5 4.3909998 -15.9300004 11.2399998 0 0 0 2 10 2 0 0 0 12.962739
533 4 10.5799999 5.6129999 -4.6069999 0 0 0 0 12 4 0 0 0 13.0096292
537 2 16.8799992 8.934 -9.3280001 0 0 0 2 8 2 0 0 0 11.069747
539 2 -7.5440002 7.415 -21.9300004 0 0 0 3 6 5 0 0 0 12.4307604
540 5 -9.7390003 -16.1700001 0.6882 0 0 0 0 12 0 0 0 0 10.7874756
550 4 7.6900001 -9.6619997 12.2100001 0 0 1 1 9 3 0 0 0 12.575965
557 2 -13.1000004 21.1200008 -9.2980003 0 0 0 1 10 2 0 0 0 11.7302637
562 2 2.737 -11.8100004 -21.8899994 0 0 2 2 4 4 2 0 0 12.2099934
564 4 12.9200002 -0.1046 18.2099991 0 0 0 6 3 5 1 0 0 12.8272476
567 4 6.0209999 -13.3299999 20.8600006 0 0 0 0 12 0 0 0 0 10.8318501
574 5 15.8800002 -16.3400002 -12.8800002 0 0 0 1 10 3 0 0 0 12.533062
580 2 15.79 -15.3000002 -10.6800003 0 0 0 3 5 3 1 0 0 11.7743435
585 4 11.2799997 -8.6949997 -12.0 0 0 0 3 6 7 0 0 0 12.8146458
603 5 -10.9499998 -17.9799996 -0.4326 0 0 0 0 12 0 0 0 0 11.7046891
620 4 2.4879999 17.5 8.0939999 0 0 1 1 9 4 0 0 0 12.4640112
622 5 1.406 -3.8940002 5.421 0 0 0 0 12 2 0 0 0 11.8417826
642 4 -5.164 3.972 -20.0599995 0 0 0 2 8 5 0 0 0 12.8768196
643 5 14.9200002 0.3488 -17.4799996 0 0 0 2 6 4 0 0 0 11.5035897
650 2 16.5900002 -12.5799999 17.2700005 0 0 0 0 12 0 0 0 0 11.5820904
653 4 -0.7639 -15.9300004 3.333 0 0 0 1 10 6 0 0 0 13.9283772
654 4 0.8785 -7.797 -0.5537 0 0 0 0 12 2 0 0 0 12.2833843
656 4 5.52 -13.5699997 15.1000004 0 0 0 1 10 2 0 0 0 12.1192331
666 4 -11.1300001 -10.2600002 -0.06107 0 0 0 0 12 0 0 0 0 11.5349989
671 2 18.0499992 -0.4675 17.3099995 0 0 0 0 10 2 0 0 0 11.7430926
673 2 9.9989996 6.171 12.5299998 0 0 0 0 12 0 0 0 0 11.5850106
679 4 9.7679997 14.2700005 17.6200009 0 0 0 0 12 0 0 0 0 11.3510065
683 5 -6.3140001 11.6999998 19.2099991 0 0 2 3 5 2 3 0 0 12.7187443
687 5 13.8599998 -10.1000004 19.8700008 0 0 0 2 8 3 0 0 0 12.1904602
716 4 1.261 5.336 4.395 0 0 0 3 6 4 0 0 0 11.5374041
717 4 5.052 -19.6700001 1.921 0 0 1 3 5 6 0 0 0 12.5323677
728 5 5.2709999 1.18 3.886 0 0 0 1 12 2 0 0 0 12.7872229
740 2 21.2099991 4.5960002 17.8099995 0 0 0 2 8 3 0 0 0 12.1203613
745 4 0.07527 -14.8800002 -17.6599999 0 0 0 1 10 2 0 0 0 11.8601618
761 5 -4.0830002 13.6800003 -11.8199997 0 0 2 3 5 3 1 1 0 12.6530838
775 2 -3.6530001 -12.6599999 21.3999996 0 0 0 1 10 2 0 0 0 11.574565
776 4 19.0799999 6.941 4.7610002 0 0 0 0 12 0 0 0 0 11.6217051
781 4 -8.1960001 -18.3700009 -11.5100003 0 0 0 3 7 4 0 0 0 13.0113068
798 5 -6.901 20.3099995 -3.6459999 0 0 0 1 10 2 0 0 0 11.7423134
806 4 -7.3350001 5.3920002 16.9200002 0 0 0 2 9 3 1 0 0 12.7671147
841 5 -10.4799996 21.5200005 -12.54 0 0 0 3 6 6 0 0 0 12.8728534
843 2 2.929 -2.5620001 -8.1859999 0 0 0 2 8 2 0 0 0 11.4458237
846 3 17.4599991 -14.6300001 -14.3699999 0 0 0 1 10 2 0 0 0 11.8121767
860 4 23.4500008 2.309 14.1999998 0 0 0 2 8 4 0 0 0 11.369196
864 2 5.4429999 -2.7560001 0.9581 0 0 1 2 9 1 0 0 0 11.7584582
897 5 5.6360002 -3.7620001 10.9499998 0 0 0 2 8 2 0 0 0 11.5957756
905 4 19.4099999 -3.714 -2.895 0 0 0 0 12 2 0 0 0 11.9315538
917 5 8.3039999 -12.7600003 20.2800007 0 0 0 0 12 0 0 0 0 11.3717146
949 2 14.1499996 4.1919999 20.9599992 0 0 0 1 10 3 0 0 0 12.3932715
952 2 11.0799999 1.238 1.053 0 0 0 0 12 2 0 0 0 12.8349085
961 2 -2.51 -19.3899994 -6.0689998 0 0 0 4 4 5 0 0 0 11.3163662
990 4 3.3210001 -13.5799999 -20.2800007 0 0 0 3 7 4 1 0 0 12.4730931
996 5 12.6700001 -8.7779999 15.8999996 0 0 0 1 10 3 0 0 0 12.3895378
999 4 2.2679999 10.25 -10.3400002 0 0 1 1 9 4 0 0 0 11.8257027
1009 5 8.672 12.1000004 17.9300004 0 0 1 0 11 1 0 0 0 11.0545073
1018 3 23.4799996 18.5799999 13.6199999 0 0 0 2 10 1 0 0 0 12.4266472
1023 2 17.3199997 -2.764 -16.0200005 0 0 0 1 10 2 0 0 0 11.8234263
1027 4 -6.5089998 -9.6529999 18.0699997 0 0 0 3 6 5 0 0 0 12.0063314
1034 4 13.4099999 7.7010002 -14.3400002 0 0 0 0 12 0 0 0 0 11.6275292
1039 5 10.0600004 11.1000004 -21.1100006 0 0 2 0 8 4 0 0 0 12.6840458
1040 1 7.263 -14.29 -21.1700001 0 0 0 3 6 4 0 0 0 11.8607426
1053 4 -16.5300007 -1.201 0.3064 0 0 0 3 8 3 0 0 0 12.0774555
1063 5 16.4500008 -19.9899998 -14.8299999 0 0 0 1 10 2 0 0 0 12.3774338
1067 3 17.5699997 -6.3179999 -18.9500008 0 0 1 2 9 3 0 0 0 13.1478138
1068 5 -4.0910001 6.4920001 -1.785 0 0 0 3 6 4 0 0 0 11.0782604
1087 4 -13.4600001 16.0200005 -0.6609 0 0 0 3 6 4 0 0 0 11.4302569
1089 4 -3.684 -6.7870002 4.1279998 0 0 0 2 10 5 0 0 0 13.5816574
1091 5 -1.929 -15.54 8.1680002 0 0 0 1 10 2 0 0 0 11.948184
1094 5 9.9230004 3.073 19.3299999 0 0 0 3 8 3 0 0 0 12.7770977
1097 1 23.1700001 0.784 -17.5499993 0 0 0 0 12 0 0 0 0 11.3314409
1101 4 -9.0909996 -15.3699999 11.0299997 0 0 0 1 12 2 0 0 0 12.9466296
1111 4 -14.3699999 -19.2000008 20.7199993 0 0 0 2 10 1 0 0 0 12.1214218
1113 4 13.6599999 5.1820002 18.6800003 0 0 0 2 8 2 0 0 0 11.1800985
1119 4 17.6900006 -6.5359998 19.9300004 0 0 0 3 6 6 0 0 0 12.707242
1127 2 -5.4470001 15.96 -2.6500001 0 0 1 2 7 3 0 0 0 11.0825415
1129 2 18.1299992 20.2900009 19.9400006 0 0 0 0 12 0 0 0 0 11.4178743
1143 5 -4.5570002 12.5600004 -0.04028 0 0 0 1 10 4 0 0 0 13.0473013
1147 4 -12.5799999 0.02546 -10.8800002 0 0 0 2 8 2 0 0 0 11.8515272
1152 2 -11.0100002 -11.7399998 -6.836 0 0 1 2 7 3 0 0 0 12.0927115
1158 2 3.4749999 14.3999996 13.3500004 0 0 0 0 12 0 0 0 0 11.8131552
1161 4 9.8599998 -0.7679 -3.0929999 0 0 0 1 12 2 0 0 0 13.3376494
1167 4 20.0200005 -4.579 -0.7001 0 0 0 0 12 0 0 0 0 11.1807203
1171 5 -1.025 0.4737 14.3400002 0 0 0 2 8 5 0 0 0 12.0254307
1175 4 7.0980001 17.9599992 15.9799996 0 0 0 0 12 3 0 0 0 12.3930235
1185 2 8.9840002 -3.7880001 -21.5699997 0 0 0 0 12 0 0 0 0 11.0298433
1190 2 -10.4099999 -14.2700005 -16.25 0 0 0 3 8 2 0 0 0 11.9199906
1191 4 -12.54 20.1700001 -11.5799999 0 0 1 2 5 5 0 0 0 11.8754426
1207 5 11.5900002 18.9699994 18.3899994 0 0 0 0 12 0 0 0 0 11.2084646
1208 4 15.7700005 18.2000008 -4.6160002 0 0 0 3 8 3 0 0 0 12.9700786
1212 4 9.04 -2.7449999 11.5299998 0 0 1 3 5 6 0 0 0 12.8042622
1214 5 17.6800003 4.921 15.6700001 0 0 0 2 8 4 0 0 0 11.4672756
1217 5 -7.711 10.4799996 3.952 0 0 0 0 12 2 0 0 0 12.2465792
1226 4 11.4799996 19.4400006 -16.1100006 0 0 0 4 8 1 0 0 0 12.2378369
1243 2 -0.001252 -21.8700008 18.5599995 0 0 0 2 7 2 1 0 0 11.6082821
1245 5 18.7700005 -14.1800003 1.286 0 0 0 1 10 2 0 0 0 11.6680956
1246 4 9.8240004 11.5799999 -10.8299999 0 0 1 1 9 5 0 0 0 13.1426411
1249 2 -8.6560002 -7.3860002 21.1299992 0 0 0 1 10 4 0 0 0 12.4918757
1250 2 -5.5380001 12.8199997 6.7259999 0 0 0 0 12 0 0 0 0 11.579628
1252 4 -15.4799996 -16.9599992 -19.1499996 0 0 1 0 11 3 0 0 0 13.0717506
1261 4 5.8850002 -0.6526 -0.6581 0 0 0 1 10 3 0 0 0 11.9575624
1269 5 -16.8299999 -18.8500004 -7.3410001 0 0 0 6 2 6 0 0 0 12.4396181
1270 2 0.1561 7.2820001 0.3699 0 0 1 2 7 1 2 0 0 11.2758484
1295 4 -3.6370001 -20.6800003 -4.1030002 0 0 1 2 7 6 0 0 0 12.7932034
1305 5 -1.188 18.25 14.2799997 0 0 1 2 7 3 2 0 0 13.1844368
1306 5 -4.0580001 16.7099991 -8.9370004 0 0 0 2 8 2 0 0 0 11.4796524
1318 5 -0.8171 -2.323 -13.4300003 0 0 1 0 10 3 1 0 0 12.3879118
1328 2 6.1230002 14.79 -5.3070002 0 0 0 0 12 0 0 0 0 11.5274086
1335 5 -4.349 0.6918 20.7999993 0 0 0 1 10 2 0 0 0 11.9515344
1337 4 15.87 -13.25 -7.573 0 0 0 3 6 4 0 0 0 11.7862101
1340 4 15.0100002 15.3500004 -0.3032 0 0 0 4 8 2 0 0 0 12.2853804
1352 4 -18.5699997 -20.0900002 17.8400002 0 0 2 1 9 3 1 0 0 12.4124966
1357 5 16.4599991 -9.3360005 -5.0159998 0 0 0 1 10 3 1 0 0 12.6572771
1371 4 17.2099991 9.2139998 -1.653 0 0 0 0 12 0 0 0 0 11.4810801
1374 4 16.2000008 -6.8410002 1.365 0 0 1 1 9 4 0 0 0 13.3761749
1384 2 21.1200008 -13.04 -13.5699997 0 0 0 1 10 2 0 0 0 11.8195715
1386 2 7.3270002 2.1240001 4.764 0 0 0 2 8 2 0 0 0 11.3851318
1388 5 12.2299996 -2.5680001 -7.2100001 0 0 0 2 8 2 0 0 0 10.8306294
1393 4 3.4820001 -5.5869999 4.9530002 0 0 0 1 10 2 0 0 0 12.359416
1410 1 24.9899998 12.5600004 0.3076 0 0 0 0 12 0 0 0 0 11.176446
1415 4 1.392 -12.5900002 -2.059 0 0 0 2 8 5 0 0 0 12.8906622
1419 4 11.8000002 -17.5900002 -13.9700004 0 0 0 1 12 1 0 0 0 12.9511224
1427 5 18.9300004 -16.25 -2.9070002 0 0 0 0 12 0 0 0 0 10.983224
1433 5 0.7275 -3.9790002 14.5600004 0 0 3 4 4 4 1 0 0 12.7640887
1444 4 -4.651 2.77 11.8100004 0 0 0 4 5 5 1 0 0 12.659317
1447 4 2.685 -19.2000008 14.8800002 0 0 1 2 7 5 0 0 0 12.5533419
1450 1 18.2399998 5.619 -6.408 0 0 1 4 4 3 1 0 0 11.6345816
1452 4 -8.9069996 -7.586 -19.6900006 0 0 1 1 9 4 0 0 0 13.1030388
1469 2 2.924 -16.3999996 -1.8200001 0 0 0 1 10 2 0 0 0 11.8956824
1471 5 -18.0599995 -20.2299996 -11.2299996 0 0 0 1 10 3 0 0 0 12.1666555
1487 4 1.271 -15.0500002 -8.8520002 0 0 2 0 9 2 1 0 0 12.7031727
1504 5 9.6990004 5.8200002 -16.9300004 0 0 0 3 6 4 0 0 0 12.3322487
1516 2 17.2600002 18.6900006 -2.8039999 0 0 0 0 12 0 0 0 0 11.3851004
1528 2 19.2800007 -19.7700005 16.9799996 0 0 0 0 12 0 0 0 0 11.743619
1533 2 8.4930001 2.0380001 -5.8169999 0 0 0 0 12 0 0 0 0 11.1880312
1534 4 8.3360005 16.1800003 0.7657 0 0 1 2 7 5 0 0 0 12.4466439
1543 1 -18.5799999 -16.9500008 5.8839998 0 0 0 1 10 2 0 0 0 11.5867348
1548 4 10.3699999 -15.6599999 16.4799996 0 0 0 3 8 3 0 0 0 12.5086022
1550 4 -3.927 -13.2799997 -12.9700004 0 0 1 0 11 3 0 0 0 12.6551543
1561 4 -13.0699997 4.1079998 4.6890002 0 0 0 4 6 3 0 0 0 12.0920677
1566 1 8.1239996 2.027 -8.2880001 0 0 0 0 12 3 0 0 0 12.5837126
1581 2 4.243 10.0500002 -4.1040001 0 0 0 0 12 0 0 0 0 11.229393
1584 2 20.0100002 18.9799996 19.0300007 0 0 0 0 12 0 0 0 0 11.2513819
1585 3 -8.9910002 -18.0300007 15.4899998 0 0 0 2 8 2 0 0 0 10.8876706
1595 5 2.932 2.04 -12.7799998 0 0 0 3 8 2 0 0 0 12.9828262
1605 5 6.5440002 -4.7259999 -0.01697 0 0 0 0 12 0 0 0 0 12.4431505
1618 4 -2.013 -5.1300001 21.2199993 0 0 1 2 8 3 1 0 0 12.9631472
1619 5 25.2700005 20.4699993 -11.8999996 0 0 0 2 10 2 0 0 0 12.0630055
1622 4 8.5209999 15.0299997 -1.5290001 0 0 0 1 10 5 0 0 0 13.3838835
1625 4 7.6599999 -6.2389999 8.2410002 0 0 0 1 12 2 0 0 0 13.1216412
1630 4 -0.3051 -15.4200001 12.6000004 0 0 0 2 12 1 0 0 0 12.8908834
1632 4 -0.3605 -4.908 -12.9700004 0 0 0 4 7 2 1 0 0 12.3977156
1644 4 5.9099998 13.6000004 14.0799999 0 0 0 1 10 4 0 0 0 13.5765209
1661 5 20.2600002 2.1770001 -19.4899998 0 0 0 1 10 2 0 0 0 13.0849962
1667 4 -4.8790002 10.1499996 -8.5229998 0 0 0 1 10 4 0 0 0 12.9697676
1672 4 7.5630002 -18.5200005 -20.3099995 0 0 0 2 8 4 0 0 0 13.2667971
1687 5 14.6800003 -0.5359 14.6400004 0 0 0 4 5 3 1 0 0 11.7158995
1694 2 16.5799999 -0.7858 3.375 0 0 0 0 12 0 0 0 0 11.1013308
1699 4 17.2999992 -7.7600003 8.276 0 0 0 3 10 1 0 0 0 12.0317469
1700 5 12.0900002 12.5699997 20.4899998 0 0 2 1 8 4 0 0 0 11.7144537
1705 1 -2.8239999 -13.3500004 -0.6511 0 0 0 2 10 1 0 0 0 11.6026659
1707 4 16.2600002 5.1079998 -12.1000004 0 0 0 3 6 4 0 0 0 12.0795717
1712 2 13.6300001 -14.1099997 -21.3099995 0 0 0 2 8 3 0 0 0 12.3641005
1714 4 16.5499993 0.6652 15.9399996 0 0 0 0 12 0 0 0 0 10.9953432
1724 2 -3.2420001 0.8709 -12.4300003 0 0 0 0 12 0 0 0 0 10.7133036
1730 5 -4.0619998 -1.076 19.1200008 0 0 0 1 10 2 0 0 0 12.0470781
1733 1 -8.54 -13.7399998 19.3700009 0 0 0 3 8 2 0 0 0 12.0019016
1737 4 11.3000002 -19.7600003 -0.6526 0 0 0 0 12 0 0 0 0 11.1973047
1743 4 -7.3439999 -16.3700009 0.2663 0 0 0 1 10 4 0 0 0 12.3867273
1745 4 -16.6399994 -21.5599995 16.9099998 0 0 0 4 6 4 0 0 0 12.3928042
1750 4 0.8248 5.5120001 -1.4220001 0 0 1 1 9 3 0 0 0 11.917987
1751 4 -2.549 -10.1800003 -3.3940001 0 0 1 4 3 4 2 0 0 11.887414
1772 2 -5.881 20.8199997 -19.8799992 0 0 1 4 7 4 0 0 0 12.6717615
1796 2 11.0900002 -7.7069998 -20.7999993 0 0 0 1 10 2 0 0 0 12.1820068
1803 2 14.3299999 -4.0650001 -6.9400002 0 0 1 0 9 2 1 0 0 11.7746916
1805 4 20.7299996 16.7199993 -18.4300003 0 0 0 2 8 2 0 0 0 11.42344
1813 4 -15.54 -2.6889999 -7.7210002 0 0 0 4 4 5 0 0 0 11.6604634
1834 4 18.6800003 17.9099998 21.1000004 0 0 0 1 10 3 0 0 0 13.4021216
1838 2 6.7880001 19.0599995 -2.868 0 0 0 2 9 1 0 0 0 10.8530064
1847 4 16.7000008 -15.8500004 -17.9300004 0 0 0 5 5 4 1 0 0 12.9224216
1849 5 -2.3610001 -6.5089998 -12.87 0 0 1 1 9 2 2 0 0 12.980527
1853 2 19.6499996 21.5400009 -12.7399998 0 0 0 1 10 2 0 0 0 11.8628522
1854 4 15.0299997 -6.6810003 8.2980003 0 0 0 0 12 0 0 0 0 11.6064062
1860 2 -8.6610003 -3.86 -16.7900009 0 0 0 1 10 2 0 0 0 12.0594826
1864 5 22.7900009 6.2649999 21.0400009 0 0 0 3 8 3 0 0 0 12.3416977
1868 4 -13.3000002 5.96 7.1409998 0 0 1 1 9 6 0 0 0 13.1217556
1873 4 12.0900002 -19.2199993 -8.5600004 0 0 0 0 12 0 0 0 0 12.023387
1880 5 5.7930002 -18.4200001 20.2299996 0 0 0 1 10 2 0 0 0 11.5838547
1890 4 -12.4200001 -19.4300003 7.5999999 0 0 0 3 6 4 0 0 0 11.621316
1893 2 9.1120005 -10.2700005 1.043 0 0 0 0 12 0 0 0 0 11.4510794
1898 5 -13.3900004 18.1900005 21.3500004 0 0 0 3 5 4 1 0 0 11.8456508
1911 4 14.5799999 -12.96 5.6620002 0 0 0 3 6 4 0 0 0 11.9320154
1921 4 13.2600002 16.6399994 4.421 0 0 0 2 10 1 0 0 0 11.9993172
1925 2 12.3000002 -19.7600003 -15.1099997 0 0 0 1 10 2 0 0 0 12.6291952
1926 4 -3.108 8.4969998 -7.751 0 0 1 1 9 3 0 0 0 12.1339893
1928 4 -1.927 7.231 1.5290001 0 0 0 2 10 2 0 0 0 12.6744108
1934 4 -3.5539999 18.1100006 -6.7890001 0 0 0 2 8 5 0 0 0 13.337904
1935 4 5.3200002 -1.0470001 5.704 0 0 0 0 12 0 0 0 0 11.5809088
1938 4 -5.0120001 -2.056 -9.1949997 0 0 0 2 8 2 0 0 0 12.0502853
1943 5 -7.0159998 20.7000008 -17.3400002 0 0 0 4 4 6 0 0 0 12.1956787
1947 5 -6.4320002 2.84 17.5100003 0 0 0 2 8 4 0 0 0 12.2980337
1948 4 -4.731 -3.1259999 -11.54 0 0 1 1 11 3 0 0 0 12.759428
1954 5 -10.6300001 -8.573 14.3699999 0 0 1 4 5 5 0 0 0 12.7160473
1984 5 18.0900002 -22.0 1.061 0 0 0 0 12 2 0 0 0 12.6588812
1986 4 -4.9200002 11.1999998 12.9200002 0 0 0 0 12 3 0 0 0 12.9820538
1993 5 -12.0500002 -6.4039998 -16.2800007 0 0 0 3 8 2 0 0 0 11.938096
1996 4 -5.342 15.6300001 6.929 0 0 0 1 10 4 0 0 0 11.986806
1998 2 -1.6310001 5.119 7.7280002 0 0 1 2 6 3 1 0 0 11.5507345
2001 4 8.1160002 -4.8280001 5.3899999 0 0 0 1 10 5 0 0 0 13.0788116
2006 5 -13.1899996 -8.7110005 -21.3400002 0 0 0 0 12 0 0 0 0 11.5371504
2009 4 -13.1099997 -17.25 -1.3990001 0 0 0 0 12 3 0 0 0 13.1552725
2020 2 12.8199997 -2.7839999 4.0689998 0 0 0 3 8 0 0 0 0 11.5976086
2022 5 15.6000004 -12.0600004 19.4300003 0 0 0 0 12 2 0 0 0 12.5225258
2027 4 -4.5710001 -2.178 14.04 0 0 1 2 7 4 0 0 0 11.6473475
2028 2 -8.7580004 7.717 1.204 0 0 0 0 12 2 0 0 0 12.5454426
2050 2 -17.5699997 -18.7099991 -15.5100003 0 0 1 3 5 4 0 0 0 11.9126264
2052 5 -12.8000002 21.1599999 3.264 0 0 1 3 4 5 1 0 0 12.860159
2055 4 7.2340002 -3.1700001 -10.1899996 0 0 0 1 12 1 0 0 0 12.3085356
2056 5 16.1100006 11.8100004 9.5550003 0 0 0 2 8 4 0 0 0 12.8679218
2062 2 8.54 16.2000008 -15.3999996 0 0 0 4 4 4 0 0 0 11.2601805
2070 2 -11.6199999 -21.0900002 -14.7600003 0 0 0 2 10 0 0 0 0 11.590704
2073 4 -5.6469999 -13.6499996 -19.8099995 0 0 0 0 12 0 0 0 0 11.5476504
2081 5 -18.4799996 -14.8599998 1.921 0 0 0 0 12 0 0 0 0 10.7179785
2082 2 17.0900002 16.2900009 11.6000004 0 0 0 2 8 2 0 0 0 11.4542008
2083 4 -4.4120002 -18.3999996 -13.9399996 0 0 0 1 10 3 0 0 0 12.4697047
2087 5 -12.6099997 -7.921 -7.7199998 0 0 0 1 12 1 0 0 0 12.7662573
2089 1 17.5200005 -13.6800003 -18.8099995 0 0 0 4 6 3 0 0 0 11.8746882
2093 5 -5.0679998 -13.7600003 11.5600004 0 0 0 0 12 0 0 0 0 10.9914408
2095 4 -2.4100001 -8.4040003 -20.1700001 0 0 0 1 10 2 0 0 0 11.4941263
2112 4 22.1000004 -2.2590001 9.896 0 0 0 1 10 2 0 0 0 12.2562456
2143 2 5.3660002 3.764 17.0699997 0 0 1 2 7 5 0 0 0 12.4323254
2154 4 17.3099995 14.7399998 -1.62 0 0 0 3 6 3 0 0 0 12.2474547
2155 4 -6.027 21.4899998 -22.1599999 0 0 0 3 6 4 0 0 0 12.0316925
2160 2 11.6000004 9.8839998 2.691 0 0 1 3 5 4 0 0 0 11.597291
2167 5 16.8199997 14.5200005 9.3529997 0 0 0 1 10 6 0 0 0 14.4611912
2176 5 7.942 13.8999996 0.9265 0 0 0 3 6 3 0 0 0 10.9226084
2178 4 -13.3100004 -19.0300007 -5.5960002 0 0 0 0 12 3 0 0 0 13.2426825
2181 4 -9.776 9.0629997 16.1200008 0 0 0 0 12 4 0 0 0 13.3601675
2185 2 -17.6399994 -21.4400006 -7.2420001 0 0 0 2 9 2 0 0 0 12.4388972
2187 2 -4.1339998 11.04 18.3899994 0 0 0 3 8 3 0 0 0 11.6251021
2197 2 19.7099991 17.4099999 5.956 0 0 0 2 8 1 0 0 0 11.3631888
2207 5 12.6599999 -8.2250004 -8.1309996 0 0 0 3 7 3 1 0 0 12.6837645
2212 4 -11.4799996 -3.873 -17.3700009 0 0 0 1 10 4 0 0 0 12.3882675
2241 4 3.978 -4.7100001 0.8691 0 0 0 1 10 4 0 0 0 12.8939382
2274 1 -8.9160004 -18.2700005 0.7052 0 0 0 0 12 0 0 0 0 11.0445213
2290 4 -6.2490001 -18.9400006 12.8900004 0 0 0 3 8 3 0 0 0 12.6277752
2291 2 -13.79 16.3500004 -14.1499996 0 0 0 0 12 0 0 0 0 11.2716074
2295 1 5.7199998 -0.6058 17.9500008 0 0 0 0 12 0 0 0 0 11.6543398
2306 4 22.1800003 9.0200005 4.6290002 0 0 0 1 10 2 0 0 0 12.7251826
2309 5 -6.7340002 -21.3700009 -6.6589999 0 0 0 3 6 6 0 0 0 12.096817
2315 4 15.1999998 0.6369 -21.4699993 0 0 0 3 8 2 0 0 0 11.6557637
2324 1 11.1800003 -9.323 10.3199997 0 0 0 4 4 3 2 0 0 12.4442911
2325 4 -17.4899998 -7.2220001 -7.243 0 0 0 4 6 5 0 0 0 11.9752704
2334 5 -1.205 9.96 15.3000002 0 0 2 2 6 2 4 0 0 12.6951971
2341 4 20.7999993 8.8739996 -9.901 0 0 0 2 8 4 0 0 0 11.6222706
2342 3 0.6401 7.606 -16.0900002 0 0 0 1 10 3 0 0 0 12.0200338
2346 4 -17.2700005 -2.504 4.414 0 0 0 1 12 2 0 0 0 13.1949902
2356 3 18.5799999 -2.1240001 -9.4560004 0 0 0 0 12 0 0 0 0 11.7194958
2376 5 23.5 10.8599998 -18.8299999 0 0 0 3 8 3 0 0 0 12.2593041
2377 4 3.4860001 -19.1700001 21.3299999 0 0 0 0 12 0 0 0 0 11.2826281
2388 4 -5.6310001 8.4200001 -1.804 0 0 0 3 8 4 0 0 0 12.1818352
2389 2 -17.2299996 -15.3400002 -18.1399994 0 0 0 0 12 0 0 0 0 10.9666462
2400 2 -13.6700001 0.4952 20.7600003 0 0 0 2 8 3 0 0 0 11.8937206
2409 5 -7.4759999 21.3899994 19.8999996 0 0 1 3 7 3 0 0 0 12.4767475
2411 4 15.3400002 -17.7600003 -2.7880001 0 0 0 2 8 4 0 0 0 12.0231171
2414 1 1.016 8.7659998 15.5100003 0 0 0 2 5 4 1 0 0 12.2338057
2428 4 -7.9320002 14.8199997 13.0 0 0 1 1 9 4 0 0 0 12.4517908
2437 2 -12.5200005 10.9499998 19.0200005 0 0 1 4 5 3 0 0 0 12.0161629
2438 1 8.5459996 -9.3509998 -1.3250001 0 0 0 0 12 0 0 0 0 10.7582703
2440 4 9.7410002 -11.54 -1.048 0 0 0 2 8 4 0 0 0 12.5087366
2465 5 -3.971 -9.3409996 6.9499998 0 0 1 4 5 4 0 0 0 12.3568354
2476 1 9.2860003 -21.2000008 19.3999996 0 0 0 2 8 2 0 0 0 11.2953644
2480 4 12.7799998 12.1899996 -20.5200005 0 0 0 0 12 3 0 0 0 13.4795628
2502 4 -7.8850002 -9.4980002 -2.2090001 0 0 0 2 8 4 0 0 0 12.072567
2504 2 -10.2399998 -8.2159996 -14.54 0 0 1 2 8 2 1 0 0 11.8177243
2509 4 -10.3699999 18.9400006 -20.4200001 0 0 0 3 7 3 0 0 0 11.9578782
2510 4 22.1700001 -0.01156 6.4460001 0 0 0 2 8 5 0 0 0 12.4598627
2511 5 -7.0229998 6.908 -3.559 0 0 0 3 6 4 0 0 0 11.578147
2519 4 6.1760001 -8.2390003 17.1200008 0 0 1 1 9 3 0 0 0 11.8690052
2520 4 1.084 -18.0400009 -6.0910001 0 0 0 4 6 4 0 0 0 11.9839698
2521 2 4.888 6.2719998 13.3199997 0 0 1 1 9 0 2 0 0 11.8525954
2526 2 -6.625 17.9099998 18.3400002 0 0 0 1 10 2 0 0 0 11.4987383
2534 5 -7.2509999 10.29 -17.2199993 0 0 1 3 5 4 0 0 0 11.9718686
2535 5 -7.2979999 -4.2550001 4.1570001 0 0 0 1 10 4 0 0 0 13.3808346
2565 4 -7.7140003 9.8730002 -21.9899998 0 0 0 1 10 4 0 0 0 12.9350538
2577 3 -2.3299999 -1.863 10.6300001 0 0 0 1 12 3 0 0 0 13.6474381
2582 2 2.342 14.9700004 -11.6899996 0 0 0 1 10 2 0 0 0 11.3736668
2587 4 23.4200001 16.6499996 9.2659998 0 0 0 1 10 4 0 0 0 13.2058573
2588 2 21.5 13.3999996 -10.3999996 0 0 1 2 7 4 0 0 0 11.7049818
2590 4 -7.6589999 12.1599999 11.6099997 0 0 0 0 12 3 0 0 0 13.3981152
2592 3 -14.1300001 15.7399998 -20.5400009 0 0 0 2 8 6 0 0 0 13.276413
2594 2 3.7019999 4.197 -17.25 0 0 0 2 8 2 0 0 0 11.7665844
2600 1 11.9300004 19.0499992 10.4200001 0 0 0 3 6 5 0 0 0 11.5958472
2608 5 1.887 -9.4499998 9.7270003 0 0 1 3 5 4 0 0 0 12.1176462
2613 5 -12.2299996 -10.0500002 20.5599995 0 0 0 0 12 3 0 0 0 12.868125
2615 2 5.7080002 -20.0799999 6.573 0 0 0 3 6 3 0 0 0 11.4761114
2648 2 1.471 -4.6329999 -14.2100001 0 0 1 2 6 3 1 0 0 11.9376498
2651 4 11.75 -19.6800003 9.7290001 0 0 0 0 12 2 0 0 0 12.3596048
2659 4 16.1399994 -2.924 -8.6219998 0 0 0 1 12 1 0 0 0 11.9983044
2672 2 -10.8900004 -13.7100001 11.5200005 0 0 1 2 9 3 0 0 0 12.6749487
2677 4 21.1200008 19.25 6.1739998 0 0 0 1 10 2 0 0 0 11.6577025
2680 4 15.6599999 -6.52 18.6000004 0 0 0 4 4 6 0 0 0 12.3036947
2706 4 13.6199999 4.6240001 -12.5500002 0 0 0 1 10 2 0 0 0 12.7153015
2715 4 4.7859998 -4.336 18.0200005 0 0 0 2 8 4 0 0 0 11.835721
2719 4 0.7911001 -7.2820001 -11.2700005 0 0 1 3 4 5 1 0 0 12.9562912
2723 4 21.5100003 10.3699999 2.494 0 0 0 0 12 4 0 0 0 13.8955308
2741 5 12.8199997 13.8400002 1.31 0 0 1 2 6 3 1 0 0 11.6741429
2771 5 5.909 -17.2900009 9.7519999 0 0 0 5 4 4 0 0 0 12.0989208
2773 2 8.0089998 -17.5699997 -15.3299999 0 0 1 2 7 3 0 0 0 11.8710662
2784 5 -4.2909999 -19.1599999 1.868 0 0 0 0 12 0 0 0 0 11.9345474
2803 5 -9.8830004 -13.6099997 -7.987 0 0 0 3 6 4 0 0 0 11.716115
2805 4 14.1800003 11.9300004 -2.593 0 0 0 1 10 4 0 0 0 13.3497362
2813 4 -7.7729998 -5.6300001 -9.6800003 0 0 0 2 7 4 1 0 0 12.2871027
2823 4 -0.8133 -20.1399994 20.2800007 0 0 0 0 12 2 0 0 0 12.8385697
2830 4 -3.7620001 21.3899994 11.1499996 0 0 0 1 10 3 0 0 0 12.6580086
2840 2 -4.961 20.1100006 3.927 0 0 0 2 8 1 0 0 0 11.1251335
2848 4 -4.4159999 -6.6069999 6.73 0 0 0 3 8 3 0 0 0 12.3336611
2850 4 -4.118 5.164 11.1800003 0 0 0 3 7 4 1 0 0 13.2189102
2860 1 3.092 -0.01235 -18.5599995 0 0 0 1 10 2 0 0 0 11.931244
2862 3 17.0300007 -20.4400006 -10.6899996 0 0 0 1 10 3 0 0 0 12.5928269
2864 4 -3.883 19.1200008 20.9899998 0 0 0 1 10 2 0 0 0 12.1929121
2871 5 -8.8129998 15.9499998 -12.5900002 0 0 0 3 6 5 0 0 0 12.0293274
2878 2 0.3653 -5.6399999 8.8039999 0 0 0 0 12 0 0 0 0 11.2886963
2900 4 2.603 5.6310001 -21.2800007 0 0 0 2 8 3 0 0 0 12.1785479
2911 4 2.3499999 19.9400006 -12.3599997 0 0 0 0 12 2 0 0 0 12.0187101
2921 5 19.5499993 -14.1700001 3.757 0 0 0 0 12 2 0 0 0 12.3361616
2929 4 -14.6400004 -11.9099998 -13.1700001 0 0 0 0 12 0 0 0 0 11.5357275
2942 4 -5.0640001 -17.0200005 14.4899998 0 0 0 2 8 4 0 0 0 12.1138048
2961 4 0.5314 -9.6239996 -9.9829998 0 0 1 2 7 5 0 0 0 12.234829
2994 4 -5.5040002 -8.2200003 -1.131 0 0 0 1 10 2 0 0 0 11.5159378
2995 2 6.8039999 -1.209 15.5299998 0 0 2 1 7 4 1 0 0 12.3333836
2997 2 -16.9400006 -5.8390002 -20.4599991 0 0 1 2 7 3 0 0 0 11.5646296
3019 4 19.8299999 17.0499992 -8.7700005 0 0 0 0 12 4 0 0 0 13.7634735
3020 5 16.0499992 6.402 -19.3099995 0 0 1 2 7 4 0 0 0 11.9318458
3021 5 -4.4099999 -8.2279997 1.119 0 0 0 0 12 3 0 0 0 12.7371903
3024 5 -3.1199999 8.9119998 -21.0900002 0 0 0 3 8 4 0 0 0 13.2168265
3048 4 3.4200001 12.0500002 14.54 0 0 0 0 12 3 0 0 0 13.9822874
3056 4 12.2299996 -15.0299997 -7.4749999 0 0 0 2 10 1 0 0 0 11.8437406
3064 2 15.3999996 -14.4200001 -19.6700001 0 0 0 4 6 3 0 0 0 12.542532
3070 4 13.6400004 5.4120002 14.6099997 0 0 0 0 12 2 0 0 0 12.2563372
3072 4 -13.5 -3.751 -19.0799999 0 0 0 2 10 1 0 0 0 12.5012312
3083 4 -12.7399998 -10.6199999 -8.1899996 0 0 0 4 4 7 0 0 0 13.3776646
3101 5 20.2199993 1.517 -6.0910001 0 0 0 5 4 6 0 0 0 12.256711
3110 2 6.5900002 17.7900009 1.7000001 0 0 0 2 8 4 0 0 0 12.1610746
3119 5 14.1400003 11.8900004 13.8100004 0 0 0 0 12 2 0 0 0 12.7738152
3126 2 -13.9899998 -0.8435 18.6399994 0 0 0 5 4 6 0 0 0 12.4606505
3129 2 2.559 16.2999992 -7.6100002 0 0 0 0 12 0 0 0 0 11.3526459
3137 2 3.82 -2.2130001 -19.1399994 0 0 0 1 10 2 0 0 0 12.1609688
3142 2 -8.2629995 14.6099997 -16.5300007 0 0 0 0 12 2 0 0 0 12.8314944
3145 2 -5.0009999 -20.6900006 -8.8730002 0 0 0 1 10 2 0 0 0 12.0897179
3164 2 16.7999993 -15.2799997 0.5927 0 0 0 1 10 2 0 0 0 11.4645529
3169 5 -2.0680001 17.8500004 7.5209999 0 0 0 1 10 5 0 0 0 13.9748422
3174 4 -4.4380002 -3.4879999 17.8099995 0 0 1 2 9 3 0 0 0 12.7073088
3190 2 1.2280001 15.2200003 9.1370001 0 0 0 3 6 6 0 0 0 12.435154
3193 2 16.6599999 2.848 8.717 0 0 0 2 8 4 0 0 0 11.8733616
3219 4 -4.1030002 8.4169998 19.2600002 0 0 0 2 10 2 0 0 0 12.8807832
3223 4 17.7900009 -15.3199997 -20.8500004 0 0 2 2 7 3 1 0 0 13.0896807
3231 5 13.0299997 19.4799996 3.5020001 0 0 0 1 10 4 0 0 0 12.7646895
3238 5 1.997 -20.4899998 19.3600006 0 0 0 1 10 4 0 0 0 13.0960207
3240 1 -13.3100004 20.0900002 -3.306 0 0 0 2 8 4 0 0 0 11.8154536
3242 2 -2.847 1.914 13.3500004 0 0 0 1 10 2 0 0 0 11.9358368
3253 5 8.4589997 5.441 10.79 0 0 0 2 8 5 0 0 0 13.0451841
3257 4 1.5 -15.2299996 -21.2000008 0 0 0 0 12 0 0 0 0 11.1071482
3274 2 -1.578 17.2399998 17.0200005 0 0 1 1 9 4 0 0 0 12.1022806
3278 4 15.6700001 -7.8790002 -18.5799999 0 0 0 0 12 0 0 0 0 11.5778733
3282 5 6.5970001 15.8199997 20.4099999 0 0 0 1 12 2 0 0 0 12.9050846
3298 5 -5.2150002 1.12 9.1700001 0 0 0 1 10 3 0 0 0 12.7033139
3303 5 -6.5159998 -6.8000002 14.8999996 0 0 0 0 12 0 0 0 0 11.6146803
3313 2 -2.3380001 -7.5180002 6.0279999 0 0 0 2 8 2 0 0 0 11.4976168
3317 5 14.2100001 4.849 1.14 0 0 0 0 12 0 0 0 0 11.1927099
3323 5 12.9200002 14.8599998 -16.2700005 0 0 1 1 9 3 0 0 0 11.9290114
3338 5 0.6541 -4.5819998 -19.2999992 0 0 0 3 6 4 0 0 0 11.8040104
3351 1 -9.2130003 18.1100006 10.3299999 0 0 0 0 12 0 0 0 0 11.3804627
3355 5 -13.1000004 17.4899998 -8.1719999 0 0 0 1 10 5 0 0 0 14.242012
3361 5 -10.87 9.6789999 11.8000002 0 0 0 3 6 5 0 0 0 11.9996568
3366 1 6.1290002 19.9899998 -19.9400006 0 0 0 1 10 2 0 0 0 12.0583973
3370 4 8.8950006 1.341 6.198 0 0 0 5 2 6 0 0 0 12.4651776
3375 4 20.9400006 21.4500008 4.975 0 0 0 2 8 5 0 0 0 12.5866833
3383 4 -11.6000004 2.2279999 5.6700001 0 0 1 2 9 2 0 0 0 12.9062338
3386 2 -13.9700004 -2.6760001 8.5389996 0 0 0 1 10 2 0 0 0 11.7328615
3387 5 -5.0970001 -5.7579999 -17.1900005 0 0 0 2 8 2 0 0 0 12.1363306
3390 4 13.7700005 15.87 15.5500002 0 0 1 2 9 2 0 0 0 12.6294146
3403 5 -14.3999996 2.4879999 -18.8999996 0 0 0 3 6 4 0 0 0 11.3804693
3432 4 5.6490002 0.4828 -18.0499992 0 0 0 2 8 5 0 0 0 13.1915751
3434 2 -9.9560004 0.6284001 0.5565 0 0 0 0 12 0 0 0 0 11.3226891
3439 5 11.0500002 -9.4499998 -0.7199 0 0 0 2 8 4 0 0 0 12.5838728
3449 4 1.29 8.875 20.5699997 0 0 0 3 6 4 0 0 0 11.6977339
3451 1 0.8029 -13.9899998 -6.6360002 0 0 2 0 9 2 1 0 0 12.3441963