ITEM: TIMESTEP
0
ITEM: NUMBER OF ATOMS
16384
ITEM: BOX BOUNDS pp pp pp
0.0000000000000000e+00 2.6423352943785599e+01
0.0000000000000000e+00 2.6423352943785599e+01
0.0000000000000000e+00 2.6423352943785599e+01
ITEM: ATOMS id type x y z
1 4 0 0 0
2 4 0.832283 0.832283 0
3 4 2.49685 0.832283 0
4 4 2.49685 0 0.832283
5 4 1.66457 0.832283 0.832283
32 4 0.832283 1.66457 0.832283
33 4 0 2.49685 0.832283
34 4 2.49685 1.66457 0.832283
35 4 1.66457 2.49685 0.832283
522 4 2.49685 0 2.49685
523 4 1.66457 0.832283 2.49685
553 4 0.832283 2.49685 1.66457
554 4 0 2.49685 2.49685
555 4 2.49685 2.49685 1.66457
556 4 2.49685 1.66457 2.49685
557 4 1.66457 2.49685 2.49685
8193 2 0 0 0
8194 2 0.832283 0.832283 0
8195 2 0.832283 0 0.832283
8196 2 0 0.832283 0.832283
8197 2 2.49685 0 0.832283
8226 2 0 1.66457 0
8227 2 0.832283 2.49685 0
8228 2 2.49685 1.66457 0.832283
8730 2 0.832283 0.832283 1.66457
8731 2 0 0.832283 2.49685
8732 2 2.49685 0.832283 1.66457
8733 2 2.49685 0 2.49685
8734 2 1.66457 0.832283 2.49685
8760 2 1.66457 1.66457 1.66457
8761 2 2.49685 2.49685 1.66457
6 4 4.16142 0 0.832283
7 4 3.32913 0.832283 0.832283
8 4 5.82598 0.832283 0
9 4 5.82598 0 0.832283
10 4 4.9937 0.832283 0.832283
36 4 3.32913 1.66457 0
37 4 4.16142 2.49685 0
38 4 4.16142 1.66457 0.832283
39 4 3.32913 2.49685 0.832283
40 4 5.82598 2.49685 0
41 4 5.82598 1.66457 0.832283
42 4 4.9937 2.49685 0.832283
524 4 4.16142 0 2.49685
525 4 5.82598 0.832283 1.66457
526 4 5.82598 0 2.49685
527 4 4.9937 0.832283 2.49685
558 4 3.32913 1.66457 1.66457
559 4 4.16142 1.66457 2.49685
560 4 3.32913 2.49685 2.49685
561 4 4.9937 1.66457 1.66457
562 4 5.82598 2.49685 1.66457
8198 2 3.32913 0 0
8199 2 4.16142 0.832283 0
8200 2 5.82598 0.832283 0
8229 2 3.32913 1.66457 0
8230 2 4.16142 2.49685 0
8735 2 3.32913 0 1.66457
8736 2 4.16142 0 2.49685
8737 2 3.32913 0.832283 2.49685
8738 2 5.82598 0 2.49685
8739 2 4.9937 0.832283 2.49685
8762 2 4.16142 2.49685 1.66457
8763 2 4.16142 1.66457 2.49685
8764 2 4.9937 2.49685 2.49685
11 4 6.65827 0 0
12 4 6.65827 0.832283 0.832283
43 4 6.65827 1.66457 0
44 4 7.49055 2.49685 0
45 4 6.65827 2.49685 0.832283
46 4 9.15512 1.66457 0.832283
47 4 8.32283 2.49685 0.832283
528 4 6.65827 0 1.66457
529 4 7.49055 0 2.49685
530 4 9.15512 0 2.49685
531 4 8.32283 0.832283 2.49685
563 4 7.49055 2.49685 1.66457
564 4 7.49055 1.66457 2.49685
565 4 8.32283 1.66457 1.66457
566 4 9.15512 2.49685 1.66457
567 4 9.15512 1.66457 2.49685
8201 2 7.49055 0 0.832283
8202 2 9.15512 0 0.832283
8203 2 8.32283 0.832283 0.832283
8231 2 6.65827 1.66457 0
8232 2 7.49055 1.66457 0.832283
8233 2 9.15512 2.49685 0
8740 2 6.65827 0 1.66457
8741 2 6.65827 0.832283 2.49685
8742 2 8.32283 0.832283 2.49685
8765 2 7.49055 2.49685 1.66457
8766 2 7.49055 1.66457 2.49685
8767 2 6.65827 2.49685 2.49685
8768 2 9.15512 2.49685 1.66457
8769 2 8.32283 2.49685 2.49685
13 4 9.9874 0 0
14 4 11.652 0 0
15 4 12.4843 0 0.832283
16 4 11.652 0.832283 0.832283
48 4 9.9874 1.66457 0
49 4 10.8197 2.49685 0
50 4 10.8197 1.66457 0.832283
51 4 9.9874 2.49685 0.832283
52 4 11.652 2.49685 0.832283
532 4 10.8197 0.832283 1.66457
533 4 10.8197 0 2.49685
534 4 11.652 0 1.66457
535 4 11.652 0.832283 2.49685
568 4 9.9874 1.66457 1.66457
569 4 10.8197 2.49685 1.66457
570 4 10.8197 1.66457 2.49685
8204 2 9.9874 0 0
8205 2 10.8197 0.832283 0
8206 2 9.9874 0.832283 0.832283
8207 2 11.652 0 0
8208 2 12.4843 0 0.832283
8234 2 10.8197 2.49685 0
8235 2 10.8197 1.66457 0.832283
8236 2 11.652 1.66457 0
8237 2 11.652 2.49685 0.832283
8743 2 9.9874 0 1.66457
8744 2 10.8197 0.832283 1.66457
8745 2 9.9874 0.832283 2.49685
8746 2 11.652 0 1.66457
8747 2 12.4843 0 2.49685
8770 2 9.9874 1.66457 1.66457
8771 2 10.8197 2.49685 1.66457
8772 2 9.9874 2.49685 2.49685
8773 2 11.652 1.66457 1.66457
8774 2 12.4843 1.66457 2.49685
8775 2 11.652 2.49685 2.49685
17 4 13.3165 0 0
18 4 14.1488 0.832283 0
19 4 14.1488 0 0.832283
20 4 15.8134 0.832283 0
21 4 15.8134 0 0.832283
53 4 13.3165 1.66457 0
54 4 14.1488 2.49685 0
55 4 14.1488 1.66457 0.832283
56 4 13.3165 2.49685 0.832283
57 4 14.9811 1.66457 0
58 4 15.8134 2.49685 0
59 4 14.9811 2.49685 0.832283
536 4 13.3165 0 1.66457
537 4 14.1488 0.832283 1.66457
538 4 14.1488 0 2.49685
539 4 13.3165 0.832283 2.49685
571 4 13.3165 1.66457 1.66457
572 4 14.1488 2.49685 1.66457
573 4 14.1488 1.66457 2.49685
574 4 13.3165 2.49685 2.49685
575 4 14.9811 1.66457 1.66457
576 4 15.8134 2.49685 1.66457
577 4 14.9811 2.49685 2.49685
8209 2 14.1488 0.832283 0
8210 2 15.8134 0.832283 0
8211 2 15.8134 0 0.832283
8212 2 14.9811 0.832283 0.832283
8238 2 13.3165 1.66457 0
8239 2 14.1488 2.49685 0
8240 2 15.8134 1.66457 0.832283
8241 2 14.9811 2.49685 0.832283
8748 2 13.3165 0 1.66457
8749 2 13.3165 0.832283 2.49685
8750 2 15.8134 0.832283 1.66457
8751 2 15.8134 0 2.49685
8752 2 14.9811 0.832283 2.49685
8776 2 14.1488 2.49685 1.66457
8777 2 13.3165 2.49685 2.49685
8778 2 14.9811 1.66457 1.66457
22 4 17.478 0.832283 0
23 4 18.3102 0 0
24 4 19.1425 0.832283 0
60 4 17.478 1.66457 0.832283
61 4 16.6457 2.49685 0.832283
62 4 19.1425 1.66457 0.832283
540 4 16.6457 0 1.66457
541 4 18.3102 0 1.66457
542 4 19.1425 0.832283 1.66457
578 4 16.6457 2.49685 2.49685
579 4 19.1425 2.49685 1.66457
580 4 19.1425 1.66457 2.49685
581 4 18.3102 2.49685 2.49685
8213 2 16.6457 0 0
8214 2 17.478 0 0.832283
8215 2 16.6457 0.832283 0.832283
8216 2 19.1425 0.832283 0
8217 2 18.3102 0.832283 0.832283
8242 2 17.478 1.66457 0.832283
8243 2 18.3102 1.66457 0
8244 2 19.1425 2.49685 0
8753 2 16.6457 0.832283 2.49685
8754 2 19.1425 0.832283 1.66457
8755 2 19.1425 0 2.49685
8779 2 17.478 1.66457 2.49685
8780 2 16.6457 2.49685 2.49685
8781 2 19.1425 1.66457 2.49685
8782 2 18.3102 2.49685 2.49685
25 4 20.8071 0.832283 0
26 4 22.4717 0.832283 0
63 4 19.9748 1.66457 0
64 4 20.8071 2.49685 0
65 4 20.8071 1.66457 0.832283
66 4 22.4717 2.49685 0
67 4 22.4717 1.66457 0.832283
543 4 20.8071 0.832283 1.66457
544 4 20.8071 0 2.49685
545 4 19.9748 0.832283 2.49685
546 4 21.6394 0 1.66457
547 4 22.4717 0.832283 1.66457
548 4 22.4717 0 2.49685
549 4 21.6394 0.832283 2.49685
582 4 20.8071 2.49685 1.66457
583 4 21.6394 1.66457 1.66457
584 4 22.4717 2.49685 1.66457
8218 2 19.9748 0 0
8219 2 20.8071 0.832283 0
8220 2 19.9748 0.832283 0.832283
8221 2 21.6394 0 0
8222 2 22.4717 0 0.832283
8223 2 21.6394 0.832283 0.832283
8245 2 19.9748 1.66457 0
8246 2 20.8071 1.66457 0.832283
8247 2 21.6394 1.66457 0
8248 2 22.4717 2.49685 0
8249 2 22.4717 1.66457 0.832283
8250 2 21.6394 2.49685 0.832283
8756 2 19.9748 0.832283 2.49685
8757 2 21.6394 0 1.66457
8758 2 22.4717 0 2.49685
8783 2 19.9748 1.66457 1.66457
8784 2 20.8071 2.49685 1.66457
8785 2 19.9748 2.49685 2.49685
8786 2 21.6394 2.49685 2.49685
27 4 23.3039 0 0
28 4 24.1362 0 0.832283
29 4 23.3039 0.832283 0.832283
30 4 24.9685 0 0
31 4 25.8008 0.832283 0
68 4 23.3039 1.66457 0
69 4 24.1362 2.49685 0
70 4 24.9685 1.66457 0
71 4 25.8008 2.49685 0
72 4 24.9685 2.49685 0.832283
550 4 23.3039 0.832283 2.49685
551 4 24.9685 0 1.66457
552 4 24.9685 0.832283 2.49685
585 4 24.1362 1.66457 2.49685
586 4 25.8008 2.49685 1.66457
8224 2 24.1362 0 0.832283
8225 2 24.9685 0 0
8251 2 23.3039 1.66457 0
8252 2 24.9685 1.66457 0
8253 2 25.8008 2.49685 0
8254 2 25.8008 1.66457 0.832283
8255 2 24.9685 2.49685 0.832283
8759 2 25.8008 0.832283 1.66457
8787 2 23.3039 1.66457 1.66457
8788 2 24.1362 1.66457 2.49685
8789 2 25.8008 2.49685 1.66457
73 4 0.832283 3.32913 0.832283
74 4 2.49685 3.32913 0.832283
75 4 1.66457 4.16142 0.832283
98 4 0.832283 5.82598 0
99 4 0.832283 4.9937 0.832283
100 4 0 5.82598 0.832283
101 4 1.66457 4.9937 0
102 4 2.49685 5.82598 0
103 4 2.49685 4.9937 0.832283
587 4 0 3.32913 1.66457
588 4 0.832283 4.16142 1.66457
589 4 0.832283 3.32913 2.49685
590 4 2.49685 4.16142 1.66457
591 4 1.66457 4.16142 2.49685
611 4 0 5.82598 2.49685
612 4 2.49685 5.82598 1.66457
8256 2 0.832283 3.32913 0.832283
8257 2 0 4.16142 0.832283
8258 2 1.66457 3.32913 0
8259 2 2.49685 4.16142 0
8295 2 0 4.9937 0
8296 2 1.66457 4.9937 0
8297 2 2.49685 5.82598 0
8298 2 2.49685 4.9937 0.832283
8790 2 0 3.32913 1.66457
8791 2 0.832283 3.32913 2.49685
8792 2 0 4.16142 2.49685
8793 2 1.66457 3.32913 1.66457
8794 2 2.49685 4.16142 1.66457
8795 2 1.66457 4.16142 2.49685
8824 2 0 4.9937 1.66457
8825 2 0.832283 5.82598 1.66457
8826 2 1.66457 4.9937 1.66457
76 4 4.9937 3.32913 0
77 4 5.82598 3.32913 0.832283
104 4 3.32913 4.9937 0
105 4 4.16142 4.9937 0.832283
106 4 5.82598 5.82598 0
107 4 5.82598 4.9937 0.832283
613 4 3.32913 4.9937 1.66457
614 4 4.16142 5.82598 1.66457
615 4 3.32913 5.82598 2.49685
616 4 5.82598 5.82598 1.66457
617 4 4.9937 5.82598 2.49685
8260 2 3.32913 3.32913 0
8261 2 4.16142 3.32913 0.832283
8262 2 3.32913 4.16142 0.832283
8263 2 4.9937 3.32913 0
8264 2 4.9937 4.16142 0.832283
8299 2 3.32913 4.9937 0
8300 2 4.16142 5.82598 0
8301 2 4.9937 4.9937 0
8302 2 5.82598 5.82598 0
8303 2 4.9937 5.82598 0.832283
8796 2 4.16142 3.32913 2.49685
8797 2 3.32913 4.16142 2.49685
8798 2 5.82598 4.16142 1.66457
8799 2 4.9937 4.16142 2.49685
8827 2 3.32913 4.9937 1.66457
8828 2 4.16142 5.82598 1.66457
8829 2 5.82598 5.82598 1.66457
8830 2 4.9937 5.82598 2.49685
78 4 7.49055 3.32913 0.832283
79 4 9.15512 4.16142 0
80 4 9.15512 3.32913 0.832283
108 4 8.32283 4.9937 0
109 4 9.15512 5.82598 0
110 4 9.15512 4.9937 0.832283
592 4 6.65827 3.32913 1.66457
593 4 7.49055 3.32913 2.49685
594 4 8.32283 3.32913 1.66457
595 4 9.15512 4.16142 1.66457
618 4 8.32283 4.9937 1.66457
619 4 9.15512 4.9937 2.49685
8265 2 6.65827 3.32913 0
8266 2 7.49055 4.16142 0
8267 2 7.49055 3.32913 0.832283
8268 2 8.32283 3.32913 0
8269 2 9.15512 4.16142 0
8270 2 9.15512 3.32913 0.832283
8304 2 7.49055 5.82598 0
8305 2 7.49055 4.9937 0.832283
8306 2 9.15512 5.82598 0
8800 2 6.65827 4.16142 2.49685
8801 2 9.15512 4.16142 1.66457
8802 2 9.15512 3.32913 2.49685
8831 2 6.65827 4.9937 1.66457
8832 2 6.65827 5.82598 2.49685
81 4 9.9874 3.32913 0
82 4 10.8197 3.32913 0.832283
83 4 11.652 4.16142 0.832283
111 4 9.9874 4.9937 0
112 4 10.8197 4.9937 0.832283
113 4 9.9874 5.82598 0.832283
114 4 11.652 4.9937 0
115 4 12.4843 5.82598 0
116 4 12.4843 4.9937 0.832283
117 4 11.652 5.82598 0.832283
596 4 9.9874 3.32913 1.66457
597 4 10.8197 3.32913 2.49685
598 4 11.652 3.32913 1.66457
599 4 12.4843 4.16142 1.66457
600 4 12.4843 3.32913 2.49685
620 4 10.8197 5.82598 1.66457
621 4 12.4843 5.82598 1.66457
622 4 11.652 5.82598 2.49685
8271 2 10.8197 4.16142 0
8272 2 9.9874 4.16142 0.832283
8273 2 11.652 4.16142 0.832283
8307 2 10.8197 5.82598 0
8308 2 9.9874 5.82598 0.832283
8309 2 11.652 4.9937 0
8310 2 12.4843 4.9937 0.832283
8311 2 11.652 5.82598 0.832283
8803 2 9.9874 4.16142 2.49685
8804 2 11.652 3.32913 1.66457
8833 2 10.8197 5.82598 1.66457
8834 2 12.4843 5.82598 1.66457
84 4 14.1488 3.32913 0.832283
85 4 15.8134 4.16142 0
86 4 14.9811 4.16142 0.832283
118 4 13.3165 5.82598 0.832283
119 4 14.9811 4.9937 0
120 4 15.8134 5.82598 0
121 4 15.8134 4.9937 0.832283
122 4 14.9811 5.82598 0.832283
601 4 14.1488 4.16142 1.66457
602 4 13.3165 4.16142 2.49685
603 4 14.9811 3.32913 1.66457
623 4 13.3165 4.9937 1.66457
624 4 14.1488 5.82598 1.66457
625 4 13.3165 5.82598 2.49685
626 4 14.9811 4.9937 1.66457
627 4 15.8134 4.9937 2.49685
8274 2 13.3165 3.32913 0
8275 2 14.1488 4.16142 0
8276 2 13.3165 4.16142 0.832283
8277 2 14.9811 3.32913 0
8278 2 15.8134 4.16142 0
8279 2 15.8134 3.32913 0.832283
8280 2 14.9811 4.16142 0.832283
8312 2 13.3165 4.9937 0
8313 2 14.1488 5.82598 0
8314 2 14.9811 4.9937 0
8315 2 15.8134 4.9937 0.832283
8805 2 14.1488 4.16142 1.66457
8806 2 14.1488 3.32913 2.49685
8807 2 13.3165 4.16142 2.49685
8808 2 14.9811 4.16142 2.49685
8835 2 13.3165 4.9937 1.66457
8836 2 14.1488 5.82598 1.66457
8837 2 13.3165 5.82598 2.49685
8838 2 15.8134 5.82598 1.66457
87 4 17.478 3.32913 0.832283
88 4 16.6457 4.16142 0.832283
89 4 19.1425 3.32913 0.832283
90 4 18.3102 4.16142 0.832283
123 4 16.6457 4.9937 0
124 4 17.478 4.9937 0.832283
604 4 18.3102 3.32913 1.66457
628 4 16.6457 4.9937 1.66457
629 4 17.478 5.82598 1.66457
630 4 16.6457 5.82598 2.49685
631 4 19.1425 4.9937 2.49685
632 4 18.3102 5.82598 2.49685
8281 2 16.6457 3.32913 0
8282 2 17.478 4.16142 0
8283 2 17.478 3.32913 0.832283
8284 2 19.1425 4.16142 0
8316 2 16.6457 4.9937 0
8317 2 18.3102 4.9937 0
8318 2 18.3102 5.82598 0.832283
8809 2 17.478 4.16142 1.66457
8810 2 17.478 3.32913 2.49685
8811 2 16.6457 4.16142 2.49685
8812 2 18.3102 3.32913 1.66457
8813 2 19.1425 4.16142 1.66457
8814 2 19.1425 3.32913 2.49685
8815 2 18.3102 4.16142 2.49685
8839 2 16.6457 4.9937 1.66457
8840 2 17.478 5.82598 1.66457
8841 2 17.478 4.9937 2.49685
8842 2 16.6457 5.82598 2.49685
8843 2 19.1425 5.82598 1.66457
8844 2 18.3102 5.82598 2.49685
91 4 20.8071 4.16142 0
92 4 19.9748 4.16142 0.832283
93 4 21.6394 4.16142 0.832283
125 4 20.8071 5.82598 0
126 4 20.8071 4.9937 0.832283
127 4 19.9748 5.82598 0.832283
128 4 21.6394 4.9937 0
129 4 22.4717 4.9937 0.832283
605 4 19.9748 4.16142 2.49685
606 4 22.4717 3.32913 2.49685
607 4 21.6394 4.16142 2.49685
633 4 19.9748 4.9937 1.66457
634 4 21.6394 5.82598 2.49685
8285 2 19.9748 3.32913 0
8286 2 22.4717 4.16142 0
8287 2 22.4717 3.32913 0.832283
8288 2 21.6394 4.16142 0.832283
8319 2 22.4717 4.9937 0.832283
8320 2 21.6394 5.82598 0.832283
8816 2 19.9748 3.32913 1.66457
8817 2 20.8071 4.16142 1.66457
8818 2 20.8071 3.32913 2.49685
8819 2 19.9748 4.16142 2.49685
8820 2 22.4717 3.32913 2.49685
8845 2 19.9748 5.82598 2.49685
8846 2 21.6394 5.82598 2.49685
94 4 23.3039 3.32913 0
95 4 24.9685 3.32913 0
96 4 25.8008 4.16142 0
97 4 24.9685 4.16142 0.832283
130 4 23.3039 4.9937 0
131 4 25.8008 5.82598 0
608 4 23.3039 4.16142 2.49685
609 4 24.9685 3.32913 1.66457
610 4 25.8008 4.16142 1.66457
635 4 24.1362 5.82598 1.66457
636 4 23.3039 5.82598 2.49685
637 4 24.9685 4.9937 1.66457
638 4 25.8008 4.9937 2.49685
639 4 24.9685 5.82598 2.49685
8289 2 23.3039 3.32913 0
8290 2 24.1362 4.16142 0
8291 2 23.3039 4.16142 0.832283
8292 2 24.9685 3.32913 0
8293 2 25.8008 4.16142 0
8294 2 24.9685 4.16142 0.832283
8321 2 23.3039 4.9937 0
8322 2 23.3039 5.82598 0.832283
8323 2 24.9685 4.9937 0
8324 2 25.8008 5.82598 0
8325 2 24.9685 5.82598 0.832283
8821 2 23.3039 4.16142 2.49685
8822 2 25.8008 4.16142 1.66457
8823 2 25.8008 3.32913 2.49685
8847 2 23.3039 4.9937 1.66457
8848 2 24.1362 5.82598 1.66457
8849 2 24.1362 4.9937 2.49685
8850 2 23.3039 5.82598 2.49685
8851 2 25.8008 5.82598 1.66457
132 4 0.832283 7.49055 0
133 4 2.49685 7.49055 0
160 4 0 8.32283 0
161 4 0.832283 9.15512 0
162 4 0.832283 8.32283 0.832283
163 4 0 9.15512 0.832283
164 4 1.66457 8.32283 0
165 4 2.49685 8.32283 0.832283
640 4 0.832283 7.49055 1.66457
641 4 0.832283 6.65827 2.49685
642 4 0 7.49055 2.49685
643 4 2.49685 6.65827 2.49685
672 4 0 8.32283 1.66457
673 4 0.832283 8.32283 2.49685
674 4 0 9.15512 2.49685
675 4 1.66457 8.32283 1.66457
676 4 2.49685 9.15512 1.66457
677 4 2.49685 8.32283 2.49685
678 4 1.66457 9.15512 2.49685
8326 2 0.832283 7.49055 0
8327 2 0.832283 6.65827 0.832283
8328 2 0 7.49055 0.832283
8329 2 1.66457 6.65827 0
8330 2 2.49685 7.49055 0
8331 2 2.49685 6.65827 0.832283
8332 2 1.66457 7.49055 0.832283
8366 2 0 8.32283 0
8367 2 0.832283 9.15512 0
8368 2 0.832283 8.32283 0.832283
8369 2 0 9.15512 0.832283
8370 2 1.66457 8.32283 0
8371 2 2.49685 9.15512 0
8372 2 2.49685 8.32283 0.832283
8373 2 1.66457 9.15512 0.832283
8852 2 0 6.65827 1.66457
8853 2 0.832283 7.49055 1.66457
8854 2 0.832283 6.65827 2.49685
8855 2 0 7.49055 2.49685
8856 2 1.66457 6.65827 1.66457
8857 2 2.49685 7.49055 1.66457
8858 2 2.49685 6.65827 2.49685
8859 2 1.66457 7.49055 2.49685
8880 2 0 8.32283 1.66457
8881 2 0.832283 8.32283 2.49685
8882 2 0 9.15512 2.49685
8883 2 1.66457 8.32283 1.66457
8884 2 2.49685 9.15512 1.66457
8885 2 2.49685 8.32283 2.49685
134 4 4.16142 6.65827 0.832283
135 4 4.9937 7.49055 0.832283
166 4 4.16142 9.15512 0
167 4 4.16142 8.32283 0.832283
168 4 3.32913 9.15512 0.832283
169 4 5.82598 8.32283 0.832283
170 4 4.9937 9.15512 0.832283
644 4 5.82598 6.65827 2.49685
645 4 4.9937 7.49055 2.49685
679 4 3.32913 8.32283 1.66457
680 4 4.16142 9.15512 1.66457
681 4 4.16142 8.32283 2.49685
682 4 4.9937 8.32283 1.66457
683 4 5.82598 9.15512 1.66457
684 4 4.9937 9.15512 2.49685
8333 2 3.32913 6.65827 0
8334 2 4.16142 7.49055 0
8335 2 3.32913 7.49055 0.832283
8336 2 5.82598 7.49055 0
8374 2 3.32913 8.32283 0
8375 2 4.16142 9.15512 0
8376 2 5.82598 9.15512 0
8377 2 5.82598 8.32283 0.832283
8860 2 4.16142 7.49055 1.66457
8861 2 3.32913 7.49055 2.49685
8862 2 4.9937 7.49055 2.49685
8886 2 3.32913 8.32283 1.66457
8887 2 4.16142 9.15512 1.66457
8888 2 5.82598 9.15512 1.66457
8889 2 4.9937 9.15512 2.49685
136 4 6.65827 7.49055 0.832283
137 4 8.32283 6.65827 0
138 4 9.15512 7.49055 0
171 4 6.65827 8.32283 0
172 4 7.49055 9.15512 0
173 4 7.49055 8.32283 0.832283
174 4 6.65827 9.15512 0.832283
175 4 8.32283 8.32283 0
176 4 8.32283 9.15512 0.832283
646 4 7.49055 6.65827 2.49685
647 4 6.65827 7.49055 2.49685
648 4 9.15512 6.65827 2.49685
649 4 8.32283 7.49055 2.49685
685 4 6.65827 8.32283 1.66457
686 4 7.49055 9.15512 1.66457
687 4 7.49055 8.32283 2.49685
688 4 8.32283 8.32283 1.66457
689 4 9.15512 9.15512 1.66457
690 4 9.15512 8.32283 2.49685
8337 2 7.49055 7.49055 0
8338 2 7.49055 6.65827 0.832283
8339 2 6.65827 7.49055 0.832283
8340 2 8.32283 6.65827 0
8341 2 9.15512 6.65827 0.832283
8342 2 8.32283 7.49055 0.832283
8378 2 6.65827 8.32283 0
8379 2 7.49055 9.15512 0
8380 2 7.49055 8.32283 0.832283
8381 2 6.65827 9.15512 0.832283
8382 2 9.15512 9.15512 0
8383 2 9.15512 8.32283 0.832283
8863 2 7.49055 7.49055 1.66457
8864 2 8.32283 6.65827 1.66457
8865 2 9.15512 6.65827 2.49685
8890 2 6.65827 8.32283 1.66457
8891 2 7.49055 9.15512 1.66457
8892 2 9.15512 9.15512 1.66457
8893 2 9.15512 8.32283 2.49685
139 4 9.9874 6.65827 0
140 4 10.8197 7.49055 0
141 4 12.4843 7.49055 0
142 4 11.652 7.49055 0.832283
177 4 9.9874 8.32283 0
178 4 10.8197 9.15512 0
179 4 12.4843 9.15512 0
650 4 10.8197 6.65827 2.49685
651 4 9.9874 7.49055 2.49685
652 4 12.4843 7.49055 1.66457
653 4 11.652 7.49055 2.49685
691 4 10.8197 9.15512 1.66457
692 4 10.8197 8.32283 2.49685
693 4 9.9874 9.15512 2.49685
8343 2 10.8197 7.49055 0
8344 2 10.8197 6.65827 0.832283
8345 2 9.9874 7.49055 0.832283
8346 2 11.652 7.49055 0.832283
8384 2 10.8197 9.15512 0
8385 2 10.8197 8.32283 0.832283
8386 2 11.652 8.32283 0
8387 2 12.4843 9.15512 0
8866 2 9.9874 6.65827 1.66457
8867 2 10.8197 7.49055 1.66457
8868 2 11.652 6.65827 1.66457
8869 2 12.4843 7.49055 1.66457
8894 2 9.9874 8.32283 1.66457
8895 2 10.8197 9.15512 1.66457
8896 2 9.9874 9.15512 2.49685
8897 2 11.652 8.32283 1.66457
143 4 14.1488 6.65827 0.832283
144 4 13.3165 7.49055 0.832283
145 4 15.8134 7.49055 0
146 4 15.8134 6.65827 0.832283
147 4 14.9811 7.49055 0.832283
180 4 14.9811 8.32283 0
181 4 15.8134 9.15512 0
182 4 14.9811 9.15512 0.832283
654 4 13.3165 6.65827 1.66457
655 4 14.1488 7.49055 1.66457
656 4 14.1488 6.65827 2.49685
657 4 14.9811 6.65827 1.66457
658 4 15.8134 7.49055 1.66457
694 4 14.1488 8.32283 2.49685
695 4 13.3165 9.15512 2.49685
696 4 15.8134 8.32283 2.49685
8347 2 14.1488 7.49055 0
8348 2 13.3165 7.49055 0.832283
8349 2 15.8134 6.65827 0.832283
8350 2 14.9811 7.49055 0.832283
8388 2 13.3165 9.15512 0.832283
8389 2 15.8134 9.15512 0
8390 2 15.8134 8.32283 0.832283
8870 2 14.1488 7.49055 1.66457
8871 2 15.8134 7.49055 1.66457
8872 2 15.8134 6.65827 2.49685
8873 2 14.9811 7.49055 2.49685
8898 2 14.1488 9.15512 1.66457
8899 2 15.8134 9.15512 1.66457
8900 2 15.8134 8.32283 2.49685
8901 2 14.9811 9.15512 2.49685
148 4 16.6457 6.65827 0
149 4 17.478 7.49055 0
150 4 16.6457 7.49055 0.832283
151 4 19.1425 7.49055 0
183 4 16.6457 8.32283 0
184 4 18.3102 8.32283 0
185 4 18.3102 9.15512 0.832283
659 4 17.478 7.49055 1.66457
660 4 18.3102 6.65827 1.66457
661 4 19.1425 7.49055 1.66457
697 4 16.6457 9.15512 2.49685
698 4 18.3102 8.32283 1.66457
699 4 19.1425 9.15512 1.66457
700 4 18.3102 9.15512 2.49685
8351 2 17.478 7.49055 0
8352 2 16.6457 7.49055 0.832283
8353 2 18.3102 6.65827 0
8354 2 19.1425 6.65827 0.832283
8355 2 18.3102 7.49055 0.832283
8391 2 16.6457 8.32283 0
8392 2 17.478 9.15512 0
8393 2 17.478 8.32283 0.832283
8394 2 18.3102 9.15512 0.832283
8874 2 17.478 7.49055 1.66457
8875 2 17.478 6.65827 2.49685
8876 2 16.6457 7.49055 2.49685
8902 2 16.6457 8.32283 1.66457
8903 2 17.478 9.15512 1.66457
8904 2 16.6457 9.15512 2.49685
8905 2 19.1425 8.32283 2.49685
152 4 19.9748 6.65827 0
153 4 20.8071 7.49055 0
154 4 19.9748 7.49055 0.832283
155 4 21.6394 6.65827 0
156 4 22.4717 6.65827 0.832283
157 4 21.6394 7.49055 0.832283
186 4 20.8071 8.32283 0.832283
187 4 22.4717 9.15512 0
188 4 22.4717 8.32283 0.832283
189 4 21.6394 9.15512 0.832283
662 4 19.9748 6.65827 1.66457
663 4 20.8071 7.49055 1.66457
664 4 21.6394 6.65827 1.66457
665 4 22.4717 6.65827 2.49685
666 4 21.6394 7.49055 2.49685
701 4 19.9748 8.32283 1.66457
702 4 21.6394 8.32283 1.66457
703 4 22.4717 9.15512 1.66457
704 4 22.4717 8.32283 2.49685
8356 2 19.9748 6.65827 0
8357 2 20.8071 6.65827 0.832283
8358 2 19.9748 7.49055 0.832283
8359 2 22.4717 6.65827 0.832283
8360 2 21.6394 7.49055 0.832283
8395 2 19.9748 8.32283 0
8396 2 20.8071 8.32283 0.832283
8397 2 19.9748 9.15512 0.832283
8398 2 21.6394 8.32283 0
8399 2 22.4717 8.32283 0.832283
8400 2 21.6394 9.15512 0.832283
8877 2 20.8071 6.65827 2.49685
8878 2 21.6394 6.65827 1.66457
8906 2 19.9748 8.32283 1.66457
8907 2 20.8071 9.15512 1.66457
8908 2 20.8071 8.32283 2.49685
8909 2 21.6394 8.32283 1.66457
8910 2 22.4717 9.15512 1.66457
8911 2 22.4717 8.32283 2.49685
8912 2 21.6394 9.15512 2.49685
158 4 23.3039 6.65827 0
159 4 24.9685 7.49055 0.832283
190 4 24.1362 9.15512 0
191 4 25.8008 9.15512 0
192 4 25.8008 8.32283 0.832283
667 4 23.3039 6.65827 1.66457
668 4 24.1362 7.49055 1.66457
669 4 24.1362 6.65827 2.49685
670 4 25.8008 6.65827 2.49685
671 4 24.9685 7.49055 2.49685
705 4 23.3039 8.32283 1.66457
706 4 24.1362 9.15512 1.66457
707 4 24.1362 8.32283 2.49685
708 4 23.3039 9.15512 2.49685
709 4 24.9685 8.32283 1.66457
710 4 25.8008 9.15512 1.66457
8361 2 24.1362 7.49055 0
8362 2 24.9685 6.65827 0
8363 2 25.8008 7.49055 0
8364 2 25.8008 6.65827 0.832283
8365 2 24.9685 7.49055 0.832283
8401 2 23.3039 8.32283 0
8402 2 24.1362 9.15512 0
8403 2 25.8008 9.15512 0
8879 2 25.8008 6.65827 2.49685
8913 2 24.1362 9.15512 1.66457
8914 2 24.1362 8.32283 2.49685
8915 2 23.3039 9.15512 2.49685
8916 2 24.9685 8.32283 1.66457
8917 2 25.8008 8.32283 2.49685
193 4 0.832283 10.8197 0
194 4 0.832283 9.9874 0.832283
195 4 0 10.8197 0.832283
196 4 1.66457 9.9874 0
197 4 2.49685 10.8197 0
230 4 0 11.652 0
231 4 0.832283 12.4843 0
232 4 0.832283 11.652 0.832283
233 4 0 12.4843 0.832283
234 4 2.49685 12.4843 0
235 4 2.49685 11.652 0.832283
236 4 1.66457 12.4843 0.832283
711 4 0 9.9874 1.66457
712 4 0.832283 10.8197 1.66457
713 4 1.66457 9.9874 1.66457
714 4 1.66457 10.8197 2.49685
747 4 0 11.652 1.66457
748 4 0.832283 12.4843 1.66457
749 4 0.832283 11.652 2.49685
750 4 1.66457 11.652 1.66457
751 4 2.49685 11.652 2.49685
8404 2 1.66457 9.9874 0
8405 2 1.66457 10.8197 0.832283
8431 2 0 11.652 0
8432 2 0.832283 12.4843 0
8433 2 0.832283 11.652 0.832283
8434 2 0 12.4843 0.832283
8435 2 2.49685 12.4843 0
8436 2 2.49685 11.652 0.832283
8918 2 0 9.9874 1.66457
8919 2 0.832283 10.8197 1.66457
8920 2 1.66457 9.9874 1.66457
8921 2 2.49685 10.8197 1.66457
8922 2 2.49685 9.9874 2.49685
8952 2 0 11.652 1.66457
8953 2 0.832283 12.4843 1.66457
8954 2 2.49685 12.4843 1.66457
8955 2 2.49685 11.652 2.49685
198 4 3.32913 9.9874 0
199 4 4.16142 10.8197 0
200 4 4.16142 9.9874 0.832283
201 4 3.32913 10.8197 0.832283
202 4 4.9937 9.9874 0
203 4 5.82598 10.8197 0
204 4 5.82598 9.9874 0.832283
237 4 4.16142 11.652 0.832283
238 4 3.32913 12.4843 0.832283
239 4 4.9937 11.652 0
240 4 5.82598 11.652 0.832283
241 4 4.9937 12.4843 0.832283
715 4 4.16142 10.8197 1.66457
716 4 4.16142 9.9874 2.49685
717 4 3.32913 10.8197 2.49685
718 4 4.9937 9.9874 1.66457
719 4 5.82598 10.8197 1.66457
720 4 4.9937 10.8197 2.49685
752 4 4.16142 12.4843 1.66457
753 4 5.82598 12.4843 1.66457
754 4 5.82598 11.652 2.49685
8406 2 3.32913 9.9874 0
8407 2 4.16142 10.8197 0
8408 2 4.9937 9.9874 0
8409 2 4.9937 10.8197 0.832283
8437 2 3.32913 11.652 0
8438 2 4.16142 12.4843 0
8439 2 4.16142 11.652 0.832283
8440 2 3.32913 12.4843 0.832283
8923 2 3.32913 9.9874 1.66457
8924 2 4.16142 10.8197 1.66457
8925 2 4.16142 9.9874 2.49685
8926 2 4.9937 9.9874 1.66457
8927 2 5.82598 10.8197 1.66457
8956 2 3.32913 11.652 1.66457
8957 2 4.16142 11.652 2.49685
8958 2 5.82598 12.4843 1.66457
8959 2 5.82598 11.652 2.49685
8960 2 4.9937 12.4843 2.49685
205 4 7.49055 10.8197 0
206 4 7.49055 9.9874 0.832283
207 4 9.15512 10.8197 0
208 4 8.32283 10.8197 0.832283
242 4 7.49055 12.4843 0
243 4 7.49055 11.652 0.832283
244 4 6.65827 12.4843 0.832283
721 4 6.65827 9.9874 1.66457
722 4 6.65827 10.8197 2.49685
723 4 9.15512 10.8197 1.66457
724 4 9.15512 9.9874 2.49685
755 4 6.65827 11.652 1.66457
756 4 7.49055 12.4843 1.66457
757 4 6.65827 12.4843 2.49685
758 4 8.32283 12.4843 2.49685
8410 2 6.65827 9.9874 0
8411 2 7.49055 10.8197 0
8412 2 6.65827 10.8197 0.832283
8413 2 8.32283 9.9874 0
8414 2 9.15512 9.9874 0.832283
8441 2 7.49055 11.652 0.832283
8442 2 9.15512 12.4843 0
8443 2 9.15512 11.652 0.832283
8928 2 6.65827 9.9874 1.66457
8929 2 7.49055 9.9874 2.49685
8930 2 9.15512 10.8197 1.66457
8931 2 9.15512 9.9874 2.49685
8961 2 6.65827 12.4843 2.49685
8962 2 8.32283 11.652 1.66457
8963 2 9.15512 12.4843 1.66457
8964 2 8.32283 12.4843 2.49685
209 4 9.9874 9.9874 0
210 4 10.8197 10.8197 0
211 4 12.4843 10.8197 0
245 4 9.9874 11.652 0
246 4 10.8197 11.652 0.832283
247 4 12.4843 12.4843 0
248 4 12.4843 11.652 0.832283
249 4 11.652 12.4843 0.832283
725 4 10.8197 9.9874 2.49685
726 4 9.9874 10.8197 2.49685
727 4 12.4843 10.8197 1.66457
759 4 9.9874 11.652 1.66457
760 4 9.9874 12.4843 2.49685
761 4 12.4843 11.652 2.49685
762 4 11.652 12.4843 2.49685
8415 2 10.8197 10.8197 0
8416 2 10.8197 9.9874 0.832283
8417 2 11.652 9.9874 0
8418 2 12.4843 9.9874 0.832283
8444 2 10.8197 12.4843 0
8445 2 10.8197 11.652 0.832283
8446 2 11.652 11.652 0
8932 2 9.9874 10.8197 2.49685
8933 2 11.652 9.9874 1.66457
8934 2 12.4843 10.8197 1.66457
8935 2 11.652 10.8197 2.49685
8965 2 11.652 11.652 1.66457
212 4 13.3165 9.9874 0
213 4 14.1488 10.8197 0
214 4 14.1488 9.9874 0.832283
215 4 13.3165 10.8197 0.832283
216 4 15.8134 10.8197 0
217 4 15.8134 9.9874 0.832283
250 4 13.3165 12.4843 0.832283
251 4 14.9811 11.652 0
728 4 13.3165 9.9874 1.66457
729 4 14.1488 10.8197 1.66457
730 4 14.1488 9.9874 2.49685
731 4 14.9811 9.9874 1.66457
732 4 15.8134 9.9874 2.49685
733 4 14.9811 10.8197 2.49685
763 4 14.1488 11.652 2.49685
764 4 13.3165 12.4843 2.49685
765 4 14.9811 11.652 1.66457
766 4 15.8134 11.652 2.49685
8419 2 13.3165 9.9874 0
8420 2 14.1488 9.9874 0.832283
8421 2 14.9811 9.9874 0
8422 2 15.8134 10.8197 0
8423 2 15.8134 9.9874 0.832283
8447 2 13.3165 11.652 0
8448 2 14.1488 12.4843 0
8449 2 14.9811 11.652 0
8450 2 15.8134 11.652 0.832283
8936 2 14.1488 10.8197 1.66457
8937 2 14.9811 9.9874 1.66457
8938 2 15.8134 10.8197 1.66457
8939 2 15.8134 9.9874 2.49685
8940 2 14.9811 10.8197 2.49685
8966 2 13.3165 11.652 1.66457
8967 2 14.1488 11.652 2.49685
8968 2 14.9811 11.652 1.66457
8969 2 15.8134 12.4843 1.66457
8970 2 14.9811 12.4843 2.49685
218 4 16.6457 9.9874 0
219 4 17.478 9.9874 0.832283
220 4 18.3102 9.9874 0
221 4 19.1425 10.8197 0
252 4 16.6457 11.652 0
253 4 17.478 11.652 0.832283
254 4 19.1425 12.4843 0
734 4 16.6457 9.9874 1.66457
735 4 17.478 10.8197 1.66457
736 4 19.1425 10.8197 1.66457
737 4 19.1425 9.9874 2.49685
738 4 18.3102 10.8197 2.49685
767 4 17.478 12.4843 1.66457
768 4 16.6457 12.4843 2.49685
769 4 18.3102 11.652 1.66457
8424 2 16.6457 9.9874 0
8425 2 17.478 10.8197 0
8426 2 19.1425 10.8197 0
8427 2 18.3102 10.8197 0.832283
8451 2 16.6457 11.652 0
8452 2 17.478 12.4843 0
8453 2 17.478 11.652 0.832283
8454 2 18.3102 11.652 0
8455 2 18.3102 12.4843 0.832283
8941 2 17.478 10.8197 1.66457
8942 2 17.478 9.9874 2.49685
8943 2 18.3102 9.9874 1.66457
8971 2 17.478 12.4843 1.66457
8972 2 17.478 11.652 2.49685
8973 2 16.6457 12.4843 2.49685
8974 2 19.1425 12.4843 1.66457
222 4 20.8071 10.8197 0
223 4 20.8071 9.9874 0.832283
224 4 21.6394 9.9874 0
225 4 21.6394 10.8197 0.832283
255 4 20.8071 12.4843 0
256 4 20.8071 11.652 0.832283
257 4 21.6394 12.4843 0.832283
739 4 19.9748 9.9874 1.66457
740 4 20.8071 10.8197 1.66457
741 4 22.4717 9.9874 2.49685
742 4 21.6394 10.8197 2.49685
770 4 20.8071 11.652 2.49685
771 4 19.9748 12.4843 2.49685
772 4 21.6394 11.652 1.66457
773 4 22.4717 12.4843 1.66457
774 4 21.6394 12.4843 2.49685
8428 2 19.9748 10.8197 0.832283
8429 2 22.4717 9.9874 0.832283
8456 2 19.9748 11.652 0
8457 2 20.8071 12.4843 0
8458 2 19.9748 12.4843 0.832283
8459 2 22.4717 12.4843 0
8944 2 20.8071 10.8197 1.66457
8945 2 20.8071 9.9874 2.49685
8946 2 19.9748 10.8197 2.49685
8947 2 21.6394 9.9874 1.66457
8948 2 22.4717 9.9874 2.49685
8975 2 19.9748 12.4843 2.49685
8976 2 22.4717 12.4843 1.66457
8977 2 22.4717 11.652 2.49685
226 4 23.3039 9.9874 0
227 4 24.1362 10.8197 0
228 4 23.3039 10.8197 0.832283
229 4 25.8008 10.8197 0
258 4 24.1362 12.4843 0
259 4 25.8008 11.652 0.832283
743 4 24.1362 10.8197 1.66457
744 4 24.1362 9.9874 2.49685
745 4 25.8008 10.8197 1.66457
746 4 25.8008 9.9874 2.49685
775 4 24.1362 11.652 2.49685
776 4 24.9685 11.652 1.66457
777 4 25.8008 12.4843 1.66457
8430 2 24.1362 10.8197 0
8460 2 24.1362 12.4843 0
8461 2 23.3039 12.4843 0.832283
8462 2 25.8008 12.4843 0
8949 2 23.3039 9.9874 1.66457
8950 2 23.3039 10.8197 2.49685
8951 2 25.8008 9.9874 2.49685
8978 2 24.1362 11.652 2.49685
8979 2 23.3039 12.4843 2.49685
8980 2 25.8008 12.4843 1.66457
260 4 0 13.3165 0
261 4 0.832283 14.1488 0
262 4 0 14.1488 0.832283
263 4 1.66457 13.3165 0
264 4 2.49685 14.1488 0
265 4 2.49685 13.3165 0.832283
266 4 1.66457 14.1488 0.832283
294 4 0.832283 15.8134 0
295 4 1.66457 14.9811 0
296 4 2.49685 15.8134 0
778 4 0 13.3165 1.66457
779 4 0.832283 14.1488 1.66457
780 4 0 14.1488 2.49685
781 4 1.66457 13.3165 1.66457
782 4 1.66457 14.1488 2.49685
811 4 1.66457 14.9811 1.66457
812 4 2.49685 15.8134 1.66457