ITEM: TIMESTEP
0
ITEM: NUMBER OF ATOMS
50688
ITEM: BOX BOUNDS xy xz yz pp pp pp
-20.3673 67.9698334 8.0575438
-22.2210007 65.3610001 0.0
-22.2210007 65.3610001 0.0
ITEM: ATOMS id type x y z VoronoiIndex1 VoronoiIndex2 VoronoiIndex3 VoronoiIndex4 VoronoiIndex5 VoronoiIndex6 VoronoiIndex7 VoronoiIndex8 VoronoiIndex9 AtomicVolume
7 2 -11.5799999 -13.7100001 -3.3970001 0 0 0 1 10 2 0 0 0 12.082058
21 2 -13.6999998 2.0339999 14.3599997 0 0 0 0 12 0 0 0 0 11.0496693
26 5 -15.9399996 -17.3799992 -9.1610003 0 0 0 1 10 4 0 0 0 13.1681366
28 2 4.8540002 4.6490002 -10.0699997 0 0 0 0 12 0 0 0 0 11.0249414
36 2 12.9399996 -15.0799999 -20.7999993 0 0 0 2 8 2 0 0 0 10.7023449
38 5 7.9099998 -11.1400003 16.9500008 0 0 0 1 10 4 0 0 0 13.4470587
42 2 11.0100002 -3.5339999 -21.3999996 0 0 0 0 12 0 0 0 0 11.0746203
43 5 0.5866 12.4600001 10.1499996 0 0 0 3 6 5 0 0 0 12.2224341
50 2 13.29 -3.359 -22.0100002 0 0 0 0 12 0 0 0 0 11.1209955
61 4 -12.0600004 -8.4949999 -3.059 0 0 0 2 8 4 0 0 0 13.4536143
66 4 -17.7099991 -5.434 -2.55 0 0 0 1 10 3 0 0 0 12.9671336
68 1 -16.9200002 -0.6977 2.8510002 0 0 1 3 4 3 1 0 0 11.0182543
98 2 2.4470001 -8.4370003 18.9099998 0 0 0 0 12 0 0 0 0 10.8678684
128 5 -11.3999996 6.3020001 -10.8400002 0 0 0 3 6 4 0 0 0 12.669013
145 4 -5.3740001 -22.1200008 -19.4400006 0 0 0 0 12 2 0 0 0 12.3569546
146 4 2.7249999 9.3199997 -11.2100001 0 0 0 1 10 4 0 0 0 12.8615972
150 2 -13.6599999 8.1820002 9.1169996 0 0 0 3 6 3 0 0 0 11.1736317
171 2 5.8369999 -0.8435 -3.1040001 0 0 0 1 10 2 0 0 0 11.7928076
176 5 9.9540006 -20.5799999 11.79 0 0 0 2 8 3 0 0 0 11.7052946
177 5 13.9300004 14.4899998 -20.0300007 0 0 0 1 10 2 0 0 0 11.5302954
181 5 -7.3590002 -11.1499996 5.7490001 0 0 0 0 12 0 0 0 0 11.1066456
191 5 -11.5799999 5.7059999 -13.3400002 0 0 0 2 10 4 0 0 0 13.3743076
200 4 -16.8700008 -11.0699997 12.1700001 0 0 0 3 6 4 0 0 0 12.4297371
216 2 13.8900004 16.7900009 11.96 0 0 0 0 12 0 0 0 0 11.2714119
219 4 10.6400004 -2.6659999 16.1700001 0 0 0 2 10 2 0 0 0 12.1277361
220 2 -5.481 17.6499996 -5.3210001 0 0 0 1 10 2 0 0 0 11.5198498
231 4 -14.5799999 3.7980001 7.0100002 0 0 0 2 10 0 0 0 0 12.0476809
240 2 2.303 10.7700005 6.1690002 0 0 0 2 8 2 0 0 0 11.5215597
241 2 22.5 13.0600004 -1.6 0 0 0 1 10 3 0 0 0 12.4223852
243 4 7.2220001 17.5799999 -1.9400002 0 0 1 1 9 4 0 0 0 12.8776628
244 5 -7.5339999 -12.5900002 -20.4400006 0 0 0 1 10 2 0 0 0 12.4376307
245 1 16.8600006 -17.7099991 5.6620002 0 0 0 2 10 1 0 0 0 12.0008841
249 4 -6.2379999 -6.2420001 18.9699994 0 0 0 1 10 4 0 0 0 12.7751618
260 2 -17.2000008 6.6830001 -15.79 0 0 0 0 12 0 0 0 0 12.1753902
262 2 1.129 2.9000002 9.7250004 0 0 0 1 10 3 0 0 0 12.9492446
263 1 -7.7620001 -2.826 -16.4300003 0 0 0 0 12 0 0 0 0 11.4861298
266 5 17.5200005 -17.8400002 16.6700001 0 0 1 2 7 2 2 0 0 11.6757937
277 4 -14.54 -0.4318 -6.81 0 0 1 2 6 3 1 0 0 12.6142884
283 5 -2.4790001 10.6199999 -10.6999998 0 0 0 0 12 3 0 0 0 12.8759976
298 4 -5.389 17.6299992 3.523 0 0 0 1 10 5 0 0 0 12.3125782
301 1 -12.8199997 18.8500004 20.4899998 0 0 0 2 8 4 0 0 0 12.3671055
311 5 -10.4899998 14.1499996 -4.6789999 0 0 0 3 8 5 0 0 0 13.3613262
318 5 -2.985 -14.4600001 -6.2379999 0 0 1 4 3 5 0 0 0 11.7596588
322 4 -9.3990002 -8.3360005 3.1540001 0 0 0 0 12 2 0 0 0 12.5077296
335 1 -17.3400002 -18.2000008 -5.7750001 0 0 0 2 8 3 0 0 0 12.1622648
336 4 -11.1000004 -16.4300003 -2.5720001 0 0 1 1 9 4 0 0 0 12.5135203
362 5 -9.448 -9.4610005 -4.112 0 0 0 1 12 2 0 0 0 13.7221794
370 5 -15.9799996 -16.9400006 -11.6700001 0 0 0 0 12 2 0 0 0 12.7405615
372 5 9.955 -19.7099991 3.5850001 0 0 2 2 4 4 2 0 0 11.942587
377 5 -4.658 15.8500004 -0.6946 0 0 0 3 8 4 0 0 0 13.5876827
398 1 -2.4330001 0.455 -1.005 0 0 0 2 8 4 0 0 0 11.7753821
416 2 -9.2659998 -21.3700009 -11.5 0 0 1 3 4 5 1 0 0 11.8888254
431 2 -4.1389999 19.7900009 -19.6000004 0 0 0 3 6 4 0 0 0 11.6911373
439 4 -16.4799996 -8.2930002 15.5500002 0 0 1 3 7 4 0 0 0 12.3265562
442 4 2.1789999 -20.9400006 -12.2299996 0 0 0 1 10 4 0 0 0 13.2105465
452 4 -13.7399998 -22.1599999 -20.5599995 0 0 0 2 10 0 0 0 0 11.2634869
482 4 6.526 -0.1783 -19.5900002 0 0 0 1 8 4 0 0 0 12.5195885
506 4 -3.5320001 -0.401 16.3400002 0 0 0 1 12 2 0 0 0 13.0628634
527 5 10.3599997 -5.1290002 4.7270003 0 0 0 2 8 4 0 0 0 11.8655454
531 5 20.5499993 6.5890003 12.7299996 0 0 0 2 8 4 0 0 0 12.2680187
537 2 2.4849999 17.7600003 4.7740002 0 0 0 4 6 1 0 0 0 11.1582775
539 2 -0.01278 -21.7199993 -16.3400002 0 0 0 3 6 5 0 0 0 11.9106084
548 4 -0.3772 -8.4770003 1.709 0 0 1 4 5 3 2 0 0 12.3834782
549 5 -14.54 12.79 -17.1800003 0 0 0 2 8 5 0 0 0 12.0896997
553 4 9.3100004 4.7529998 -21.5499993 0 0 0 0 12 0 0 0 0 11.0816526
559 4 15.96 5.6129999 -21.4799996 0 0 1 0 11 1 0 0 0 11.8111735
561 4 5.7529998 14.7100001 -5.7849999 0 0 4 4 1 6 2 0 1 13.3042002
564 4 -3.2219999 4.086 -11.6899996 0 0 0 2 9 3 1 0 0 13.006916
569 2 8.7130003 -3.468 4.4109998 0 0 0 2 8 2 0 0 0 11.5160885
570 4 -16.6000004 -20.4899998 -5.941 0 0 0 3 6 4 0 0 0 11.9266654
571 5 -13.8199997 6.0149999 8.375 0 0 0 3 8 2 0 0 0 12.4152708
587 5 19.5100003 17.3799992 16.6299992 0 0 1 3 6 3 1 0 0 12.2498846
597 2 -1.055 -17.5300007 -13.5100003 0 0 1 2 7 4 0 0 0 11.5009604
613 5 16.4099999 -5.3709998 -1.5880001 0 0 1 4 3 6 0 0 0 12.1271095
618 2 -0.04293 6.651 -12.7299996 0 0 0 0 12 0 0 0 0 10.989213
623 4 17.8700008 17.2199993 4.7020002 0 0 0 1 10 2 0 0 0 12.3639984
638 5 -12.1999998 -8.8319998 9.0699997 0 0 0 3 8 2 0 0 0 11.9712172
643 5 -11.1999998 4.2820001 2.033 0 0 0 2 8 2 0 0 0 11.5050211
645 5 -11.4499998 16.7800007 5.8520002 0 0 1 2 7 3 0 0 0 11.7180558
649 4 18.9599992 -18.8899994 8.7659998 0 0 0 0 12 2 0 0 0 12.6267796
654 4 3.7360001 -17.0799999 1.151 0 0 0 3 6 4 0 0 0 12.0115423
671 2 3.0150001 -9.8129998 9.2860003 0 0 0 0 12 0 0 0 0 11.0533276
672 2 22.3500004 20.7299996 -17.2099991 0 0 0 3 8 2 0 0 0 12.1002178
681 2 -14.2799997 20.1399994 -7.9790002 0 0 1 3 4 4 1 0 0 11.9686452
699 5 18.4300003 3.652 3.118 0 0 1 2 7 5 0 0 0 13.1388378
726 5 19.8299999 -8.0229998 8.717 0 0 0 0 12 2 0 0 0 12.5421143
727 5 -6.4390002 -20.7600003 21.2299996 0 0 0 4 4 7 0 0 0 13.113781
729 1 0.7523 -22.2199993 9.1829996 0 0 0 2 8 4 0 0 0 11.4551974
741 4 4.7649999 15.5600004 2.0039999 0 0 0 5 4 3 2 0 0 12.1409607
742 4 12.75 2.717 9.2040005 0 0 0 3 7 4 1 0 0 12.0292044
745 4 3.8310001 21.3400002 -21.0900002 0 0 0 1 10 3 0 0 0 12.0822363
755 5 14.9099998 -14.1499996 -17.5100003 0 0 0 3 8 3 0 0 0 11.924058
758 2 6.7259999 11.1800003 14.9499998 0 0 0 3 8 0 0 0 0 11.5566759
760 1 8.7279997 8.863 -17.1000004 0 0 1 0 11 1 0 0 0 11.8638698
762 5 19.3400002 -5.3080001 -7.9899998 0 0 1 4 5 6 0 0 0 12.943225
765 1 -2.066 12.0200005 -21.2800007 0 0 1 0 11 1 0 0 0 11.1876392
818 5 7.2979999 10.1700001 5.3309999 0 0 1 3 9 2 0 0 0 12.6126852
842 5 11.3400002 0.7667001 -6.3790002 0 0 1 3 5 6 0 0 0 12.0779915
849 4 -2.3970001 3.3080001 12.2700005 0 0 0 3 8 1 0 0 0 11.7893219
850 5 5.2280002 18.0900002 -17.8899994 0 0 0 0 12 0 0 0 0 11.3205967
882 3 -7.9640002 17.1100006 16.2700005 0 0 2 2 4 3 2 1 0 13.2435389
899 4 -1.37 -9.5179997 -0.6326 0 0 0 0 12 2 0 0 0 12.6925164
901 4 1.106 19.1100006 -1.25 0 0 0 0 12 2 0 0 0 12.0609484
926 5 -0.399 7.586 8.9469996 0 0 0 0 11 3 1 0 0 13.3043451
936 1 2.0739999 12.9399996 -14.6499996 0 0 0 0 12 0 0 0 0 10.7845345
941 5 1.785 5.0320001 14.2700005 0 0 0 3 6 5 0 0 0 12.0964775
946 4 -2.487 -13.5500002 20.9699994 0 0 0 0 12 2 0 0 0 12.0195665
950 3 -2.049 -1.628 6.5050001 0 0 0 1 10 5 0 0 0 12.6332016
951 5 9.6809998 16.4899998 -0.9955 0 0 0 1 12 2 0 0 0 13.6534777
958 5 13.5799999 8.5159998 -1.921 0 0 0 5 6 3 0 0 0 12.842803
961 2 -1.333 18.5300007 -17.5200005 0 0 1 1 9 2 0 0 0 12.3149099
962 4 -6.724 -14.5699997 -11.5200005 0 0 1 1 9 3 0 0 0 12.0412207
963 5 -9.0139999 -12.6499996 -15.29 0 0 1 4 6 2 1 0 0 12.1820078
978 4 -18.75 -19.8600006 13.4399996 0 0 0 0 12 3 0 0 0 12.9398746
990 4 12.3299999 16.9400006 -1.203 0 0 0 0 12 3 0 0 0 13.3698511
995 1 1.016 -17.2199993 13.1300001 0 0 0 0 12 2 0 0 0 11.7406845
1007 2 2.906 -5.0250001 -2.494 0 0 0 0 12 0 0 0 0 11.0805769
1010 4 -16.0 3.76 -20.5499993 0 0 0 0 12 3 0 0 0 12.4727545
1025 1 2.0079999 -12.8199997 11.8900004 0 0 0 3 6 5 0 0 0 12.1608372
1027 4 18.0900002 -9.8389998 8.4600001 0 0 0 1 10 4 0 0 0 13.1898632
1047 4 -8.6479998 20.9400006 2.6310001 0 0 0 3 6 5 0 0 0 11.875102
1050 1 0.8038 -10.2600002 18.7299996 0 0 0 2 10 0 0 0 0 10.9323522
1051 4 6.197 16.7099991 -19.5499993 0 0 0 0 12 0 0 0 0 11.2681341
1055 2 9.9910002 4.9310002 -7.3800001 0 0 0 3 8 1 0 0 0 11.0347319
1057 4 13.3500004 -8.2360001 -12.2100001 0 0 0 5 4 4 0 0 0 12.01231
1059 4 -5.1279998 13.2700005 2.911 0 0 0 3 6 6 0 0 0 12.4875555
1063 5 -10.4300003 9.5319996 9.7110005 0 0 0 2 10 2 0 0 0 12.4369688
1089 4 12.6899996 -20.4099999 -16.4200001 0 0 0 0 12 3 0 0 0 12.5363226
1102 5 18.6399994 -19.3899994 -16.0300007 0 0 0 0 12 0 0 0 0 10.7691174
1110 5 2.5480001 -2.8380001 19.0200005 0 0 2 1 8 2 2 0 0 12.5325308
1118 1 14.7100001 -13.96 0.5011 0 0 0 3 8 2 0 0 0 11.6177159
1128 2 2.945 -19.5200005 0.6444 0 0 0 0 12 0 0 0 0 10.8242636
1153 5 7.4260001 -15.1800003 18.5599995 0 0 0 1 10 2 0 0 0 12.0408802
1159 4 3.9630002 -9.969 15.2600002 0 0 0 3 7 1 1 0 0 11.7310496
1167 4 -5.731 20.9099998 -12.4700003 0 0 0 3 6 4 0 0 0 12.0661659
1169 2 17.0599995 2.188 -19.7099991 0 0 0 0 12 0 0 0 0 11.1726332
1178 2 8.9840002 5.2340002 10.3999996 0 0 0 1 10 2 0 0 0 12.2950993
1187 5 -2.395 18.5 -13.6099997 0 0 1 1 9 4 0 0 0 12.0488138
1188 4 13.1300001 16.1200008 8.0629997 0 0 0 0 12 2 0 0 0 11.9583608
1190 2 5.85 -17.7299996 -16.8400002 0 0 0 2 8 0 2 0 0 11.0403051
1194 5 -16.9799996 12.6499996 17.6900006 0 0 0 2 8 4 0 0 0 12.0993528
1199 4 -14.7100001 -9.955 -15.1599999 0 0 2 0 10 4 0 0 0 12.7056608
1214 5 -8.5819998 8.6899996 -21.6800003 0 0 1 4 3 3 2 0 0 12.3622122
1222 1 -7.1900001 16.7800007 -1.655 0 0 0 1 10 2 0 0 0 12.3362293
1244 3 -8.441 -10.8599998 -9.2270002 0 0 0 0 12 0 0 0 0 11.162427
1247 1 13.4499998 1.021 -20.1399994 0 0 0 2 7 3 0 0 0 11.7669087
1261 4 7.2610002 17.8799992 21.0200005 0 0 0 3 6 6 0 0 0 13.4564028
1264 2 12.0200005 17.2099991 10.3699999 0 0 0 1 10 2 0 0 0 11.8542576
1272 4 19.1900005 18.5499993 -9.2580004 0 0 0 3 6 4 0 0 0 11.4286223
1276 4 -19.0499992 -20.8099995 8.8260002 0 0 0 1 10 3 0 0 0 11.7979002
1280 5 -7.046 1.326 -11.5600004 0 0 0 1 10 2 0 0 0 12.1709652
1283 4 20.3299999 2.4030001 12.7399998 0 0 0 4 6 3 0 0 0 12.0036821
1288 5 -10.0600004 -9.3950005 15.7600003 0 0 0 3 8 3 0 0 0 12.4508648
1299 4 -3.1719999 -11.0500002 6.2989998 0 0 0 1 10 4 0 0 0 12.9208804
1302 4 8.4029999 -1.661 -18.9599992 0 0 0 1 12 1 0 0 0 12.6463213
1303 2 -3.198 5.434 -0.0807 0 0 0 2 8 2 0 0 0 11.6593943
1305 5 10.3100004 13.6300001 4.8189998 0 0 1 2 7 4 2 0 0 13.2945147
1320 2 -10.7799998 12.6499996 12.2600002 0 0 0 0 12 0 0 0 0 11.6678753
1338 2 -6.2810001 21.0699997 -19.4200001 0 0 1 3 5 4 0 0 0 12.3266554
1339 5 7.0180001 2.3829999 3.8220001 0 0 0 0 12 2 0 0 0 12.291646
1342 4 -8.2609997 18.8600006 17.8700008 0 0 3 2 5 5 0 0 0 12.7725277
1350 4 23.0200005 16.6700001 0.6891001 0 0 0 2 10 3 0 0 0 12.6803551
1363 2 -7.1939998 -4.2129998 2.547 0 0 0 3 8 3 0 0 0 11.5154963
1365 4 16.7999993 -9.9490004 -16.7800007 0 0 0 1 12 2 0 0 0 12.8976212
1370 4 -18.2900009 -19.8799992 15.8800002 0 0 0 2 9 2 1 0 0 12.3305645
1377 4 -4.9790002 -4.0050001 -12.5200005 0 0 0 3 6 4 0 0 0 12.293417
1387 3 -13.7200003 -22.1299992 6.4330001 0 0 0 2 8 5 0 0 0 12.9700786
1391 4 7.6199999 21.1200008 -13.1400003 0 0 0 4 10 0 0 0 0 13.1553211
1434 5 -9.4379998 9.5979996 -11.4200001 0 0 0 6 4 4 0 0 0 13.3823023
1445 2 5.1360002 2.6440001 8.3369999 0 0 0 2 8 2 0 0 0 11.6212893
1456 4 -7.6040001 -10.1199999 -19.8099995 0 0 0 3 6 6 0 0 0 12.4759655
1457 4 -6.0560002 2.957 3.6229999 0 0 0 1 10 2 0 0 0 12.1035242
1463 4 7.0580001 17.2199993 0.3596 0 0 0 3 6 4 0 0 0 12.474864
1477 2 -2.3369999 -6.5229998 -19.3999996 0 0 1 3 5 4 0 0 0 11.7889347
1478 2 19.7199993 17.5799999 6.2360001 0 0 1 4 3 3 2 0 0 11.1894236
1492 5 -1.224 20.3400002 9.915 0 0 0 2 8 4 0 0 0 11.9931154
1502 5 3.5739999 6.1500001 -4.422 0 0 0 1 10 2 0 0 0 12.2807884
1509 5 5.4450002 -19.2299996 16.7099991 0 0 0 2 8 4 0 0 0 12.730237
1515 5 -7.9790002 0.6274 -19.2600002 0 0 0 0 12 0 0 0 0 11.3658037
1523 2 -8.2379999 13.3800001 -21.4699993 0 0 0 2 8 2 0 0 0 11.5405703
1545 4 5.704 -9.1990004 -16.3799992 0 0 0 2 8 2 0 0 0 11.7430277
1556 5 15.0100002 -6.8520002 -7.4099999 0 0 1 3 6 2 1 2 0 13.3150768
1583 2 -4.204 -7.368 2.776 0 0 0 4 4 7 0 0 0 12.1408787
1587 5 -16.3099995 -0.1184 -14.4600001 0 0 0 1 10 3 0 0 0 11.876255
1599 4 15.29 18.3700009 -20.8400002 0 0 1 1 8 4 1 0 0 12.4368429
1605 5 13.3699999 13.2799997 -2.652 0 0 1 2 7 3 0 0 0 12.508853
1607 4 0.1914 10.7200003 18.2600002 0 0 0 0 12 0 0 0 0 11.2045412
1615 4 13.2100001 20.9799996 0.3967 0 0 1 2 7 4 0 0 0 11.465663
1620 4 -11.7299996 -1.273 19.7099991 0 0 0 3 6 5 0 0 0 12.771945
1627 4 -19.2700005 -20.0100002 -9.1560001 0 0 0 0 12 0 0 0 0 11.1014557
1634 5 13.7700005 18.3500004 -6.04 0 0 0 1 10 2 0 0 0 11.8828116
1642 4 9.3179999 -19.6900006 6.0289998 0 0 0 3 8 3 0 0 0 12.5201855
1657 5 -7.9310002 15.6000004 13.96 0 0 1 1 9 4 0 0 0 13.3319121
1663 2 -6.5409999 -3.293 11.0 0 0 0 0 12 0 0 0 0 10.7686138
1669 4 -8.8450004 -20.4500008 -5.362 0 0 0 1 12 2 0 0 0 13.1073265
1692 5 -17.2900009 -21.0200005 11.6899996 0 0 0 1 10 3 0 0 0 12.7018233
1694 2 9.6339998 -17.7900009 -3.622 0 0 1 1 9 2 2 0 0 12.3612747
1698 4 -5.8260002 -1.6440001 21.1800003 0 0 0 1 10 2 0 0 0 12.1862164
1702 2 6.4089999 -10.5100003 14.6700001 0 0 0 5 4 2 0 0 0 11.7353125
1706 4 5.9520002 0.3428 -9.4180002 0 0 0 1 10 4 0 0 0 12.9897662
1722 5 -2.118 -1.816 -1.965 0 0 1 3 5 6 0 0 0 12.7098151
1726 5 2.721 -8.2480002 -6.1389999 0 0 0 1 10 2 0 0 0 12.0252066
1730 5 14.6400004 19.6200009 9.3830004 0 0 0 1 10 2 0 0 0 11.9151134
1766 4 -7.6490002 -18.7199993 -3.438 0 0 0 0 12 2 0 0 0 12.530531
1774 4 -0.503 1.594 -12.3900004 0 0 0 0 12 3 0 0 0 12.9805938
1795 4 -0.6605 20.3400002 -13.4799996 0 0 0 0 12 0 0 0 0 11.5618286
1805 4 -14.9200002 17.8899994 9.573 0 0 0 0 12 2 0 0 0 12.8994866
1807 4 17.9899998 -8.0319996 14.4499998 0 0 0 1 10 3 0 0 0 12.2621813
1812 4 10.7799998 -7.974 15.2700005 0 0 0 2 10 2 0 0 0 12.3045712
1818 4 -5.8369999 0.2818 17.2700005 0 0 0 2 8 4 0 0 0 12.2344008
1829 5 -9.3059998 16.7199993 -19.4599991 0 0 0 0 12 0 0 0 0 10.835577
1847 4 3.7360001 -21.7199993 -10.5900002 0 0 0 2 10 0 0 0 0 10.710186
1851 1 -2.2950001 20.1399994 16.4400006 0 0 0 0 12 0 0 0 0 11.1084271
1865 2 11.9799996 -6.737 5.7680002 0 0 0 2 8 5 0 0 0 12.7270212
1873 4 2.4619999 -19.8700008 5.7890001 0 0 0 0 12 2 0 0 0 13.616683
1882 2 11.4899998 11.75 15.3299999 0 0 1 0 9 3 0 0 0 10.9311104
1897 4 19.5400009 -0.3204 15.7399998 0 0 0 4 4 6 0 0 0 12.4754505
1905 4 -9.9230004 -5.7709999 12.1899996 0 0 0 1 10 2 2 0 0 12.7242089
1906 2 -5.936 17.3999996 0.7122 0 0 0 1 10 2 0 0 0 11.418849
1920 5 10.7299996 -5.2080002 7.579 0 0 0 0 12 3 0 0 0 13.137496
1942 5 3.6340001 -19.8600006 15.0900002 0 0 1 2 9 2 0 0 0 12.3685265
1947 5 3.7609999 6.3119998 10.3699999 0 0 1 0 10 3 1 0 0 12.7954512
1951 4 8.3210001 21.5499993 17.2099991 0 0 0 1 10 2 0 0 0 11.6064673
1965 2 -6.2800002 1.146 -20.9400006 0 0 1 2 7 3 0 0 0 11.3371697
1970 2 18.6800003 19.6100006 -19.0400009 0 0 0 0 12 0 0 0 0 11.3496428
1975 4 -6.0 2.4860001 -18.8600006 0 0 0 2 8 5 0 0 0 12.8877526
1990 5 6.6570001 -8.8809996 -5.3530002 0 0 0 0 12 0 0 0 0 11.0977449
2013 5 1.1109999 12.0900002 -5.6469999 0 0 0 1 10 2 0 0 0 12.2726116
2020 2 -0.5444 -9.1389999 -17.3799992 0 0 0 0 12 0 0 0 0 10.8890886
2029 4 2.3399999 3.448 16.1000004 0 0 0 2 7 4 0 0 0 12.3435145
2041 5 17.4699993 1.247 16.1800003 0 0 0 1 10 5 0 0 0 12.7303143
2046 2 -15.7600003 -9.7360001 4.0760002 0 0 0 0 12 0 0 0 0 12.2108317
2053 2 -15.0900002 6.5850001 -1.451 0 0 0 1 12 1 0 0 0 12.3892927
2054 4 14.6700001 -3.1129999 6.5440002 0 0 0 1 10 5 0 0 0 13.4455986
2066 5 -6.914 -17.3099995 10.4300003 0 0 1 1 9 4 0 0 0 12.7487984
2082 2 -15.2399998 -14.7399998 -12.9700004 0 0 1 3 7 4 0 0 0 13.3487368
2085 5 22.2700005 18.3500004 -17.8400002 0 0 0 0 12 0 0 0 0 11.3625469
2089 1 -12.2700005 -4.973 12.2700005 0 0 0 3 6 3 0 0 0 11.2963257
2097 5 -0.3938 -7.3000002 -1.295 0 0 0 2 10 3 0 0 0 13.6716423
2104 2 16.4699993 -18.7000008 -15.79 0 0 0 0 12 0 0 0 0 11.0050306
2116 5 12.5900002 -14.3100004 -11.25 0 0 1 4 6 2 1 0 0 11.3501835
2119 2 -13.1300001 14.6800003 -4.006 0 0 0 0 12 0 0 0 0 11.2734251
2124 5 15.5100003 -15.5600004 13.5200005 0 0 0 2 8 2 0 0 0 10.8904638
2126 5 14.1300001 -6.2340002 -13.5799999 0 0 0 2 8 4 0 0 0 12.0126963
2144 4 12.4200001 7.1409998 5.2319999 0 0 0 1 10 4 0 0 0 12.9961768
2147 1 12.4399996 -14.25 -16.0 0 0 0 2 10 0 0 0 0 10.9678926
2148 2 14.5500002 10.1199999 -6.3109999 0 0 0 2 8 2 0 0 0 11.2115479
2151 2 -8.8299999 6.9720002 21.2399998 0 0 0 0 12 0 0 0 0 11.6779433
2163 2 -2.0840001 15.6899996 10.3500004 0 0 0 0 12 0 0 0 0 11.0552807
2180 5 1.027 1.537 -10.0799999 0 0 0 2 8 4 0 0 0 12.7494927
2183 2 18.8099995 6.6539998 -12.7100001 0 0 0 0 12 0 0 0 0 11.0041685
2202 4 -12.7700005 12.1499996 18.6299992 0 0 0 1 10 4 0 0 0 13.3750572
2208 2 8.4799996 11.9499998 3.7909999 0 0 0 2 8 2 0 0 0 11.7217427
2213 2 -18.8799992 -9.5120001 12.8000002 0 0 0 3 6 3 0 0 0 12.1963062
2214 2 3.85 -0.285 -4.3119998 0 0 0 0 12 0 0 0 0 11.7306729
2219 5 19.0499992 -18.1599999 11.6400004 0 0 1 3 5 5 0 0 0 12.0092354
2224 5 -9.5679999 -18.5 -17.6399994 0 0 1 1 9 0 2 0 0 11.4842768
2228 5 -9.5719996 16.5499993 -14.25 0 0 1 0 9 3 0 0 0 11.5519667
2232 3 3.7049999 -17.8199997 -9.4720001 0 0 0 2 8 4 0 0 0 12.5137367
2256 2 -14.6199999 3.3350001 -16.25 0 0 0 3 8 2 0 0 0 11.6928206
2265 2 20.2199993 0.2223 -13.1300001 0 0 0 0 12 0 0 0 0 11.0717239
2273 5 10.6999998 -20.6599999 9.3380003 0 0 2 0 8 6 0 0 0 12.5780688
2274 1 20.3600006 6.4580002 7.336 0 0 0 2 8 4 0 0 0 11.904911
2284 5 13.87 14.2299996 -14.2600002 0 0 0 3 10 1 0 0 0 12.1240225
2285 4 -7.6989999 -8.1239996 -21.9200002 0 0 1 2 9 2 0 0 0 12.519661
2295 1 -13.6800003 12.1899996 6.0180001 0 0 0 0 12 0 0 0 0 10.7772169
2296 4 -16.5499993 2.9890002 8.4329996 0 0 0 3 8 4 0 0 0 12.9334832
2298 5 13.6700001 21.3299999 -6.4590001 0 0 0 1 10 4 0 0 0 12.8772144
2304 4 13.1300001 -8.0579996 10.8800002 0 0 0 2 8 6 0 0 0 13.4564276
2314 4 -2.625 21.4599991 -20.7099991 0 0 0 4 8 2 0 0 0 12.4102841
2317 4 -1.98 1.684 19.6900006 0 0 1 0 9 3 0 0 0 11.5863018
2322 4 6.2410002 -8.0539999 -9.1520004 0 0 0 2 8 3 0 0 0 12.0070343
2337 5 17.5799999 -8.9989996 -14.5600004 0 0 0 4 5 4 1 0 0 12.5668259
2341 4 18.3799992 -5.7560001 -14.5600004 0 0 0 1 10 2 0 0 0 12.3553791
2354 2 -16.3199997 19.6299992 -9.1400003 0 0 1 3 5 5 0 0 0 11.7872648
2368 2 2.1900001 -15.5200005 -15.3500004 0 0 0 1 10 2 0 0 0 11.5758028
2369 5 0.8031 14.04 -10.0799999 0 0 0 1 10 5 0 0 0 12.8897448
2380 4 -19.2900009 -14.4300003 11.25 0 0 1 1 9 3 0 0 0 12.4679146
2385 4 -8.6639996 2.8710002 14.2100001 0 0 0 1 12 3 0 0 0 13.387269
2386 2 20.8400002 20.8400002 -21.9599992 0 0 0 3 6 4 0 0 0 11.7449627
2407 2 1.652 7.7529998 2.3640001 0 0 0 4 5 2 1 0 0 11.4826508
2414 1 17.75 -12.5500002 -17.0499992 0 0 0 3 6 4 0 0 0 11.4170141
2418 4 -16.3899994 20.2099991 5.1570001 0 0 0 1 10 2 0 0 0 12.0343294
2427 4 -7.7610002 1.105 -16.7900009 0 0 0 1 10 3 0 0 0 12.115202
2429 5 18.6900006 -17.3700009 20.9699994 0 0 1 1 8 3 1 0 0 12.2481308
2441 2 -8.7100001 -17.1499996 8.481 0 0 0 1 10 2 0 0 0 13.1528263
2442 4 19.6299992 2.227 -20.6200009 0 0 1 0 10 3 1 0 0 13.0150757
2443 5 21.5300007 20.5699997 2.873 0 0 0 2 8 3 0 0 0 11.6824303
2446 2 7.3769999 -9.8240004 -12.6099997 0 0 0 2 10 0 0 0 0 11.7246142
2451 2 -11.6099997 -4.106 1.202 0 0 0 3 8 2 0 0 0 11.6705408
2457 4 13.8900004 3.523 7.2230001 0 0 1 2 8 2 1 0 0 12.0000048
2482 5 -8.4420004 0.7902 -21.8199997 0 0 1 1 8 3 1 0 0 11.6114121
2489 2 5.3049998 -5.8579998 -8.309 0 0 0 3 8 2 0 0 0 12.1856642
2494 2 -12.8599998 -4.4109998 -8.5799999 0 0 1 0 9 3 0 0 0 11.6189375
2496 4 7.4879999 7.954 7.0749998 0 0 0 2 10 2 0 0 0 12.5520029
2506 2 -8.2100001 20.4799996 0.3176 0 0 0 1 10 3 0 0 0 11.9429398
2513 5 17.6900006 17.2900009 -20.0300007 0 0 0 3 8 3 0 0 0 12.4130821
2520 4 -17.4099999 -11.5100003 18.8799992 0 0 0 2 8 6 0 0 0 12.6609202
2521 2 1.7660001 14.6899996 10.1199999 0 0 0 0 12 0 0 0 0 11.2203865
2523 4 15.1000004 12.5900002 21.1200008 0 0 0 4 5 5 1 0 0 12.7478104
2527 1 -9.6639996 -11.4200001 -13.4700003 0 0 3 2 5 1 2 0 0 11.9468098
2541 2 -6.217 13.79 19.7399998 0 0 1 4 5 4 0 0 0 12.2952347
2543 5 -12.9799996 1.449 -1.347 0 0 0 1 10 4 0 0 0 12.4273901
2545 5 -12.3900004 3.727 10.7600003 0 0 0 3 7 3 1 0 0 12.0594721
2548 2 -5.974 -6.7709999 -16.8299999 0 0 0 0 12 2 0 0 0 12.0074549
2553 2 -5.888 3.2550001 -12.4200001 0 0 0 2 8 4 0 0 0 12.4601536
2557 4 1.2280001 17.0900002 -14.54 0 0 0 0 12 2 0 0 0 12.0880327
2562 5 -2.027 18.5699997 -20.2399998 0 0 0 4 8 2 0 0 0 12.9065762
2564 4 9.3079996 9.3269997 -11.7600003 0 0 1 2 7 6 0 0 0 13.2309704
2573 5 14.1700001 -3.975 13.7100001 0 0 0 2 8 2 0 0 0 11.402194
2574 2 -6.2290001 -21.3799992 4.0799999 0 0 0 0 12 0 0 0 0 11.2068749
2594 2 9.0039997 -2.4790001 -7.9429998 0 0 0 0 12 3 0 0 0 12.2925539
2596 4 18.7800007 15.1700001 20.0400009 0 0 0 2 8 4 0 0 0 11.5265122
2600 1 20.2800007 -6.764 -1.7920001 0 0 0 0 12 0 0 0 0 10.7464895
2619 5 -5.8150001 -7.5700002 21.0 0 0 0 0 12 2 0 0 0 12.2748442
2627 4 0.08299 -15.1800003 -16.6200009 0 0 0 3 6 5 0 0 0 12.4087429
2632 4 4.4850002 0.9004 -20.6900006 0 0 0 3 6 2 2 0 0 12.3217669
2644 2 7.2470002 17.3899994 10.1099997 0 0 0 2 8 4 0 0 0 12.404275
2647 4 16.9500008 -5.6989999 -18.9400006 0 0 0 1 10 4 0 0 0 12.6950102
2657 4 -9.5930004 18.8299999 -15.0100002 0 0 0 1 10 3 0 0 0 12.1405764
2664 5 -16.4699993 -5.0409999 -18.2099991 0 0 0 4 5 4 1 0 0 11.7439795
2666 2 20.8700008 -4.0770001 8.8809996 0 0 1 0 9 3 0 0 0 12.0853395
2673 4 -18.6200009 -4.4099999 14.4399996 0 0 0 3 8 3 0 0 0 12.4599066
2675 4 -9.3409996 4.6399999 10.2700005 0 0 1 1 9 3 0 0 0 12.1530981
2680 4 -14.5699997 13.0699997 -2.517 0 0 0 0 12 3 0 0 0 12.8236914
2695 4 -1.508 -7.2719998 20.9300004 0 0 0 1 10 3 0 0 0 11.8908216
2700 1 21.4799996 0.5549 5.3449998 0 0 1 0 9 3 0 0 0 11.2007055
2719 4 -17.7700005 -15.9899998 8.4090004 0 0 0 0 12 0 0 0 0 11.605053
2722 5 -13.8900004 21.0200005 0.9521 0 0 2 2 5 4 1 0 0 12.5295811
2752 2 20.0799999 16.3500004 -4.645 0 0 1 2 7 4 2 0 0 12.4948044
2754 5 -14.9799996 9.1149998 16.2099991 0 0 0 1 10 2 0 0 0 11.2948437
2760 5 -1.81 0.4903 -20.0 0 0 0 3 8 4 0 0 0 13.6774445
2768 2 10.6300001 5.4499998 -5.118 0 0 1 1 11 0 0 0 0 11.3051176
2774 4 13.0299997 0.8595 6.7690001 0 0 0 0 12 3 0 0 0 12.5588894
2778 4 7.2930002 11.79 17.5499993 0 0 0 1 12 2 0 0 0 13.4301348
2782 4 -11.0600004 -20.9899998 13.0900002 0 0 0 0 12 2 0 0 0 13.515276
2790 4 0.3007 17.7800007 3.2560001 0 0 0 2 8 5 0 0 0 13.3268032
2800 4 -11.1400003 16.7800007 -20.7099991 0 0 0 3 6 4 0 0 0 11.1108799
2802 5 -1.655 11.3900004 11.0799999 0 0 0 2 8 4 0 0 0 12.5803805
2814 4 -18.7999993 -7.632 8.2159996 0 0 0 2 8 5 0 0 0 12.7761956
2820 4 15.8000002 -11.0900002 9.1359997 0 0 0 2 8 5 0 0 0 12.3928089
2823 4 -9.903 12.5200005 18.6900006 0 0 0 1 10 3 0 0 0 13.7665921
2824 4 18.4599991 7.0749998 5.7049999 0 0 0 1 10 3 0 0 0 12.5181017
2830 4 -16.6499996 -21.6200009 -16.3500004 0 0 0 1 10 3 0 0 0 12.4761324
2848 4 16.2600002 -17.4899998 1.2000001 0 0 0 3 6 5 0 0 0 11.5450106
2851 3 -12.3800001 2.3510001 -15.7299996 0 0 0 2 8 5 0 0 0 13.1016407
2857 4 -0.3746 20.9300004 -2.891 0 0 0 1 10 4 0 0 0 12.4981137
2885 2 18.5400009 17.5900002 -17.5599995 0 0 0 1 10 2 0 0 0 11.5577278
2895 4 5.902 -19.9400006 -4.6350003 0 0 0 5 4 5 0 0 0 12.1369896
2899 5 18.6499996 -12.4499998 -1.824 0 0 0 2 8 4 0 0 0 12.108592
2906 4 17.2299996 9.8249998 2.0869999 0 0 0 2 8 4 0 0 0 12.8175907
2908 5 -0.3917 8.356 1.024 0 0 0 2 8 3 0 0 0 11.4293909
2914 2 0.4214 -1.7430001 -6.3990002 0 0 1 2 6 2 1 0 0 11.0979557
2932 4 -9.8120003 -14.1400003 -1.508 0 0 0 1 10 3 0 0 0 13.4774084
2955 4 -5.5419998 8.5769997 -13.8500004 0 0 1 2 7 5 0 0 0 12.5373249
2975 5 9.3599997 -4.7750001 -6.5229998 0 0 0 2 8 4 0 0 0 12.1613388
2985 4 -1.163 3.6960001 -16.3700009 0 0 0 1 10 3 0 0 0 12.141676
2993 4 15.3400002 -0.3908 9.936 0 0 0 3 8 4 0 0 0 12.1824961
2994 4 -10.1000004 -14.9700004 -14.5299998 0 0 0 1 10 4 0 0 0 12.3173428
3004 5 13.1899996 -1.964 -9.3330002 0 0 0 2 8 2 2 0 0 12.1788797
3009 4 9.1190004 -10.5299998 -7.6999998 0 0 0 0 12 0 0 0 0 11.6240549
3020 5 11.0200005 20.1900005 -9.3280001 0 0 1 1 9 3 0 0 0 12.154768
3025 2 -16.2600002 -9.3339996 -3.8110001 0 0 0 2 8 4 0 0 0 12.0113983
3038 2 -16.0400009 6.5050001 19.9799996 0 0 0 0 12 0 0 0 0 11.4576731
3060 4 -8.5369997 20.9799996 -15.6700001 0 0 0 0 12 0 0 0 0 11.6980572
3068 2 6.9580002 3.2809999 6.4780002 0 0 0 1 10 1 2 0 0 11.9047022
3090 5 20.75 -9.6149998 20.0 0 0 0 0 12 2 0 0 0 12.598897
3100 4 -1.067 2.152 0.3563 0 0 0 0 12 2 0 0 0 12.3750343
3113 2 -18.9500008 -19.0 -14.3800001 0 0 1 1 9 2 0 0 0 11.4866638
3115 4 0.5155 8.2720003 -2.323 0 0 0 4 5 5 1 0 0 13.2109289
3118 4 3.9820002 -2.734 -3.208 0 0 0 1 10 4 0 0 0 12.9113302
3134 2 6.1789999 7.605 -14.3000002 0 0 0 0 12 0 0 0 0 10.6367073
3150 2 19.0400009 19.1200008 8.3549996 0 0 0 6 6 1 0 0 0 11.6781178
3151 4 -14.4899998 16.8099995 20.2099991 0 0 1 2 8 4 1 0 0 13.0238495
3152 4 0.3932 -17.3099995 -15.5200005 0 0 1 0 9 3 0 0 0 11.208559
3158 2 13.6700001 -7.4359999 4.0149999 0 0 0 3 8 2 0 0 0 11.9545556
3159 5 -4.4299999 15.4499998 -5.6929999 0 0 0 2 8 3 0 0 0 11.6273842
3165 5 13.9099998 -15.1199999 18.6200009 0 0 0 2 10 2 0 0 0 12.6204043
3167 2 0.001762 2.8239999 20.3299999 0 0 1 1 9 2 0 0 0 11.2934332
3174 4 -3.197 0.1116 -5.158 0 0 0 4 6 3 0 0 0 12.092948
3178 4 20.1499996 -9.8850002 10.7600003 0 0 0 2 10 3 0 0 0 12.7291203
3180 2 19.7199993 19.7900009 -6.8470002 0 0 0 3 6 4 0 0 0 11.8205967
3182 4 17.4799996 -18.7099991 -18.3099995 0 0 0 1 10 5 0 0 0 12.7878609
3185 5 2.392 5.4109998 6.6269999 0 0 0 3 6 3 0 0 0 12.3923197
3186 5 7.9990002 -1.536 -1.729 0 0 0 2 10 3 0 0 0 12.7032271
3189 5 -19.4400006 -13.87 18.8700008 0 0 0 2 10 3 0 0 0 12.5088225
3199 5 11.4600001 18.5 0.4934 0 0 1 2 7 4 0 0 0 12.4727946
3201 5 -13.3199997 19.7600003 -12.7600003 0 0 1 3 4 4 1 0 0 11.2256298
3220 4 -6.8540002 19.5499993 -14.3999996 0 0 0 2 8 5 0 0 0 12.7610808
3222 4 15.6400004 -2.602 -9.7709999 0 0 0 5 4 4 2 0 0 12.4620333
3230 5 -17.3199997 7.145 -7.046 0 0 0 2 8 4 0 0 0 12.3412495
3234 4 -5.3509998 -7.4520002 4.9699998 0 0 0 2 10 3 0 0 0 12.6701889
3240 1 4.4780002 8.2270002 -12.6800003 0 0 1 0 9 3 0 0 0 11.3215723
3241 4 -10.7700005 21.3700009 -14.5 0 0 1 1 9 3 2 0 0 13.1786003
3246 5 0.05349 -21.0100002 4.5949998 0 0 1 2 7 5 0 0 0 13.0843716
3267 5 6.0949998 -13.8999996 -7.8390002 0 0 0 1 10 4 0 0 0 12.8008528
3286 5 13.29 -7.869 15.0299997 0 0 0 0 12 0 0 0 0 11.242527
3287 5 12.3800001 15.3400002 -16.1700001 0 0 0 0 12 0 0 0 0 11.8578682
3295 4 -18.4200001 -1.726 -19.8899994 0 0 0 0 12 2 0 0 0 13.0430269
3298 5 5.7820001 -21.2099991 14.6400004 0 0 2 2 6 4 0 0 0 12.1802759
3301 5 20.8299999 15.9899998 -7.1890001 0 0 0 0 12 0 0 0 0 12.115016
3315 4 5.1329999 -10.6700001 9.9239998 0 0 0 2 8 4 0 0 0 12.5388823
3323 5 -15.7700005 1.17 12.4300003 0 0 0 0 12 3 0 0 0 13.3122139
3337 5 -7.7049999 -16.6399994 1.252 0 0 1 4 3 5 2 0 0 12.4382868
3343 5 -9.6669998 19.3899994 -6.5390001 0 0 0 2 10 0 0 0 0 11.4734698
3346 2 -16.8999996 -15.9700004 -4.283 0 0 0 1 10 2 0 0 0 11.4124432
3357 4 -11.04 12.7600003 -6.639 0 0 0 1 10 2 0 0 0 11.3169031
3362 1 -17.5 -5.6669998 -20.5900002 0 0 0 3 6 5 0 0 0 11.8812018
3365 5 -15.7700005 -2.7049999 -0.6004 0 0 1 3 5 6 0 0 0 12.5384646
3387 5 20.2900009 17.6100006 -19.5499993 0 0 0 0 12 2 0 0 0 12.1543865
3406 5 -9.5279999 6.6220002 -0.397 0 0 0 0 10 2 0 0 0 11.2924986
3408 5 -14.4600001 4.4299999 -13.7700005 0 0 0 1 10 3 0 0 0 12.5378447
3414 2 20.3899994 20.8999996 -4.8660002 0 0 0 4 6 3 0 0 0 11.5815153
3433 4 -0.176 18.1800003 -12.2399998 0 0 0 0 12 3 0 0 0 12.4673987
3444 5 14.0100002 -13.3100004 3.092 0 0 0 1 10 2 0 0 0 12.5527048
3446 4 12.1499996 -10.1199999 6.9920002 0 0 0 3 7 5 1 0 0 13.7396803
3454 2 11.6499996 14.3000002 2.8269999 0 0 0 2 8 2 0 0 0 11.3937836
3456 5 -18.1399994 -19.6900006 6.6040001 0 0 3 1 8 3 1 0 0 12.7702732
3465 5 -11.1999998 0.5278 -9.1990004 0 0 0 0 12 0 0 0 0 11.446044
3467 4 4.4650002 -6.5939999 -10.6099997 0 0 0 2 8 3 0 0 0 12.7311239
3471 2 -16.0699997 -20.8600006 16.6200009 0 0 0 0 12 0 0 0 0 11.0628386
3481 4 2.4649999 -14.6199999 -17.6000004 0 0 0 0 12 0 0 0 0 11.7242184
3482 3 -14.0500002 8.5959997 4.454 0 0 1 2 7 4 0 0 0 12.2489891
3489 2 -4.6409998 -7.5339999 -19.3700009 0 0 0 1 10 3 0 0 0 12.1389837
3497 2 20.3700009 10.96 7.6630001 0 0 0 3 6 4 0 0 0 11.4792519
3501 4 10.3299999 -6.796 9.6149998 0 0 0 2 8 3 0 0 0 12.8357725
3516 4 19.4099999 -9.401 2.5650001 0 0 0 1 10 3 0 0 0 12.103508
3529 5 14.1000004 -8.6219998 -2.204 0 0 0 3 10 1 0 0 0 12.7067433
3536 5 -17.4599991 -22.1800003 1.326 0 0 0 2 10 2 0 0 0 12.3561154
3540 4 4.197 2.939 -8.0450001 0 0 0 1 10 4 0 0 0 13.6882649
3544 4 -9.5080004 3.029 21.4799996 0 0 0 3 8 3 0 0 0 12.1909866
3561 5 -2.234 14.4399996 6.1420002 0 0 1 4 7 2 0 0 0 12.2104178
3563 2 -10.1800003 -7.4250002 -22.0799999 0 0 1 0 11 1 0 0 0 11.7797413
3569 2 -16.1900005 -6.7659998 -13.5100003 0 0 0 0 12 0 0 0 0 10.9494048
3571 4 0.6606 10.1999998 -0.6002 0 0 0 4 6 5 0 0 0 12.8780194
3589 4 -16.7299996 -7.2789998 -8.5059996 0 0 0 1 10 2 0 0 0 11.8777218
3597 2 14.8199997 -0.1152 -9.8050003 0 0 0 0 12 0 0 0 0 11.9429122
3613 4 -1.277 16.2700005 -13.3400002 0 0 0 2 8 4 0 0 0 12.4974299
3614 4 -3.596 2.4130001 7.2080002 0 0 0 2 8 5 0 0 0 13.1951075
3617 5 -11.6400004 -22.1299992 0.3085 0 0 0 2 8 2 0 0 0 11.7369337
3634 5 17.0300007 -13.0900002 -6.441 0 0 0 1 10 4 0 0 0 12.4033423
3636 4 6.8709998 -16.1499996 -0.6941 0 0 0 2 8 4 0 0 0 12.2812472
3648 2 -4.1739998 18.8099995 5.4330001 0 0 0 2 8 4 0 0 0 12.0896273
3662 2 -0.2041 5.198 19.3999996 0 0 0 4 6 2 0 0 0 11.7747507
3675 1 3.073 16.1599999 19.8199997 0 0 1 4 4 2 1 1 0 11.9626122
3678 2 -4.2680001 -2.445 -10.3299999 0 0 0 1 10 3 0 0 0 12.1447086