ITEM: TIMESTEP
0
ITEM: NUMBER OF ATOMS
50688
ITEM: BOX BOUNDS xy xz yz pp pp pp
-20.3673 75.3267212 15.4144316
-22.2210007 65.3610001 0.0
-22.2210007 65.3610001 0.0
ITEM: ATOMS id type x y z VoronoiIndex1 VoronoiIndex2 VoronoiIndex3 VoronoiIndex4 VoronoiIndex5 VoronoiIndex6 VoronoiIndex7 VoronoiIndex8 VoronoiIndex9 AtomicVolume
7 2 -15.3900004 -13.8199997 -3.1129999 0 0 0 2 8 3 0 0 0 11.8851052
22 5 23.9300004 6.6020003 8.0839996 0 0 0 0 12 0 0 0 0 10.7178107
28 2 1.586 5.5390001 -10.8500004 0 0 1 2 5 3 0 0 0 11.0747614
36 2 7.4770003 -14.5699997 -19.3199997 0 0 0 0 12 0 0 0 0 11.6019144
38 5 4.0359998 -11.2399998 16.8700008 0 0 0 1 10 4 0 0 0 13.1640129
42 2 6.9190002 -3.6270001 -21.4400006 0 0 0 0 12 0 0 0 0 10.994421
43 5 -1.5850001 12.8999996 11.0299997 0 0 0 2 8 6 0 0 0 13.0015669
50 2 9.1040001 -3.1949999 -22.0100002 0 0 0 0 12 0 0 0 0 11.5188351
61 4 -16.0200005 -8.5059996 -3.8900002 0 0 0 2 10 2 0 0 0 12.9986116
98 2 -1.359 -8.5050001 19.0599995 0 0 0 0 12 0 0 0 0 10.7406931
112 2 22.6599999 5.6409998 19.9799996 0 0 0 1 10 2 0 0 0 12.1744928
128 5 -14.8500004 6.3709998 -10.2299996 0 0 0 3 6 4 0 0 0 11.9590674
145 4 -9.4020004 -22.1700001 -19.4899998 0 0 0 0 12 2 0 0 0 12.4555331
146 4 1.204 7.797 -11.1899996 0 0 0 1 10 2 0 0 0 11.6995945
171 2 2.3510001 -0.6762 -3.105 0 0 1 2 6 2 1 0 0 11.8525554
176 5 6.3319998 -20.6399994 11.6999998 0 0 0 2 8 3 0 0 0 12.3578377
177 5 14.79 14.5900002 -19.9400006 0 0 0 0 12 2 0 0 0 12.4733868
181 5 -11.2700005 -11.1899996 5.848 0 0 0 0 12 0 0 0 0 11.0835075
191 5 -14.7600003 5.914 -13.9099998 0 0 1 3 4 5 1 0 0 13.0142031
203 5 20.0900002 -4.0180001 -2.934 0 0 0 2 8 4 0 0 0 11.9316388
216 2 13.5 16.7000008 10.1000004 0 0 0 3 6 3 0 0 0 11.222045
219 4 6.9190002 -2.626 16.1900005 0 0 1 2 9 3 0 0 0 12.4334288
220 2 -3.4830001 17.3999996 -6.217 0 0 0 1 10 3 0 0 0 12.2313852
240 2 -0.5979 10.5500002 6.422 0 0 0 0 12 0 0 0 0 10.886015
241 2 22.4200001 12.4099999 -2.3069999 0 0 0 0 12 2 0 0 0 11.9247972
243 4 8.2449999 17.6000004 -2.408 0 0 1 2 7 3 0 0 0 11.8339072
244 5 -11.7200003 -12.4099999 -20.6299992 0 0 1 0 11 1 0 0 0 12.299614
245 1 13.1300001 -17.6200009 5.3920002 0 0 0 2 8 3 0 0 0 12.7115727
249 4 -10.3400002 -5.922 18.8799992 0 0 0 0 12 3 0 0 0 12.6999836
262 2 -2.145 2.6010001 9.3579998 0 0 0 3 5 3 1 0 0 11.7426615
263 1 -11.2700005 -2.904 -16.3700009 0 0 1 1 8 3 1 0 0 11.8218451
266 5 13.6099997 -17.9599992 16.7299996 0 0 0 2 8 4 0 0 0 11.8797904
270 4 20.9400006 -13.75 -2.0550001 0 0 0 1 10 3 0 0 0 12.0664864
283 5 -4.8660002 10.6000004 -11.2100001 0 0 0 2 8 2 0 0 0 11.4777813
295 4 26.3199997 21.2900009 2.5480001 0 0 2 2 6 3 2 0 0 11.9545938
298 4 -4.7649999 16.7199993 2.398 0 0 0 3 6 5 0 0 0 11.9176912
301 1 -12.4700003 19.5900002 19.7199993 0 0 0 3 6 4 0 0 0 11.7244663
311 5 -12.3900004 14.0799999 -3.658 0 0 1 3 5 5 0 0 0 12.3241863
318 5 -6.77 -14.3500004 -6.0900002 0 0 0 2 8 2 0 0 0 11.8471642
322 4 -13.3599997 -8.5679999 3.3610001 0 0 0 0 12 2 0 0 0 12.5651951
334 4 21.1299992 -5.0809999 -7.0 0 0 0 2 8 4 0 0 0 12.4976187
336 4 -15.0100002 -16.2900009 -2.3599999 0 0 1 2 7 5 0 0 0 12.0331211
362 5 -13.3100004 -9.5550003 -3.7820001 0 0 0 1 9 3 1 0 0 13.914854
372 5 6.151 -19.8299999 3.7609999 0 0 1 2 5 5 0 0 0 11.3201475
377 5 -3.9860002 15.4200001 -1.5340001 0 0 0 1 10 3 0 0 0 12.318985
398 1 -6.2490001 0.4608 -1.714 0 0 0 3 8 2 0 0 0 11.9333068
409 2 19.6700001 -3.576 -17.2199993 0 0 0 0 12 0 0 0 0 11.5173636
416 2 -13.2100001 -21.1700001 -11.3800001 0 0 2 3 4 5 0 0 0 11.4888487
419 2 20.3099995 -16.4899998 -5.8979998 0 0 0 0 12 0 0 0 0 11.0581322
428 4 18.0100002 -6.6640001 4.7399998 0 0 0 2 10 0 0 0 0 11.7281704
431 2 -4.4400001 19.9799996 -19.4400006 0 0 1 2 9 1 0 0 0 11.4915428
437 2 -6.4060001 21.2600002 14.3199997 0 0 0 3 6 3 0 0 0 12.2133284
442 4 -1.878 -20.8799992 -12.3900004 0 0 0 1 10 4 0 0 0 12.7461052
452 4 -17.5400009 -21.9200002 -20.2900009 0 0 0 0 12 0 0 0 0 11.6008005
482 4 2.4890001 -0.2689 -19.4300003 0 0 0 3 6 3 2 0 0 11.958809
506 4 -6.89 0.04363 16.6299992 0 0 0 3 8 2 0 0 0 11.5204487
527 5 6.3930001 -4.974 4.8239999 0 0 0 1 10 2 0 0 0 11.2515488
530 4 21.2999992 -9.8059998 -6.849 0 0 0 4 6 6 0 0 0 13.2552519
531 5 17.9300004 6.4559999 12.2600002 0 0 0 1 10 2 0 0 0 11.6927586
536 2 26.9300004 19.9099998 17.5900002 0 0 1 1 9 3 0 0 0 12.7070589
537 2 2.8350001 17.4799996 4.8220001 0 0 0 4 4 7 0 0 0 12.3353624
539 2 -3.451 -21.8199997 -16.3799992 0 0 0 3 6 4 0 0 0 11.7407494
548 4 -4.1890001 -8.1829996 1.647 0 0 0 2 8 4 0 0 0 12.6500864
553 4 6.1079998 4.5999999 -21.5100003 0 0 1 2 7 3 0 0 0 11.3628912
559 4 12.3000002 6.7210002 -21.9799996 0 0 0 3 6 4 0 0 0 12.1908703
561 4 6.132 14.8199997 -6.0149999 0 0 0 1 10 5 0 0 0 13.9013482
564 4 -7.494 4.6539998 -11.4600001 0 0 0 3 6 3 0 0 0 12.0253773
569 2 5.1199999 -3.175 4.454 0 0 0 3 8 1 0 0 0 11.7987156
587 5 20.3700009 17.5400009 17.0599995 0 0 0 1 10 2 0 0 0 11.9582214
597 2 -5.1220002 -17.3799992 -13.5299998 0 0 0 2 8 3 0 0 0 11.5021248
613 5 12.6000004 -4.9990002 -1.457 0 0 0 5 2 6 0 0 0 12.2404776
618 2 -3.4289999 6.1389999 -12.5200005 0 0 0 0 12 0 0 0 0 10.7537651
623 4 17.7900009 17.8500004 4.993 0 0 1 0 11 4 0 0 0 13.8208695
638 5 -16.1599999 -8.8009997 9.4160004 0 0 0 3 5 4 1 0 0 11.7117386
643 5 -14.3299999 3.471 1.48 0 0 0 1 12 2 0 0 0 12.8121586
645 5 -10.8999996 16.9400006 5.309 0 0 0 4 4 7 0 0 0 12.3577137
649 4 15.1199999 -18.8799992 8.929 0 0 0 0 12 2 0 0 0 12.3847265
654 4 -0.0359 -16.7800007 1.4650001 0 0 0 2 8 4 0 0 0 13.0332489
657 4 18.5200005 -10.9399996 15.8999996 0 0 0 2 8 6 0 0 0 12.6059704
671 2 -0.9861 -9.6199999 9.3470001 0 0 0 0 12 0 0 0 0 11.4915838
672 2 23.7900009 21.25 -17.6399994 0 0 0 0 12 2 0 0 0 11.8406964
677 4 -6.5110002 21.4300003 11.7200003 0 0 1 2 7 3 2 0 0 12.7018261
699 5 15.0 3.7160001 3.3810001 0 0 0 2 10 2 0 0 0 12.6321945
701 4 19.3999996 -0.4622 20.1399994 0 0 0 2 10 2 0 0 0 12.8015509
726 5 15.9200002 -8.092 8.6820002 0 0 0 1 10 4 0 0 0 12.4397822
727 5 -10.2200003 -20.9300004 21.2000008 0 0 0 4 5 5 1 0 0 13.3315001
729 1 -2.8139999 -21.6800003 9.3950005 0 0 0 2 8 0 0 0 0 10.5447798
731 5 21.6499996 -7.2979999 1.5800001 0 0 0 4 6 2 0 0 0 11.9682294
741 4 4.1279998 16.6399994 2.622 0 0 0 1 10 3 0 0 0 12.0913534
742 4 9.4209996 2.7219999 9.5959997 0 0 0 2 10 3 0 0 0 13.4163027
745 4 5.8839998 21.2999992 -21.0 0 0 0 2 8 4 0 0 0 12.566639
755 5 11.2799997 -14.3699999 -17.6700001 0 0 1 3 4 7 1 0 0 12.3579292
758 2 5.3109999 10.1199999 14.3100004 0 0 1 2 7 2 0 0 0 11.7543755
760 1 7.0219998 9.8529998 -17.1399994 0 0 0 2 8 2 0 0 0 11.6098776
762 5 15.5200005 -5.356 -7.809 0 0 1 1 9 6 0 0 0 13.4283953
765 1 -2.651 12.8800002 -21.7000008 0 0 0 3 6 3 0 0 0 11.5074415
809 2 25.0400009 20.0 -0.4739 0 0 1 3 7 3 0 0 0 11.6717453
818 5 5.3990002 8.9709998 6.2969999 0 0 0 2 9 4 1 0 0 13.4885359
842 5 7.9070002 1.2920001 -6.1399999 0 0 0 3 6 6 0 0 0 11.7923765
849 4 -4.1599999 3.3410001 11.0500002 0 0 0 4 6 3 0 0 0 11.7689953
850 5 7.171 17.2000008 -18.3600006 0 0 1 2 7 6 0 0 0 12.9313956
882 3 -7.0170002 16.2199993 16.5100003 0 0 0 5 7 1 1 0 0 13.2587204
899 4 -5.1659999 -9.3310003 -0.5848 0 0 0 0 12 2 0 0 0 12.1297531
901 4 2.56 18.6299992 -0.9106 0 0 0 3 8 4 0 0 0 12.0982609
915 5 -9.1090002 -22.0799999 -4.0419998 0 0 0 2 8 5 0 0 0 12.6217442
926 5 -2.2780001 7.1900001 8.184 0 0 0 5 3 7 1 0 0 11.6521034
936 1 2.7460001 12.8400002 -15.5 0 0 1 3 5 5 0 0 0 11.0894308
941 5 -1.026 4.8920002 14.5900002 0 0 1 3 6 4 1 0 0 12.0629873
945 5 19.6800003 -16.8299999 12.1899996 0 0 0 4 4 6 0 0 0 11.5423298
946 4 -6.4229999 -13.6099997 21.0599995 0 0 0 0 12 2 0 0 0 12.2734518
950 3 -5.7150002 -1.939 5.691 0 0 0 2 10 4 0 0 0 13.921342
951 5 9.8210001 16.1800003 -1.125 0 0 0 4 8 1 0 0 0 12.4115591
958 5 10.9300004 7.8639998 -0.9901 0 0 0 4 4 6 0 0 0 12.4737692
961 2 0.07503 18.7299996 -17.8400002 0 0 0 2 8 3 0 0 0 11.4015036
962 4 -10.7299996 -14.5200005 -11.4600001 0 0 0 1 10 2 0 0 0 11.4300728
963 5 -12.9799996 -12.4499998 -15.1700001 0 0 1 4 3 5 2 0 0 12.0303392
990 4 13.4600001 17.7800007 -1.8710002 0 0 0 2 10 3 0 0 0 12.2086115
993 4 18.5200005 1.899 -12.75 0 0 0 1 10 2 0 0 0 12.2764845
995 1 -2.799 -16.9899998 13.1499996 0 0 0 0 12 2 0 0 0 12.3443575
1007 2 -0.4705 -5.0469999 -2.8010001 0 0 0 0 12 0 0 0 0 11.3749619
1021 4 22.1800003 1.757 -11.8999996 0 0 0 3 6 5 0 0 0 12.3346176
1025 1 -1.5140001 -12.7799998 11.8999996 0 0 0 3 6 5 0 0 0 12.0612021
1027 4 13.9700004 -9.901 8.3990002 0 0 0 1 10 5 0 0 0 13.4694634
1047 4 -6.849 20.5699997 1.0829999 0 0 0 3 6 6 0 0 0 12.6926184
1050 1 -3.003 -10.2799997 18.7999993 0 0 0 2 10 0 0 0 0 11.5757275
1051 4 7.2589998 14.9799996 -20.4699993 0 0 0 4 8 4 0 0 0 13.6431036
1055 2 7.243 5.2350001 -6.7220001 0 0 1 3 5 4 0 0 0 11.2406082
1056 5 23.3999996 2.866 7.132 0 0 0 0 12 0 0 0 0 10.9174786
1057 4 9.2609997 -7.6500001 -11.8299999 0 0 0 3 6 4 0 0 0 11.702261
1059 4 -7.0380001 12.5299998 1.605 0 0 0 2 10 3 0 0 0 12.8388834
1063 5 -13.7399998 10.2399998 9.2849999 0 0 0 3 6 4 0 0 0 12.0460358
1079 2 18.7999993 -14.3000002 -17.0799999 0 0 1 2 7 5 0 0 0 12.2914648
1089 4 8.9069996 -20.3500004 -16.5599995 0 0 0 1 12 2 0 0 0 12.7678852
1098 4 16.7099991 -18.6299992 20.3099995 0 0 0 1 10 5 0 0 0 13.7137461
1102 5 14.9099998 -19.3199997 -15.9899998 0 0 0 0 12 0 0 0 0 10.9931688
1110 5 -1.4880001 -2.833 18.9200002 0 0 1 2 9 3 0 0 0 12.1530438
1118 1 11.1000004 -13.7799998 0.6118 0 0 0 3 8 2 0 0 0 11.7453032
1128 2 -0.4256 -19.0799999 0.6846 0 0 0 0 12 0 0 0 0 10.995927
1153 5 3.4030001 -15.1499996 18.4300003 0 0 0 3 8 2 0 0 0 12.1418715
1159 4 0.2564 -9.9750004 15.2200003 0 0 1 3 4 5 1 0 0 11.9115152
1167 4 -4.1830001 20.2700005 -13.25 0 0 0 0 12 2 0 0 0 12.6362763
1169 2 13.2700005 2.391 -19.7399998 0 0 1 4 6 2 1 0 0 11.7607441
1178 2 6.0419998 4.25 11.0100002 0 0 2 0 9 2 1 0 0 11.287899
1183 4 23.5900002 12.1300001 -15.87 0 0 0 2 8 4 0 0 0 11.77699
1187 5 -0.7829 18.1299992 -14.5500002 0 0 0 2 8 6 0 0 0 13.2322235
1188 4 12.3500004 16.4099999 7.9200002 0 0 0 4 8 2 0 0 0 12.7560406
1189 4 2.7590001 21.4300003 20.3400002 0 0 0 0 12 2 0 0 0 12.6727925
1190 2 1.969 -17.75 -16.9699994 0 0 0 2 7 2 1 0 0 11.0367003
1195 2 20.1000004 -12.75 -20.1499996 0 0 0 0 12 0 0 0 0 10.8600798
1217 5 17.1800003 -9.8149996 -16.0 0 0 0 1 10 2 0 0 0 12.0181589
1222 1 -6.3299999 15.4600001 -2.28 0 0 0 3 6 4 0 0 0 12.2518759
1244 3 -12.2700005 -10.7399998 -9.1879997 0 0 0 0 12 0 0 0 0 11.464694
1247 1 10.1300001 1.6900001 -18.7399998 0 0 0 2 8 4 0 0 0 11.4872036
1261 4 6.9759998 16.4899998 18.9599992 0 0 0 1 10 4 0 0 0 13.6517239
1264 2 11.4499998 17.7299996 9.995 0 0 0 2 8 2 0 0 0 10.9477386
1272 4 20.4099999 18.8600006 -9.6309996 0 0 0 4 8 2 0 0 0 11.7273712
1280 5 -10.5200005 1.375 -11.3999996 0 0 0 1 10 3 0 0 0 12.6609793
1283 4 16.6100006 2.1559999 12.9200002 0 0 0 2 8 3 0 0 0 10.871359
1288 5 -13.8100004 -9.3389998 15.8000002 0 0 0 4 6 4 0 0 0 12.7782231
1293 4 18.1200008 -19.7099991 0.7681 0 0 1 2 7 5 0 0 0 12.1374874
1299 4 -6.6630001 -10.87 6.2909999 0 0 0 4 6 5 0 0 0 12.9013786
1302 4 4.3309999 -1.6590001 -18.8700008 0 0 0 2 10 3 0 0 0 12.1148043
1303 2 -6.4780002 5.184 -0.02499 0 0 0 0 12 0 0 0 0 12.106925
1305 5 9.6110001 13.9200002 4.8350001 0 0 2 3 6 4 0 0 0 13.167551
1320 2 -12.87 11.6899996 12.9499998 0 0 0 2 7 2 1 0 0 11.1064558
1339 5 2.941 2.5320001 4.0380001 0 0 0 2 8 4 0 0 0 12.7160139
1342 4 -8.2779999 18.3400002 17.7700005 0 0 0 2 8 4 0 0 0 12.6453438
1350 4 22.7099991 16.2399998 -0.1935 0 0 0 1 10 4 0 0 0 12.8870412
1363 2 -11.4799996 -4.3020001 2.6310001 0 0 0 3 8 4 0 0 0 11.9176646
1365 4 12.5799999 -10.04 -16.8400002 0 0 0 3 7 3 1 0 0 12.8129063
1374 4 16.8199997 -10.4799996 -18.5300007 0 0 0 1 10 5 0 0 0 12.7660475
1377 4 -8.3439999 -3.609 -12.2200003 0 0 0 1 10 2 0 0 0 11.7289133
1387 3 -17.4599991 -21.9400006 6.4959998 0 0 0 0 12 3 0 0 0 13.5696879
1403 4 16.9899998 -12.7100001 -16.2099991 0 0 0 1 10 4 0 0 0 13.2126885
1414 4 20.2399998 -10.4099999 -4.7610002 0 0 0 1 10 2 0 0 0 12.3845844
1434 5 -12.2700005 10.1800003 -10.4300003 0 0 0 1 10 2 0 0 0 11.4059258
1445 2 1.528 2.7550001 8.3979998 0 0 0 0 12 0 0 0 0 11.3197899
1456 4 -11.8199997 -10.1400003 -19.9599992 0 0 0 3 6 5 0 0 0 11.9436674
1457 4 -9.8190003 3.3529999 4.2789998 0 0 0 0 12 4 0 0 0 13.4362536
1463 4 7.435 17.25 -0.006136 0 0 0 1 10 4 0 0 0 13.6333132
1471 5 18.2000008 -8.1339998 -19.5799999 0 0 1 3 8 3 1 0 0 13.0153427
1477 2 -6.5510001 -5.915 -19.6900006 0 0 0 2 10 0 0 0 0 11.7202406
1478 2 20.2900009 17.8199997 5.5100003 0 0 2 1 7 3 1 0 0 11.7716828
1492 5 -3.1010001 18.5699997 8.7609997 0 0 0 4 4 6 0 0 0 12.1127501
1502 5 0.5347 5.382 -2.25 0 0 0 3 6 4 0 0 0 12.0780392
1505 4 -4.2719998 20.7800007 21.2700005 0 0 0 2 10 3 0 0 0 13.3166857
1509 5 1.6540001 -19.3099995 16.8400002 0 0 0 2 8 4 0 0 0 12.2620287
1515 5 -11.8599998 0.9265 -18.9799996 0 0 0 1 10 2 0 0 0 11.8182564
1523 2 -9.1689997 12.9700004 -20.8299999 0 0 0 4 4 6 0 0 0 11.76575
1543 1 22.4099999 5.7189999 -0.6822 0 0 1 2 9 0 0 0 0 11.3149519
1545 4 1.4400001 -8.6459999 -16.0699997 0 0 0 0 12 0 0 0 0 12.1837177
1556 5 10.8900004 -6.7259999 -7.737 0 0 0 2 12 1 0 0 0 12.5703211
1583 2 -8.0649996 -7.2600002 2.793 0 0 0 4 6 5 0 0 0 12.5924006
1599 4 16.6900006 18.5499993 -20.9400006 0 0 0 2 10 1 0 0 0 11.674264
1605 5 12.6899996 11.7200003 -2.6329999 0 0 0 2 8 4 0 0 0 11.6352778
1607 4 -2.672 10.6300001 18.4099999 0 0 0 4 6 3 0 0 0 12.1079207
1620 4 -16.4899998 -1.344 18.6200009 0 0 0 0 12 3 0 0 0 12.8982506
1634 5 14.8299999 19.4300003 -5.6500001 0 0 1 1 10 1 1 0 0 12.4692755
1642 4 5.883 -19.6499996 6.1939998 0 0 0 3 6 6 0 0 0 13.094511
1657 5 -8.7040005 16.5300007 13.25 0 0 0 3 6 3 0 0 0 11.1964226
1663 2 -10.6899996 -3.2190001 10.79 0 0 0 0 12 0 0 0 0 11.8334809
1669 4 -12.87 -20.0900002 -5.2579999 0 0 0 0 12 3 0 0 0 12.8839178
1671 4 25.3700009 18.8400002 -2.843 0 0 1 1 9 3 0 0 0 12.4408703
1672 4 22.7999993 -4.204 12.2799997 0 0 0 1 10 3 0 0 0 11.9236984
1677 2 22.3700009 -3.753 -14.5200005 0 0 0 0 12 0 0 0 0 10.7463751
1694 2 5.8010001 -17.5900002 -3.919 0 0 1 3 6 4 1 0 0 12.0044937
1698 4 -9.651 -1.043 20.6599999 0 0 0 6 4 3 0 0 0 12.540803
1702 2 2.6919999 -10.2799997 14.6599999 0 0 1 2 7 2 0 0 0 11.9149056
1706 4 2.3110001 1.161 -7.4699998 0 0 1 3 5 6 0 0 0 11.8371239
1722 5 -5.5289998 -2.036 -2.4630001 0 0 0 2 8 4 0 0 0 12.4237929
1726 5 -1.114 -8.316 -6.1170001 0 0 0 2 10 0 0 0 0 11.8264628
1730 5 15.6400004 20.4500008 8.5050001 0 0 2 2 5 3 1 1 0 11.7245493
1734 2 -2.57 18.5400009 21.5200005 0 0 0 2 10 0 0 0 0 11.7512894
1766 4 -11.3900004 -18.3400002 -3.293 0 0 0 0 12 2 0 0 0 12.3252344
1774 4 -4.0580001 1.148 -12.7100001 0 0 0 0 12 3 0 0 0 13.1874914
1795 4 0.8064 20.2099991 -14.0900002 0 0 1 0 9 3 0 0 0 11.4405823
1807 4 14.3299999 -8.2559996 14.6099997 0 0 0 1 10 3 0 0 0 12.3775454
1812 4 6.928 -7.9910002 15.3999996 0 0 0 2 10 2 0 0 0 12.3911581
1814 5 25.9899998 16.3700009 -8.4600001 0 0 0 3 8 3 0 0 0 12.1860647
1818 4 -9.2589998 0.6452 16.8400002 0 0 1 4 7 2 0 0 0 11.6409846
1829 5 -9.4099999 15.3599997 -19.7299996 0 0 1 0 11 3 0 0 0 12.1606922
1847 4 -0.02708 -21.6000004 -10.7399998 0 0 0 2 10 0 0 0 0 11.3323021
1851 1 -1.357 19.5699997 16.3199997 0 0 0 3 7 2 0 0 0 11.4630957
1865 2 7.9970002 -6.5739999 5.645 0 0 0 2 9 3 1 0 0 12.5983305
1873 4 -2.0280001 -19.7299996 6.4619999 0 0 0 3 6 5 0 0 0 13.1764116
1879 5 17.1900005 -16.1700001 -17.4899998 0 0 0 1 10 2 0 0 0 12.5457163
1882 2 9.2080002 11.2100001 14.3000002 0 0 0 1 10 2 0 0 0 12.1516514
1897 4 15.8500004 -0.3639 16.0 0 0 0 4 5 6 1 0 0 13.2997742
1899 2 21.3600006 2.3180001 3.896 0 0 0 2 8 5 0 0 0 12.5149231
1905 4 -13.9200002 -5.5650001 12.1800003 0 0 1 1 9 3 0 0 0 12.1090279
1906 2 -5.6290002 16.0 0.1568 0 0 0 2 10 0 0 0 0 11.4507847
1920 5 6.7420001 -5.3260002 7.5780001 0 0 0 1 12 2 0 0 0 13.2917709
1942 5 -0.1351 -19.4699993 15.2799997 0 0 0 1 10 2 0 0 0 12.1043434
1947 5 0.9276 6.2709999 10.8100004 0 0 0 3 6 7 0 0 0 12.8535062
1951 4 9.9870006 20.25 16.7199993 0 0 0 1 10 2 0 0 0 12.2190476
1960 2 21.8600006 8.0410004 0.3207 0 0 0 5 4 4 0 0 0 11.4907618
1965 2 -10.0799999 1.323 -20.9300004 0 0 0 1 10 2 0 0 0 12.0062218
1970 2 20.0900002 19.7900009 -19.2600002 0 0 0 0 12 0 0 0 0 11.4385233
1975 4 -9.7810002 2.5550001 -18.7900009 0 0 0 6 4 5 0 0 0 13.0304194
1976 5 23.9799996 17.3099995 15.1599999 0 0 0 2 8 4 0 0 0 11.4571409
1990 5 2.6530001 -8.9329996 -6.2389999 0 0 2 3 4 3 2 0 0 12.204258
2013 5 0.7096 11.2600002 -4.842 0 0 0 2 10 0 0 0 0 12.1036444
2020 2 -4.764 -9.0200005 -17.3099995 0 0 0 0 12 0 0 0 0 11.5099373
2029 4 -1.069 2.662 15.96 0 0 0 3 8 2 0 0 0 12.233798
2041 5 13.4399996 1.016 16.5499993 0 0 0 2 8 4 0 0 0 12.4313078
2054 4 10.8800002 -3.3940001 6.8670002 0 0 1 1 9 5 0 0 0 13.2030878
2066 5 -10.87 -17.4200001 10.8500004 0 0 0 1 10 4 0 0 0 13.002677
2077 4 22.0100002 0.4079 -9.6549998 0 0 0 1 10 2 0 0 0 11.4993897
2082 2 -19.0200005 -14.6899996 -12.8999996 0 0 1 2 6 3 1 0 0 11.8751422
2085 5 23.7000008 18.7000008 -17.8999996 0 0 0 0 12 0 0 0 0 11.4980631
2089 1 -15.96 -4.2839999 12.9899998 0 0 1 4 4 3 1 0 0 11.3680906
2091 4 19.6900006 -7.9710002 -13.3599997 0 0 1 4 5 4 0 0 0 12.2388859
2097 5 -4.2210002 -7.2220001 -1.209 0 0 0 1 10 4 0 0 0 13.764617
2104 2 12.5900002 -18.7600003 -15.7200003 0 0 0 0 12 0 0 0 0 11.3340378
2116 5 8.4580002 -13.8400002 -11.5 0 0 0 0 12 2 0 0 0 12.3711414
2124 5 11.6999998 -15.6599999 13.7100001 0 0 0 1 10 2 0 0 0 11.0247259
2126 5 10.0799999 -6.1100001 -13.2200003 0 0 0 4 4 4 0 0 0 11.6247235
2144 4 9.033 7.336 5.1700001 0 0 0 1 10 3 0 0 0 12.1317024
2147 1 8.573 -14.2600002 -15.8199997 0 0 1 3 5 6 0 0 0 11.8359967
2148 2 13.0900002 10.8599998 -6.8460002 0 0 0 2 10 1 0 0 0 11.7701187
2151 2 -11.8100004 6.929 21.3700009 0 0 0 2 8 0 2 0 0 11.5939389
2163 2 -2.5569999 15.2700005 10.4700003 0 0 0 2 8 1 0 0 0 10.683094
2180 5 -2.7780001 0.7817 -10.3199997 0 0 0 0 12 0 0 0 0 11.6452322
2183 2 16.6399994 5.8649998 -12.9399996 0 0 0 3 6 5 0 0 0 12.6319742
2208 2 7.0669999 12.8500004 4.9200002 0 0 1 6 3 3 0 0 0 11.920722
2211 1 26.2700005 16.2000008 5.5359998 0 0 0 0 12 0 0 0 0 10.6895943
2214 2 0.3727 -0.3079 -4.3699999 0 0 0 2 8 2 0 0 0 11.9325238
2219 5 15.2799997 -18.3799992 11.6899996 0 0 0 3 5 4 1 0 0 12.2180729
2224 5 -13.6599999 -18.3600006 -17.5599995 0 0 0 2 8 2 0 0 0 11.9204006
2228 5 -9.2349997 16.5400009 -15.3699999 0 0 2 3 2 5 2 0 0 11.502389
2231 5 9.1309996 20.7999993 21.1800003 0 0 0 0 12 3 0 0 0 13.7164345
2232 3 -0.299 -17.6599999 -9.6400004 0 0 1 2 7 3 2 0 0 12.5997286
2265 2 16.5200005 0.3905 -13.1000004 0 0 0 0 12 0 0 0 0 10.8894206
2273 5 6.7750001 -20.6499996 9.2659998 0 0 0 1 10 4 0 0 0 13.1700506
2274 1 18.2900009 4.8940002 5.9460002 0 0 0 2 10 0 0 0 0 11.8434486
2284 5 15.4099999 15.1099997 -14.6899996 0 0 0 4 4 7 0 0 0 12.133605
2285 4 -11.8900004 -8.0139999 -21.75 0 0 0 1 10 2 0 0 0 11.869874
2304 4 9.7019997 -8.2329998 10.9700004 0 0 0 1 10 4 0 0 0 12.6809187
2311 5 22.8199997 -3.2739999 5.665 0 0 0 0 12 3 0 0 0 12.9937658
2314 4 -1.507 21.5200005 -20.6200009 0 0 1 3 6 1 3 0 0 13.2027302
2317 4 -6.4990001 1.939 20.6100006 0 0 0 4 6 3 0 0 0 11.8094578
2322 4 2.431 -7.3959999 -8.6479998 0 0 1 2 7 5 0 0 0 12.9498998
2326 4 23.6000004 5.1160002 10.2399998 0 0 0 1 10 4 0 0 0 12.868907
2337 5 13.1700001 -8.7119999 -14.75 0 0 1 6 3 4 2 0 0 12.9177114
2341 4 14.2600002 -5.6030002 -14.5 0 0 0 3 6 4 0 0 0 12.0214996
2351 5 25.1299992 9.8369999 -16.2700005 0 0 1 2 8 2 1 0 0 12.7204914
2368 2 -1.7480001 -15.4600001 -15.4600001 0 0 0 1 10 2 0 0 0 11.2722292
2369 5 1.485 14.1000004 -10.4099999 0 0 0 1 10 2 0 0 0 11.5744343
2385 4 -11.9300004 3.211 14.0900002 0 0 0 1 10 3 0 0 0 12.3906822
2386 2 22.2700005 20.9599992 -22.2099991 0 0 0 2 8 2 0 0 0 12.0861492
2407 2 -0.5133 7.8169999 2.2579999 0 0 1 3 7 2 0 0 0 12.4081049
2414 1 13.2600002 -12.6700001 -16.7900009 0 0 1 2 7 3 0 0 0 11.5065365
2427 4 -11.8800002 1.171 -16.4899998 0 0 1 1 9 4 0 0 0 12.4377508
2429 5 14.5 -17.3899994 21.0400009 0 0 0 1 10 2 0 0 0 11.885028
2441 2 -12.3400002 -16.8299999 8.9130002 0 0 0 3 8 3 0 0 0 13.158679
2442 4 15.8800002 1.9220002 -20.6000004 0 0 0 1 10 3 0 0 0 12.5903807
2443 5 21.3899994 20.3099995 1.497 0 0 0 2 10 2 0 0 0 13.1935568
2446 2 2.684 -9.7530003 -12.5500002 0 0 0 2 9 2 0 0 0 12.2608118
2451 2 -15.8599998 -4.6129999 1.833 0 0 0 0 12 0 0 0 0 11.0889082
2457 4 10.3699999 3.586 7.5159998 0 0 0 2 8 3 0 0 0 12.2483044
2482 5 -12.4399996 0.389 -21.4799996 0 0 1 0 9 3 0 0 0 12.1825085
2489 2 1.836 -5.0250001 -7.9629998 0 0 0 3 6 4 0 0 0 11.7284804
2494 2 -16.7600003 -3.8280001 -9.0439997 0 0 0 4 5 4 1 0 0 12.1268358
2496 4 4.033 6.5029998 7.4450002 0 0 0 1 10 4 0 0 0 14.0735951
2506 2 -9.3649998 19.8500004 -1.1160001 0 0 1 3 5 4 0 0 0 11.8011999
2513 5 18.6499996 17.7700005 -20.1700001 0 0 0 1 12 2 0 0 0 12.0627031
2521 2 -2.006 13.8299999 8.7010002 0 0 0 2 10 2 0 0 0 12.2533751
2523 4 12.5600004 12.1400003 21.4899998 0 0 0 1 10 4 0 0 0 12.5661068
2527 1 -13.7299996 -11.3400002 -13.3500004 0 0 1 3 5 2 2 0 0 11.2102881
2541 2 -7.5980001 14.3100004 19.9599992 0 0 0 4 6 4 0 0 0 11.8471298
2545 5 -15.5900002 3.8110001 11.0200005 0 0 0 3 8 2 0 0 0 11.7935782
2548 2 -10.0 -6.566 -17.4300003 0 0 1 3 5 2 2 0 0 11.7387715
2553 2 -9.0290003 3.1919999 -12.6700001 0 0 1 1 9 2 0 0 0 11.071106
2557 4 2.1570001 16.6399994 -14.6800003 0 0 0 1 10 4 0 0 0 12.5915928
2562 5 -0.7887 19.1100006 -20.1000004 0 0 0 5 4 5 0 0 0 12.077651
2564 4 6.895 8.7069998 -11.3400002 0 0 0 2 8 4 0 0 0 12.5793324
2573 5 10.5100003 -3.9400002 13.96 0 0 0 3 6 4 0 0 0 11.8753682
2574 2 -10.0100002 -21.4500008 3.973 0 0 0 2 8 1 0 0 0 11.1333151
2581 2 21.6299992 -10.0699997 5.5240002 0 0 0 0 12 0 0 0 0 11.6230879
2594 2 5.303 -1.921 -7.6009999 0 0 0 3 6 5 0 0 0 11.9143182
2596 4 15.6700001 14.6199999 19.2900009 0 0 0 3 8 3 0 0 0 12.6480694
2600 1 16.4300003 -6.8369999 -1.5620001 0 0 0 0 12 0 0 0 0 10.7050495
2619 5 -9.5480004 -7.2290001 20.8799992 0 0 0 0 12 2 0 0 0 12.3767891
2627 4 -3.876 -15.1899996 -16.7800007 0 0 1 1 9 3 0 0 0 12.4611044
2632 4 0.4566 0.8161 -20.5599995 0 0 0 4 6 4 0 0 0 12.0484276
2644 2 7.9959998 18.7299996 8.9130002 0 0 0 0 12 0 0 0 0 11.4462843
2647 4 12.7299996 -5.6680002 -18.6100006 0 0 0 1 10 4 0 0 0 12.65936
2657 4 -8.2950001 18.9599992 -15.2600002 0 0 0 3 5 3 1 0 0 11.5028715
2666 2 16.7999993 -4.8109999 8.8079996 0 0 0 1 10 3 0 0 0 12.0515327
2675 4 -12.3299999 5.3319998 10.1599999 0 0 0 5 4 4 0 0 0 12.4159098
2695 4 -5.3480001 -7.171 21.0900002 0 0 0 1 10 3 0 0 0 12.4628716
2700 1 17.8299999 0.3824 5.2030001 0 0 1 1 8 3 1 0 0 12.3787232
2722 5 -11.6000004 19.3999996 0.1489 0 0 0 1 10 4 0 0 0 12.994935
2752 2 21.3999996 16.0599995 -4.5780001 0 0 0 2 8 2 0 0 0 11.3731632
2760 5 -6.0760002 0.1712 -19.9899998 0 0 0 0 12 2 0 0 0 13.0551825
2768 2 8.4060001 5.7649999 -4.6490002 0 0 0 4 6 3 0 0 0 11.5045862
2774 4 9.408 0.9833 7.2399998 0 0 0 0 12 3 0 0 0 13.0092077
2778 4 5.6659999 10.9099998 16.5300007 0 0 0 1 10 2 0 0 0 11.432024
2782 4 -14.8500004 -21.0300007 13.0900002 0 0 0 0 12 2 0 0 0 12.804184
2790 4 -0.216 17.1900005 3.5309999 0 0 1 1 8 4 1 0 0 12.921157
2799 4 -0.3842 -11.8599998 -22.0200005 0 0 0 3 10 3 0 0 0 13.5003443
2800 4 -11.5500002 16.1200008 -20.8899994 0 0 0 3 6 4 0 0 0 11.6964407
2802 5 -4.0650001 11.8800002 11.7299996 0 0 0 0 12 0 0 0 0 11.6869984
2820 4 11.6899996 -11.3400002 9.2869997 0 0 0 2 8 4 0 0 0 11.5497017
2823 4 -12.3900004 13.0500002 18.3999996 0 0 1 3 9 2 0 0 0 13.0450373
2824 4 17.5 7.1209998 5.2600002 0 0 0 3 6 4 0 0 0 12.778884
2837 5 23.7900009 2.826 4.8850002 0 0 0 2 8 4 0 0 0 11.9035636
2848 4 12.3699999 -17.7299996 0.929 0 0 0 3 6 5 0 0 0 12.1415806
2880 5 19.4699993 -20.9200002 -16.9300004 0 0 1 2 8 4 1 0 0 13.3430138
2885 2 19.75 17.9300004 -17.8400002 0 0 0 2 8 3 0 0 0 11.414258
2895 4 1.932 -19.8700008 -4.7610002 0 0 0 5 6 3 0 0 0 12.5614548
2899 5 14.8000002 -12.2200003 -1.62 0 0 0 2 8 4 0 0 0 11.3806811
2906 4 16.4699993 9.882 1.765 0 0 0 1 10 2 0 0 0 12.4512072
2908 5 -2.2390001 8.2139998 0.5176 0 0 0 4 5 2 1 0 0 12.3691445
2914 2 -3.4730001 -2.0929999 -6.5430002 0 0 0 3 6 3 0 0 0 11.174881
2932 4 -13.7700005 -14.3999996 -1.211 0 0 0 2 8 4 0 0 0 12.1782618
2955 4 -9.0030003 8.7229996 -13.8999996 0 0 0 1 10 4 0 0 0 12.9978686
2975 5 5.7119999 -4.1700001 -6.6329999 0 0 0 0 12 0 0 0 0 11.7614928
2985 4 -4.606 3.2590001 -16.3400002 0 0 0 1 10 3 0 0 0 12.4125366
2993 4 11.4700003 -0.8443 10.2200003 0 0 0 3 6 5 0 0 0 11.9051124
2994 4 -14.0200005 -14.8100004 -14.4700003 0 0 0 1 10 4 0 0 0 12.9205552
3004 5 9.5799999 -2.2850001 -9.0489998 0 0 0 1 10 4 0 0 0 12.967555
3009 4 5.4470001 -10.4700003 -7.9580002 0 0 1 0 9 3 0 0 0 11.4533539
3020 5 12.4200001 20.4899998 -9.6569996 0 0 0 2 8 2 0 0 0 12.1459589
3023 2 18.3799992 -9.448 -10.4399996 0 0 1 2 9 2 0 0 0 12.587059
3060 4 -7.877 21.3400002 -16.0 0 0 0 3 8 4 0 0 0 12.4525728
3068 2 3.388 3.5320001 6.8390002 0 0 1 2 8 2 1 0 0 12.6419497
3090 5 16.3899994 -10.1300001 20.0499992 0 0 1 0 11 4 0 0 0 13.4981833
3100 4 -4.4689999 1.7920001 -0.091 0 0 0 2 10 2 0 0 0 12.142271
3115 4 -1.5160001 7.2550001 -1.398 0 0 0 3 6 5 0 0 0 12.4124622
3118 4 0.7572 -2.9790002 -3.6789999 0 0 0 2 10 3 0 0 0 13.1050224
3133 5 24.5100003 9.8590002 -21.3199997 0 0 0 1 10 2 0 0 0 12.0055923
3134 2 4.165 7.3410001 -14.6899996 0 0 0 1 10 5 0 0 0 13.9097272
3145 2 -12.3199997 20.6900006 4.1170001 0 0 0 0 12 0 0 0 0 10.8757878
3150 2 21.1000004 19.5400009 7.1360002 0 0 0 2 8 5 0 0 0 12.4428349
3152 4 -3.553 -17.1000004 -15.4300003 0 0 0 0 12 0 0 0 0 11.1092882
3154 4 25.2199993 12.5900002 -3.401 0 0 1 1 9 3 0 0 0 12.1182613
3158 2 9.8859998 -7.2649999 3.8440002 0 0 0 4 6 3 0 0 0 11.6991968
3159 5 -3.4059999 15.0600004 -6.8179999 0 0 0 2 8 4 0 0 0 11.5080967
3165 5 10.1000004 -15.3800001 18.6100006 0 0 0 2 10 2 0 0 0 12.4175501
3167 2 -4.77 2.6770001 19.2199993 0 0 0 2 8 4 0 0 0 11.680109
3174 4 -7.1500001 -0.01811 -5.7820001 0 0 1 2 7 4 0 0 0 11.7154761
3178 4 16.1900005 -10.2600002 10.6199999 0 0 0 0 12 3 0 0 0 13.0429297
3180 2 20.8999996 20.3500004 -6.928 0 0 0 2 8 2 0 0 0 11.70399
3182 4 13.6700001 -18.4899998 -18.5 0 0 0 1 10 5 0 0 0 13.0312166
3185 5 -0.5738001 5.7870002 5.5960002 0 0 0 2 8 4 0 0 0 11.911376
3186 5 4.211 -1.658 -1.448 0 0 0 2 10 1 0 0 0 11.6586151
3199 5 12.3999996 19.7999993 -0.541 0 0 0 4 4 6 0 0 0 12.5372696
3201 5 -11.7399998 17.7000008 -12.7600003 0 0 0 3 6 4 0 0 0 11.7978688
3220 4 -5.9569998 19.0300007 -15.6599999 0 0 0 1 10 5 0 0 0 13.1743622
3222 4 11.9399996 -2.5569999 -9.8839998 0 0 0 1 10 3 0 0 0 12.0557957
3234 4 -9.2419996 -7.4310003 5.0349998 0 0 0 1 10 4 0 0 0 12.8726368
3240 1 2.4330001 8.849 -13.3199997 0 0 0 2 10 1 0 0 0 12.8558502
3241 4 -10.2100001 20.7199993 -14.8599998 0 0 0 1 10 2 0 0 0 11.9614402
3246 5 -3.7379999 -21.4200001 4.4959998 0 0 0 2 7 4 1 0 0 13.3465653
3267 5 2.2420001 -13.6199999 -7.856 0 0 0 1 10 4 0 0 0 12.6437559
3286 5 9.2399998 -7.8390002 15.0600004 0 0 0 0 12 0 0 0 0 10.9464588
3287 5 13.2299996 15.4099999 -16.2800007 0 0 0 4 4 6 0 0 0 12.3678236
3298 5 1.943 -21.1299992 14.87 0 0 1 2 7 4 0 0 0 12.1620026
3301 5 21.0799999 16.3999996 -7.2150002 0 0 0 1 10 4 0 0 0 12.2502756
3303 5 19.0 2.843 -15.1000004 0 0 0 0 12 0 0 0 0 12.2360115
3315 4 1.16 -10.25 9.8970004 0 0 0 3 6 4 0 0 0 12.6042128
3337 5 -11.1800003 -16.6100006 1.22 0 0 2 4 2 8 0 0 0 12.4722386
3343 5 -8.231 18.6900006 -7.2789998 0 0 0 0 12 0 0 0 0 11.7835207
3357 4 -11.1700001 13.3999996 -7.901 0 0 0 0 12 2 0 0 0 12.2033501
3387 5 21.5900002 17.6599999 -19.4500008 0 0 0 1 12 2 0 0 0 12.8143959
3406 5 -12.5299998 6.6760001 -0.5797 0 0 0 3 6 5 0 0 0 12.2751837
3414 2 21.6900006 20.9899998 -4.9400002 0 0 0 1 10 2 0 0 0 11.118309
3433 4 1.258 17.9200002 -12.75 0 0 0 2 8 4 0 0 0 12.2042809
3438 5 16.8400002 -17.7199993 -21.6800003 0 0 1 3 5 6 0 0 0 13.445777
3444 5 10.3599997 -13.3400002 2.9990002 0 0 0 3 10 0 0 0 0 12.4207773
3446 4 8.3100004 -10.1099997 6.7649999 0 0 0 2 10 3 0 0 0 13.347373
3454 2 12.5699997 15.9700004 1.759 0 0 1 2 6 2 1 0 0 11.596611
3465 5 -14.7100001 0.642 -9.7329998 0 0 2 1 8 4 0 0 0 13.0350542
3467 4 0.9825 -5.4169998 -10.1099997 0 0 0 2 10 0 0 0 0 11.7584477
3471 2 -19.7700005 -20.7299996 16.7199993 0 0 0 0 12 0 0 0 0 11.0850248
3481 4 -1.4600001 -14.6499996 -17.7299996 0 0 0 1 10 2 0 0 0 11.6814318
3489 2 -8.6660004 -7.3940001 -19.2700005 0 0 0 0 12 3 0 0 0 12.2126742
3497 2 20.7600003 12.2600002 8.2659998 0 0 1 4 3 7 0 0 0 12.1300135
3501 4 6.085 -6.5380001 9.7399998 0 0 1 2 6 2 1 0 0 11.3920317
3516 4 15.6000004 -9.2919998 2.543 0 0 0 1 10 3 0 0 0 12.327548
3529 5 10.4700003 -8.389 -2.4319999 0 0 1 2 9 2 0 0 0 12.2221613
3540 4 1.666 3.4600001 -8.1040001 0 0 0 0 12 0 0 0 0 11.186142
3561 5 -4.2849999 13.4200001 7.9720002 0 0 0 0 12 0 0 0 0 12.1671772
3563 2 -14.3500004 -7.0180001 -22.0900002 0 0 0 1 10 2 0 0 0 12.1577215
3571 4 0.1509 10.5900002 2.207 0 0 1 4 9 2 0 0 0 13.6743241
3587 4 17.8400002 -20.1700001 -21.0599995 0 0 0 1 10 4 0 0 0 12.5415955
3597 2 11.29 -0.1756 -9.6590004 0 0 1 2 5 4 0 0 0 11.6000786
3613 4 -0.4107 15.7600003 -14.0200005 0 0 0 3 8 2 0 0 0 12.697527
3614 4 -6.896 1.921 7.4730001 0 0 0 1 10 2 0 0 0 11.5027619
3617 5 -15.29 -21.9799996 0.3437 0 0 0 0 12 0 0 0 0 12.0486403
3634 5 13.1000004 -13.1700001 -6.612 0 0 0 1 10 4 0 0 0 12.46875
3636 4 3.431 -15.9799996 -0.8595 0 0 0 2 8 4 0 0 0 12.349494
3648 2 -4.6589999 17.2099991 4.7379999 0 0 0 4 8 1 0 0 0 12.1080418
3659 4 18.3600006 -3.3940001 21.0400009 0 0 0 3 6 4 0 0 0 12.2399531
3662 2 -3.0899999 4.5549999 19.2600002 0 0 2 2 6 3 0 0 0 11.6533385
3675 1 2.2880001 15.5 18.5200005 0 0 0 2 10 0 0 0 0 12.1046495
3678 2 -8.3070002 -2.7449999 -10.0299997 0 0 1 0 11 1 0 0 0 11.3465119
3690 5 -10.9399996 -14.2600002 3.066 0 0 1 3 5 4 2 0 0 12.9184924
3708 3 6.244 -4.3850002 -4.073 0 0 1 3 5 5 0 0 0 11.9929992
3714 4 4.158 -12.2399998 -21.25 0 0 0 1 10 5 0 0 0 14.0873871
3738 5 12.0100002 14.3699999 -8.1859999 0 0 0 0 12 0 0 0 0 12.024416
3744 4 -18.3199997 -18.2700005 13.6599999 0 0 0 0 12 2 0 0 0 12.3547039
3746 4 -11.96 -16.6900006 -14.7399998 0 0 1 0 9 3 0 0 0 11.549078
3747 5 -0.7124 -13.3900004 -11.3000002 0 0 0 1 12 1 0 0 0 12.4069376
3749 5 -11.1999998 -9.4779997 4.3429999 0 0 0 0 12 0 0 0 0 11.3614187