ITEM: TIMESTEP
0
ITEM: NUMBER OF ATOMS
16384
ITEM: BOX BOUNDS pp pp pp
0.0000000000000000e+00 4.6372109470882002e+01
0.0000000000000000e+00 4.6372109470882002e+01
0.0000000000000000e+00 4.6372109470882002e+01
ITEM: ATOMS id type x y z
1 4 0 0 0
2 4 1.46063 1.46063 0
5 4 2.92126 1.46063 1.46063
32 4 1.46063 2.92126 1.46063
8193 2 0 0 0
8194 2 1.46063 1.46063 0
8195 2 1.46063 0 1.46063
8196 2 0 1.46063 1.46063
8226 2 0 2.92126 0
8730 2 1.46063 1.46063 2.92126
8760 2 2.92126 2.92126 2.92126
3 4 4.38189 1.46063 0
4 4 4.38189 0 1.46063
7 4 5.84252 1.46063 1.46063
34 4 4.38189 2.92126 1.46063
36 4 5.84252 2.92126 0
558 4 5.84252 2.92126 2.92126
8197 2 4.38189 0 1.46063
8198 2 5.84252 0 0
8228 2 4.38189 2.92126 1.46063
8229 2 5.84252 2.92126 0
8732 2 4.38189 1.46063 2.92126
8735 2 5.84252 0 2.92126
6 4 7.30315 0 1.46063
10 4 8.76378 1.46063 1.46063
38 4 7.30315 2.92126 1.46063
561 4 8.76378 2.92126 2.92126
8199 2 7.30315 1.46063 0
8 4 10.2244 1.46063 0
9 4 10.2244 0 1.46063
11 4 11.685 0 0
12 4 11.685 1.46063 1.46063
41 4 10.2244 2.92126 1.46063
43 4 11.685 2.92126 0
525 4 10.2244 1.46063 2.92126
528 4 11.685 0 2.92126
8200 2 10.2244 1.46063 0
8201 2 13.1457 0 1.46063
8231 2 11.685 2.92126 0
8232 2 13.1457 2.92126 1.46063
8740 2 11.685 0 2.92126
46 4 16.0669 2.92126 1.46063
565 4 14.6063 2.92126 2.92126
8202 2 16.0669 0 1.46063
8203 2 14.6063 1.46063 1.46063
13 4 17.5276 0 0
48 4 17.5276 2.92126 0
50 4 18.9882 2.92126 1.46063
532 4 18.9882 1.46063 2.92126
568 4 17.5276 2.92126 2.92126
8204 2 17.5276 0 0
8205 2 18.9882 1.46063 0
8206 2 17.5276 1.46063 1.46063
8235 2 18.9882 2.92126 1.46063
8743 2 17.5276 0 2.92126
8744 2 18.9882 1.46063 2.92126
8770 2 17.5276 2.92126 2.92126
14 4 20.4488 0 0
15 4 21.9094 0 1.46063
16 4 20.4488 1.46063 1.46063
534 4 20.4488 0 2.92126
8207 2 20.4488 0 0
8208 2 21.9094 0 1.46063
8236 2 20.4488 2.92126 0
8746 2 20.4488 0 2.92126
8773 2 20.4488 2.92126 2.92126
17 4 23.3701 0 0
18 4 24.8307 1.46063 0
19 4 24.8307 0 1.46063
53 4 23.3701 2.92126 0
55 4 24.8307 2.92126 1.46063
57 4 26.2913 2.92126 0
536 4 23.3701 0 2.92126
537 4 24.8307 1.46063 2.92126
571 4 23.3701 2.92126 2.92126
575 4 26.2913 2.92126 2.92126
8209 2 24.8307 1.46063 0
8212 2 26.2913 1.46063 1.46063
8238 2 23.3701 2.92126 0
8748 2 23.3701 0 2.92126
8778 2 26.2913 2.92126 2.92126
20 4 27.752 1.46063 0
21 4 27.752 0 1.46063
540 4 29.2126 0 2.92126
8210 2 27.752 1.46063 0
8211 2 27.752 0 1.46063
8213 2 29.2126 0 0
8215 2 29.2126 1.46063 1.46063
8240 2 27.752 2.92126 1.46063
8750 2 27.752 1.46063 2.92126
22 4 30.6732 1.46063 0
23 4 32.1339 0 0
60 4 30.6732 2.92126 1.46063
541 4 32.1339 0 2.92126
8214 2 30.6732 0 1.46063
8217 2 32.1339 1.46063 1.46063
8242 2 30.6732 2.92126 1.46063
8243 2 32.1339 2.92126 0
24 4 33.5945 1.46063 0
62 4 33.5945 2.92126 1.46063
63 4 35.0551 2.92126 0
542 4 33.5945 1.46063 2.92126
8216 2 33.5945 1.46063 0
8218 2 35.0551 0 0
8220 2 35.0551 1.46063 1.46063
8245 2 35.0551 2.92126 0
8754 2 33.5945 1.46063 2.92126
8783 2 35.0551 2.92126 2.92126
25 4 36.5157 1.46063 0
26 4 39.437 1.46063 0
65 4 36.5157 2.92126 1.46063
67 4 39.437 2.92126 1.46063
543 4 36.5157 1.46063 2.92126
546 4 37.9764 0 2.92126
547 4 39.437 1.46063 2.92126
583 4 37.9764 2.92126 2.92126
8219 2 36.5157 1.46063 0
8221 2 37.9764 0 0
8222 2 39.437 0 1.46063
8223 2 37.9764 1.46063 1.46063
8246 2 36.5157 2.92126 1.46063
8247 2 37.9764 2.92126 0
8249 2 39.437 2.92126 1.46063
8757 2 37.9764 0 2.92126
27 4 40.8976 0 0
28 4 42.3583 0 1.46063
29 4 40.8976 1.46063 1.46063
68 4 40.8976 2.92126 0
8224 2 42.3583 0 1.46063
8251 2 40.8976 2.92126 0
8787 2 40.8976 2.92126 2.92126
30 4 43.8189 0 0
31 4 45.2795 1.46063 0
70 4 43.8189 2.92126 0
551 4 43.8189 0 2.92126
8225 2 43.8189 0 0
8252 2 43.8189 2.92126 0
8254 2 45.2795 2.92126 1.46063
8759 2 45.2795 1.46063 2.92126
33 4 0 4.38189 1.46063
35 4 2.92126 4.38189 1.46063
73 4 1.46063 5.84252 1.46063
553 4 1.46063 4.38189 2.92126
587 4 0 5.84252 2.92126
8227 2 1.46063 4.38189 0
8256 2 1.46063 5.84252 1.46063
8258 2 2.92126 5.84252 0
8790 2 0 5.84252 2.92126
8793 2 2.92126 5.84252 2.92126
39 4 5.84252 4.38189 1.46063
74 4 4.38189 5.84252 1.46063
555 4 4.38189 4.38189 2.92126
8260 2 5.84252 5.84252 0
8761 2 4.38189 4.38189 2.92126
37 4 7.30315 4.38189 0
42 4 8.76378 4.38189 1.46063
76 4 8.76378 5.84252 0
8230 2 7.30315 4.38189 0
8261 2 7.30315 5.84252 1.46063
8263 2 8.76378 5.84252 0
8762 2 7.30315 4.38189 2.92126
40 4 10.2244 4.38189 0
44 4 13.1457 4.38189 0
45 4 11.685 4.38189 1.46063
77 4 10.2244 5.84252 1.46063
78 4 13.1457 5.84252 1.46063
562 4 10.2244 4.38189 2.92126
563 4 13.1457 4.38189 2.92126
592 4 11.685 5.84252 2.92126
8265 2 11.685 5.84252 0
8267 2 13.1457 5.84252 1.46063
8765 2 13.1457 4.38189 2.92126
47 4 14.6063 4.38189 1.46063
80 4 16.0669 5.84252 1.46063
566 4 16.0669 4.38189 2.92126
594 4 14.6063 5.84252 2.92126
8233 2 16.0669 4.38189 0
8268 2 14.6063 5.84252 0
8270 2 16.0669 5.84252 1.46063
8768 2 16.0669 4.38189 2.92126
49 4 18.9882 4.38189 0
51 4 17.5276 4.38189 1.46063
81 4 17.5276 5.84252 0
82 4 18.9882 5.84252 1.46063
569 4 18.9882 4.38189 2.92126
596 4 17.5276 5.84252 2.92126
8234 2 18.9882 4.38189 0
8771 2 18.9882 4.38189 2.92126
52 4 20.4488 4.38189 1.46063
598 4 20.4488 5.84252 2.92126
8237 2 20.4488 4.38189 1.46063
8804 2 20.4488 5.84252 2.92126
54 4 24.8307 4.38189 0
56 4 23.3701 4.38189 1.46063
59 4 26.2913 4.38189 1.46063
84 4 24.8307 5.84252 1.46063
572 4 24.8307 4.38189 2.92126
603 4 26.2913 5.84252 2.92126
8239 2 24.8307 4.38189 0
8241 2 26.2913 4.38189 1.46063
8274 2 23.3701 5.84252 0
8277 2 26.2913 5.84252 0
8776 2 24.8307 4.38189 2.92126
58 4 27.752 4.38189 0
61 4 29.2126 4.38189 1.46063
576 4 27.752 4.38189 2.92126
8279 2 27.752 5.84252 1.46063
8281 2 29.2126 5.84252 0
87 4 30.6732 5.84252 1.46063
604 4 32.1339 5.84252 2.92126
8283 2 30.6732 5.84252 1.46063
8812 2 32.1339 5.84252 2.92126
89 4 33.5945 5.84252 1.46063
579 4 33.5945 4.38189 2.92126
8244 2 33.5945 4.38189 0
8285 2 35.0551 5.84252 0
8816 2 35.0551 5.84252 2.92126
64 4 36.5157 4.38189 0
66 4 39.437 4.38189 0
582 4 36.5157 4.38189 2.92126
584 4 39.437 4.38189 2.92126
8248 2 39.437 4.38189 0
8250 2 37.9764 4.38189 1.46063
8287 2 39.437 5.84252 1.46063
8784 2 36.5157 4.38189 2.92126
69 4 42.3583 4.38189 0
94 4 40.8976 5.84252 0
8289 2 40.8976 5.84252 0
71 4 45.2795 4.38189 0
72 4 43.8189 4.38189 1.46063
95 4 43.8189 5.84252 0
586 4 45.2795 4.38189 2.92126
609 4 43.8189 5.84252 2.92126
8253 2 45.2795 4.38189 0
8255 2 43.8189 4.38189 1.46063
8292 2 43.8189 5.84252 0
8789 2 45.2795 4.38189 2.92126
75 4 2.92126 7.30315 1.46063
99 4 1.46063 8.76378 1.46063
101 4 2.92126 8.76378 0
588 4 1.46063 7.30315 2.92126
8257 2 0 7.30315 1.46063
8295 2 0 8.76378 0
8296 2 2.92126 8.76378 0
8824 2 0 8.76378 2.92126
8826 2 2.92126 8.76378 2.92126
103 4 4.38189 8.76378 1.46063
104 4 5.84252 8.76378 0
590 4 4.38189 7.30315 2.92126
613 4 5.84252 8.76378 2.92126
8259 2 4.38189 7.30315 0
8262 2 5.84252 7.30315 1.46063
8298 2 4.38189 8.76378 1.46063
8299 2 5.84252 8.76378 0
8794 2 4.38189 7.30315 2.92126
8827 2 5.84252 8.76378 2.92126
105 4 7.30315 8.76378 1.46063
8264 2 8.76378 7.30315 1.46063
8301 2 8.76378 8.76378 0
107 4 10.2244 8.76378 1.46063
8266 2 13.1457 7.30315 0
8305 2 13.1457 8.76378 1.46063
8798 2 10.2244 7.30315 2.92126
8831 2 11.685 8.76378 2.92126
79 4 16.0669 7.30315 0
108 4 14.6063 8.76378 0
110 4 16.0669 8.76378 1.46063
595 4 16.0669 7.30315 2.92126
618 4 14.6063 8.76378 2.92126
8269 2 16.0669 7.30315 0
8801 2 16.0669 7.30315 2.92126
111 4 17.5276 8.76378 0
112 4 18.9882 8.76378 1.46063
8271 2 18.9882 7.30315 0
8272 2 17.5276 7.30315 1.46063
83 4 20.4488 7.30315 1.46063
114 4 20.4488 8.76378 0
116 4 21.9094 8.76378 1.46063
599 4 21.9094 7.30315 2.92126
8273 2 20.4488 7.30315 1.46063
8309 2 20.4488 8.76378 0
8310 2 21.9094 8.76378 1.46063
86 4 26.2913 7.30315 1.46063
119 4 26.2913 8.76378 0
601 4 24.8307 7.30315 2.92126
623 4 23.3701 8.76378 2.92126
626 4 26.2913 8.76378 2.92126
8275 2 24.8307 7.30315 0
8276 2 23.3701 7.30315 1.46063
8280 2 26.2913 7.30315 1.46063
8312 2 23.3701 8.76378 0
8314 2 26.2913 8.76378 0
8805 2 24.8307 7.30315 2.92126
8835 2 23.3701 8.76378 2.92126
85 4 27.752 7.30315 0
88 4 29.2126 7.30315 1.46063
121 4 27.752 8.76378 1.46063
123 4 29.2126 8.76378 0
628 4 29.2126 8.76378 2.92126
8278 2 27.752 7.30315 0
8315 2 27.752 8.76378 1.46063
8316 2 29.2126 8.76378 0
8839 2 29.2126 8.76378 2.92126
90 4 32.1339 7.30315 1.46063
124 4 30.6732 8.76378 1.46063
8282 2 30.6732 7.30315 0
8317 2 32.1339 8.76378 0
8809 2 30.6732 7.30315 2.92126
92 4 35.0551 7.30315 1.46063
633 4 35.0551 8.76378 2.92126
8284 2 33.5945 7.30315 0
8813 2 33.5945 7.30315 2.92126
91 4 36.5157 7.30315 0
93 4 37.9764 7.30315 1.46063
126 4 36.5157 8.76378 1.46063
128 4 37.9764 8.76378 0
129 4 39.437 8.76378 1.46063
8286 2 39.437 7.30315 0
8288 2 37.9764 7.30315 1.46063
8319 2 39.437 8.76378 1.46063
8817 2 36.5157 7.30315 2.92126
130 4 40.8976 8.76378 0
8290 2 42.3583 7.30315 0
8291 2 40.8976 7.30315 1.46063
8321 2 40.8976 8.76378 0
8847 2 40.8976 8.76378 2.92126
96 4 45.2795 7.30315 0
97 4 43.8189 7.30315 1.46063
610 4 45.2795 7.30315 2.92126
637 4 43.8189 8.76378 2.92126
8293 2 45.2795 7.30315 0
8294 2 43.8189 7.30315 1.46063
8323 2 43.8189 8.76378 0
8822 2 45.2795 7.30315 2.92126
98 4 1.46063 10.2244 0
100 4 0 10.2244 1.46063
132 4 1.46063 13.1457 0
640 4 1.46063 13.1457 2.92126
8326 2 1.46063 13.1457 0
8327 2 1.46063 11.685 1.46063
8328 2 0 13.1457 1.46063
8329 2 2.92126 11.685 0
8332 2 2.92126 13.1457 1.46063
8825 2 1.46063 10.2244 2.92126
8852 2 0 11.685 2.92126
8853 2 1.46063 13.1457 2.92126
8856 2 2.92126 11.685 2.92126
102 4 4.38189 10.2244 0
133 4 4.38189 13.1457 0
612 4 4.38189 10.2244 2.92126
8297 2 4.38189 10.2244 0
8330 2 4.38189 13.1457 0
8331 2 4.38189 11.685 1.46063
8333 2 5.84252 11.685 0
8335 2 5.84252 13.1457 1.46063
8857 2 4.38189 13.1457 2.92126
134 4 7.30315 11.685 1.46063
135 4 8.76378 13.1457 1.46063
614 4 7.30315 10.2244 2.92126
8300 2 7.30315 10.2244 0
8303 2 8.76378 10.2244 1.46063
8334 2 7.30315 13.1457 0
8828 2 7.30315 10.2244 2.92126
8860 2 7.30315 13.1457 2.92126
106 4 10.2244 10.2244 0
136 4 11.685 13.1457 1.46063
616 4 10.2244 10.2244 2.92126
8302 2 10.2244 10.2244 0
8304 2 13.1457 10.2244 0
8336 2 10.2244 13.1457 0
8337 2 13.1457 13.1457 0
8338 2 13.1457 11.685 1.46063
8339 2 11.685 13.1457 1.46063
8829 2 10.2244 10.2244 2.92126
8863 2 13.1457 13.1457 2.92126
109 4 16.0669 10.2244 0
137 4 14.6063 11.685 0
138 4 16.0669 13.1457 0
8306 2 16.0669 10.2244 0
8340 2 14.6063 11.685 0
8341 2 16.0669 11.685 1.46063
8342 2 14.6063 13.1457 1.46063
8864 2 14.6063 11.685 2.92126
113 4 17.5276 10.2244 1.46063
139 4 17.5276 11.685 0
140 4 18.9882 13.1457 0
620 4 18.9882 10.2244 2.92126
8307 2 18.9882 10.2244 0
8308 2 17.5276 10.2244 1.46063
8343 2 18.9882 13.1457 0
8344 2 18.9882 11.685 1.46063
8345 2 17.5276 13.1457 1.46063
8833 2 18.9882 10.2244 2.92126
8866 2 17.5276 11.685 2.92126
8867 2 18.9882 13.1457 2.92126
115 4 21.9094 10.2244 0
117 4 20.4488 10.2244 1.46063
141 4 21.9094 13.1457 0
142 4 20.4488 13.1457 1.46063
621 4 21.9094 10.2244 2.92126
652 4 21.9094 13.1457 2.92126
8311 2 20.4488 10.2244 1.46063
8346 2 20.4488 13.1457 1.46063
8834 2 21.9094 10.2244 2.92126
8868 2 20.4488 11.685 2.92126
8869 2 21.9094 13.1457 2.92126
118 4 23.3701 10.2244 1.46063
122 4 26.2913 10.2244 1.46063
143 4 24.8307 11.685 1.46063
144 4 23.3701 13.1457 1.46063
147 4 26.2913 13.1457 1.46063
624 4 24.8307 10.2244 2.92126
654 4 23.3701 11.685 2.92126
655 4 24.8307 13.1457 2.92126
657 4 26.2913 11.685 2.92126
8313 2 24.8307 10.2244 0
8347 2 24.8307 13.1457 0
8348 2 23.3701 13.1457 1.46063
8350 2 26.2913 13.1457 1.46063
8836 2 24.8307 10.2244 2.92126
8870 2 24.8307 13.1457 2.92126
120 4 27.752 10.2244 0
145 4 27.752 13.1457 0
146 4 27.752 11.685 1.46063
148 4 29.2126 11.685 0
150 4 29.2126 13.1457 1.46063
658 4 27.752 13.1457 2.92126
8349 2 27.752 11.685 1.46063
8352 2 29.2126 13.1457 1.46063
8838 2 27.752 10.2244 2.92126
8871 2 27.752 13.1457 2.92126
149 4 30.6732 13.1457 0
629 4 30.6732 10.2244 2.92126
659 4 30.6732 13.1457 2.92126
660 4 32.1339 11.685 2.92126
8318 2 32.1339 10.2244 1.46063
8351 2 30.6732 13.1457 0
8353 2 32.1339 11.685 0
8355 2 32.1339 13.1457 1.46063
8840 2 30.6732 10.2244 2.92126
8874 2 30.6732 13.1457 2.92126
127 4 35.0551 10.2244 1.46063
151 4 33.5945 13.1457 0
152 4 35.0551 11.685 0
154 4 35.0551 13.1457 1.46063
661 4 33.5945 13.1457 2.92126
662 4 35.0551 11.685 2.92126
8354 2 33.5945 11.685 1.46063
8356 2 35.0551 11.685 0
8358 2 35.0551 13.1457 1.46063
8843 2 33.5945 10.2244 2.92126
125 4 36.5157 10.2244 0
153 4 36.5157 13.1457 0
155 4 37.9764 11.685 0
156 4 39.437 11.685 1.46063
157 4 37.9764 13.1457 1.46063
663 4 36.5157 13.1457 2.92126
664 4 37.9764 11.685 2.92126
8320 2 37.9764 10.2244 1.46063
8357 2 36.5157 11.685 1.46063
8359 2 39.437 11.685 1.46063
8360 2 37.9764 13.1457 1.46063
8878 2 37.9764 11.685 2.92126
158 4 40.8976 11.685 0
635 4 42.3583 10.2244 2.92126
667 4 40.8976 11.685 2.92126
668 4 42.3583 13.1457 2.92126
8322 2 40.8976 10.2244 1.46063
8361 2 42.3583 13.1457 0
8848 2 42.3583 10.2244 2.92126
131 4 45.2795 10.2244 0
159 4 43.8189 13.1457 1.46063
8324 2 45.2795 10.2244 0
8325 2 43.8189 10.2244 1.46063
8362 2 43.8189 11.685 0
8363 2 45.2795 13.1457 0
8364 2 45.2795 11.685 1.46063
8365 2 43.8189 13.1457 1.46063
8851 2 45.2795 10.2244 2.92126
160 4 0 14.6063 0
161 4 1.46063 16.0669 0
162 4 1.46063 14.6063 1.46063
163 4 0 16.0669 1.46063
164 4 2.92126 14.6063 0
672 4 0 14.6063 2.92126
675 4 2.92126 14.6063 2.92126
8366 2 0 14.6063 0
8367 2 1.46063 16.0669 0
8368 2 1.46063 14.6063 1.46063
8369 2 0 16.0669 1.46063
8370 2 2.92126 14.6063 0
8373 2 2.92126 16.0669 1.46063
8880 2 0 14.6063 2.92126
8883 2 2.92126 14.6063 2.92126
165 4 4.38189 14.6063 1.46063
168 4 5.84252 16.0669 1.46063
676 4 4.38189 16.0669 2.92126
679 4 5.84252 14.6063 2.92126
8371 2 4.38189 16.0669 0
8372 2 4.38189 14.6063 1.46063
8374 2 5.84252 14.6063 0
8884 2 4.38189 16.0669 2.92126
8886 2 5.84252 14.6063 2.92126
166 4 7.30315 16.0669 0
167 4 7.30315 14.6063 1.46063
170 4 8.76378 16.0669 1.46063
680 4 7.30315 16.0669 2.92126
682 4 8.76378 14.6063 2.92126
8375 2 7.30315 16.0669 0
8887 2 7.30315 16.0669 2.92126
169 4 10.2244 14.6063 1.46063
171 4 11.685 14.6063 0
172 4 13.1457 16.0669 0
173 4 13.1457 14.6063 1.46063
174 4 11.685 16.0669 1.46063
683 4 10.2244 16.0669 2.92126
685 4 11.685 14.6063 2.92126
686 4 13.1457 16.0669 2.92126
8376 2 10.2244 16.0669 0
8377 2 10.2244 14.6063 1.46063
8378 2 11.685 14.6063 0
8379 2 13.1457 16.0669 0
8380 2 13.1457 14.6063 1.46063
8381 2 11.685 16.0669 1.46063
8888 2 10.2244 16.0669 2.92126
8890 2 11.685 14.6063 2.92126
8891 2 13.1457 16.0669 2.92126
175 4 14.6063 14.6063 0
176 4 14.6063 16.0669 1.46063
688 4 14.6063 14.6063 2.92126
689 4 16.0669 16.0669 2.92126
8382 2 16.0669 16.0669 0
8383 2 16.0669 14.6063 1.46063
8892 2 16.0669 16.0669 2.92126
177 4 17.5276 14.6063 0
178 4 18.9882 16.0669 0
691 4 18.9882 16.0669 2.92126
8384 2 18.9882 16.0669 0
8385 2 18.9882 14.6063 1.46063
8894 2 17.5276 14.6063 2.92126
8895 2 18.9882 16.0669 2.92126
179 4 21.9094 16.0669 0
8386 2 20.4488 14.6063 0
8387 2 21.9094 16.0669 0
8897 2 20.4488 14.6063 2.92126
180 4 26.2913 14.6063 0
182 4 26.2913 16.0669 1.46063
8388 2 23.3701 16.0669 1.46063
8898 2 24.8307 16.0669 2.92126
181 4 27.752 16.0669 0
183 4 29.2126 14.6063 0
8389 2 27.752 16.0669 0
8390 2 27.752 14.6063 1.46063
8391 2 29.2126 14.6063 0
8899 2 27.752 16.0669 2.92126
8902 2 29.2126 14.6063 2.92126
184 4 32.1339 14.6063 0
185 4 32.1339 16.0669 1.46063
698 4 32.1339 14.6063 2.92126
8392 2 30.6732 16.0669 0
8393 2 30.6732 14.6063 1.46063
8394 2 32.1339 16.0669 1.46063
8903 2 30.6732 16.0669 2.92126
699 4 33.5945 16.0669 2.92126
701 4 35.0551 14.6063 2.92126
8395 2 35.0551 14.6063 0
8397 2 35.0551 16.0669 1.46063
8906 2 35.0551 14.6063 2.92126
186 4 36.5157 14.6063 1.46063
187 4 39.437 16.0669 0
188 4 39.437 14.6063 1.46063
189 4 37.9764 16.0669 1.46063
702 4 37.9764 14.6063 2.92126
703 4 39.437 16.0669 2.92126
8396 2 36.5157 14.6063 1.46063
8398 2 37.9764 14.6063 0
8399 2 39.437 14.6063 1.46063
8400 2 37.9764 16.0669 1.46063
8907 2 36.5157 16.0669 2.92126
8909 2 37.9764 14.6063 2.92126
8910 2 39.437 16.0669 2.92126
190 4 42.3583 16.0669 0
705 4 40.8976 14.6063 2.92126
706 4 42.3583 16.0669 2.92126
8401 2 40.8976 14.6063 0
8402 2 42.3583 16.0669 0
8913 2 42.3583 16.0669 2.92126
191 4 45.2795 16.0669 0
192 4 45.2795 14.6063 1.46063
709 4 43.8189 14.6063 2.92126
710 4 45.2795 16.0669 2.92126
8403 2 45.2795 16.0669 0
8916 2 43.8189 14.6063 2.92126
193 4 1.46063 18.9882 0
194 4 1.46063 17.5276 1.46063
195 4 0 18.9882 1.46063
196 4 2.92126 17.5276 0
711 4 0 17.5276 2.92126
712 4 1.46063 18.9882 2.92126
713 4 2.92126 17.5276 2.92126
8404 2 2.92126 17.5276 0
8405 2 2.92126 18.9882 1.46063
8918 2 0 17.5276 2.92126
8919 2 1.46063 18.9882 2.92126
8920 2 2.92126 17.5276 2.92126
197 4 4.38189 18.9882 0
198 4 5.84252 17.5276 0
201 4 5.84252 18.9882 1.46063
8406 2 5.84252 17.5276 0
8921 2 4.38189 18.9882 2.92126
8923 2 5.84252 17.5276 2.92126
199 4 7.30315 18.9882 0
200 4 7.30315 17.5276 1.46063
202 4 8.76378 17.5276 0
715 4 7.30315 18.9882 2.92126
718 4 8.76378 17.5276 2.92126
8407 2 7.30315 18.9882 0
8408 2 8.76378 17.5276 0
8409 2 8.76378 18.9882 1.46063
8924 2 7.30315 18.9882 2.92126
8926 2 8.76378 17.5276 2.92126
203 4 10.2244 18.9882 0
204 4 10.2244 17.5276 1.46063
205 4 13.1457 18.9882 0
206 4 13.1457 17.5276 1.46063
719 4 10.2244 18.9882 2.92126
721 4 11.685 17.5276 2.92126
8410 2 11.685 17.5276 0
8411 2 13.1457 18.9882 0
8412 2 11.685 18.9882 1.46063
8927 2 10.2244 18.9882 2.92126
8928 2 11.685 17.5276 2.92126
207 4 16.0669 18.9882 0
208 4 14.6063 18.9882 1.46063
723 4 16.0669 18.9882 2.92126
8413 2 14.6063 17.5276 0
8414 2 16.0669 17.5276 1.46063
8930 2 16.0669 18.9882 2.92126
209 4 17.5276 17.5276 0
210 4 18.9882 18.9882 0
8415 2 18.9882 18.9882 0
8416 2 18.9882 17.5276 1.46063
211 4 21.9094 18.9882 0
727 4 21.9094 18.9882 2.92126
8417 2 20.4488 17.5276 0
8418 2 21.9094 17.5276 1.46063
8933 2 20.4488 17.5276 2.92126
8934 2 21.9094 18.9882 2.92126
212 4 23.3701 17.5276 0
213 4 24.8307 18.9882 0
214 4 24.8307 17.5276 1.46063
215 4 23.3701 18.9882 1.46063
728 4 23.3701 17.5276 2.92126
729 4 24.8307 18.9882 2.92126
731 4 26.2913 17.5276 2.92126
8419 2 23.3701 17.5276 0
8420 2 24.8307 17.5276 1.46063
8421 2 26.2913 17.5276 0
8936 2 24.8307 18.9882 2.92126
8937 2 26.2913 17.5276 2.92126
216 4 27.752 18.9882 0
217 4 27.752 17.5276 1.46063
218 4 29.2126 17.5276 0
734 4 29.2126 17.5276 2.92126
8422 2 27.752 18.9882 0
8423 2 27.752 17.5276 1.46063
8424 2 29.2126 17.5276 0
8938 2 27.752 18.9882 2.92126
219 4 30.6732 17.5276 1.46063
220 4 32.1339 17.5276 0
735 4 30.6732 18.9882 2.92126
8425 2 30.6732 18.9882 0
8427 2 32.1339 18.9882 1.46063
8941 2 30.6732 18.9882 2.92126
8943 2 32.1339 17.5276 2.92126
221 4 33.5945 18.9882 0
736 4 33.5945 18.9882 2.92126
739 4 35.0551 17.5276 2.92126
8426 2 33.5945 18.9882 0
8428 2 35.0551 18.9882 1.46063
222 4 36.5157 18.9882 0
223 4 36.5157 17.5276 1.46063
224 4 37.9764 17.5276 0
225 4 37.9764 18.9882 1.46063
740 4 36.5157 18.9882 2.92126
8429 2 39.437 17.5276 1.46063
8944 2 36.5157 18.9882 2.92126
8947 2 37.9764 17.5276 2.92126
226 4 40.8976 17.5276 0
227 4 42.3583 18.9882 0
228 4 40.8976 18.9882 1.46063
743 4 42.3583 18.9882 2.92126
8430 2 42.3583 18.9882 0
8949 2 40.8976 17.5276 2.92126
229 4 45.2795 18.9882 0
745 4 45.2795 18.9882 2.92126
230 4 0 20.4488 0
231 4 1.46063 21.9094 0
232 4 1.46063 20.4488 1.46063
233 4 0 21.9094 1.46063
236 4 2.92126 21.9094 1.46063
747 4 0 20.4488 2.92126
748 4 1.46063 21.9094 2.92126
750 4 2.92126 20.4488 2.92126
8431 2 0 20.4488 0
8432 2 1.46063 21.9094 0
8433 2 1.46063 20.4488 1.46063
8434 2 0 21.9094 1.46063
8952 2 0 20.4488 2.92126
8953 2 1.46063 21.9094 2.92126
234 4 4.38189 21.9094 0
235 4 4.38189 20.4488 1.46063
238 4 5.84252 21.9094 1.46063
8435 2 4.38189 21.9094 0
8436 2 4.38189 20.4488 1.46063
8437 2 5.84252 20.4488 0
8440 2 5.84252 21.9094 1.46063
8954 2 4.38189 21.9094 2.92126
8956 2 5.84252 20.4488 2.92126
237 4 7.30315 20.4488 1.46063
239 4 8.76378 20.4488 0
241 4 8.76378 21.9094 1.46063
752 4 7.30315 21.9094 2.92126
8438 2 7.30315 21.9094 0
8439 2 7.30315 20.4488 1.46063
240 4 10.2244 20.4488 1.46063
242 4 13.1457 21.9094 0
243 4 13.1457 20.4488 1.46063
244 4 11.685 21.9094 1.46063
753 4 10.2244 21.9094 2.92126
755 4 11.685 20.4488 2.92126
756 4 13.1457 21.9094 2.92126
8441 2 13.1457 20.4488 1.46063
8958 2 10.2244 21.9094 2.92126
8442 2 16.0669 21.9094 0
8443 2 16.0669 20.4488 1.46063
8962 2 14.6063 20.4488 2.92126
8963 2 16.0669 21.9094 2.92126
245 4 17.5276 20.4488 0
246 4 18.9882 20.4488 1.46063
759 4 17.5276 20.4488 2.92126
8444 2 18.9882 21.9094 0
8445 2 18.9882 20.4488 1.46063
247 4 21.9094 21.9094 0
248 4 21.9094 20.4488 1.46063
249 4 20.4488 21.9094 1.46063
8446 2 20.4488 20.4488 0
8965 2 20.4488 20.4488 2.92126
250 4 23.3701 21.9094 1.46063
251 4 26.2913 20.4488 0
765 4 26.2913 20.4488 2.92126
8447 2 23.3701 20.4488 0
8448 2 24.8307 21.9094 0
8449 2 26.2913 20.4488 0
8966 2 23.3701 20.4488 2.92126
8968 2 26.2913 20.4488 2.92126
252 4 29.2126 20.4488 0
8450 2 27.752 20.4488 1.46063
8451 2 29.2126 20.4488 0
8969 2 27.752 21.9094 2.92126
253 4 30.6732 20.4488 1.46063
767 4 30.6732 21.9094 2.92126
769 4 32.1339 20.4488 2.92126
8452 2 30.6732 21.9094 0
8453 2 30.6732 20.4488 1.46063
8454 2 32.1339 20.4488 0
8455 2 32.1339 21.9094 1.46063
8971 2 30.6732 21.9094 2.92126
254 4 33.5945 21.9094 0
8456 2 35.0551 20.4488 0
8458 2 35.0551 21.9094 1.46063
8974 2 33.5945 21.9094 2.92126
255 4 36.5157 21.9094 0
256 4 36.5157 20.4488 1.46063
257 4 37.9764 21.9094 1.46063
772 4 37.9764 20.4488 2.92126
773 4 39.437 21.9094 2.92126
8457 2 36.5157 21.9094 0
8459 2 39.437 21.9094 0
8976 2 39.437 21.9094 2.92126
258 4 42.3583 21.9094 0
8460 2 42.3583 21.9094 0
8461 2 40.8976 21.9094 1.46063
259 4 45.2795 20.4488 1.46063
776 4 43.8189 20.4488 2.92126
777 4 45.2795 21.9094 2.92126
8462 2 45.2795 21.9094 0
8980 2 45.2795 21.9094 2.92126
260 4 0 23.3701 0
261 4 1.46063 24.8307 0
262 4 0 24.8307 1.46063
263 4 2.92126 23.3701 0
266 4 2.92126 24.8307 1.46063
295 4 2.92126 26.2913 0
778 4 0 23.3701 2.92126
779 4 1.46063 24.8307 2.92126
781 4 2.92126 23.3701 2.92126
811 4 2.92126 26.2913 2.92126
8463 2 1.46063 24.8307 0
8464 2 1.46063 23.3701 1.46063
8465 2 0 24.8307 1.46063
8466 2 2.92126 23.3701 0
8495 2 0 26.2913 0
8981 2 0 23.3701 2.92126
8984 2 2.92126 23.3701 2.92126
9014 2 0 26.2913 2.92126
264 4 4.38189 24.8307 0
265 4 4.38189 23.3701 1.46063
267 4 5.84252 23.3701 0
814 4 5.84252 26.2913 2.92126
8467 2 5.84252 23.3701 0
8498 2 4.38189 26.2913 1.46063
8499 2 5.84252 26.2913 0
8985 2 4.38189 24.8307 2.92126
8986 2 5.84252 23.3701 2.92126
268 4 7.30315 23.3701 1.46063
269 4 8.76378 23.3701 0
271 4 8.76378 24.8307 1.46063
297 4 7.30315 26.2913 1.46063
817 4 8.76378 26.2913 2.92126
8468 2 7.30315 24.8307 0
8469 2 7.30315 23.3701 1.46063
8470 2 8.76378 23.3701 0
8987 2 7.30315 24.8307 2.92126
270 4 10.2244 24.8307 0
272 4 11.685 24.8307 1.46063
299 4 10.2244 26.2913 1.46063
301 4 11.685 26.2913 0
302 4 13.1457 26.2913 1.46063
785 4 11.685 23.3701 2.92126
786 4 13.1457 24.8307 2.92126
8471 2 13.1457 23.3701 1.46063
8472 2 11.685 24.8307 1.46063
8502 2 10.2244 26.2913 1.46063
8504 2 11.685 26.2913 0
8506 2 13.1457 26.2913 1.46063
8990 2 10.2244 24.8307 2.92126
8992 2 11.685 23.3701 2.92126
9019 2 11.685 26.2913 2.92126
273 4 16.0669 24.8307 0
274 4 16.0669 23.3701 1.46063
275 4 14.6063 24.8307 1.46063
788 4 14.6063 23.3701 2.92126
819 4 14.6063 26.2913 2.92126
8473 2 16.0669 24.8307 0
8508 2 14.6063 26.2913 0
8994 2 16.0669 24.8307 2.92126
276 4 18.9882 23.3701 1.46063
277 4 17.5276 24.8307 1.46063
306 4 18.9882 26.2913 1.46063
789 4 18.9882 24.8307 2.92126
823 4 17.5276 26.2913 2.92126
8474 2 17.5276 23.3701 0
8510 2 17.5276 26.2913 0
278 4 20.4488 23.3701 0
279 4 20.4488 24.8307 1.46063
792 4 20.4488 23.3701 2.92126
825 4 20.4488 26.2913 2.92126
8513 2 20.4488 26.2913 0
8997 2 20.4488 23.3701 2.92126
8998 2 21.9094 24.8307 2.92126
9023 2 20.4488 26.2913 2.92126
280 4 23.3701 23.3701 0
281 4 24.8307 23.3701 1.46063
282 4 26.2913 23.3701 0
308 4 23.3701 26.2913 0
793 4 23.3701 23.3701 2.92126
828 4 26.2913 26.2913 2.92126
8475 2 23.3701 23.3701 0
8476 2 24.8307 24.8307 0
8477 2 24.8307 23.3701 1.46063
8478 2 26.2913 23.3701 0
8515 2 24.8307 26.2913 1.46063
9000 2 26.2913 23.3701 2.92126
9027 2 23.3701 26.2913 2.92126
283 4 27.752 24.8307 0
284 4 27.752 23.3701 1.46063
285 4 29.2126 24.8307 1.46063
797 4 29.2126 23.3701 2.92126
830 4 29.2126 26.2913 2.92126
8479 2 27.752 24.8307 0
8480 2 29.2126 23.3701 0
8483 2 29.2126 24.8307 1.46063
8519 2 29.2126 26.2913 0
9003 2 29.2126 23.3701 2.92126
9030 2 29.2126 26.2913 2.92126
286 4 32.1339 23.3701 0
311 4 30.6732 26.2913 1.46063
798 4 32.1339 23.3701 2.92126
832 4 32.1339 26.2913 2.92126
8481 2 30.6732 24.8307 0
8482 2 30.6732 23.3701 1.46063
8485 2 32.1339 24.8307 1.46063
8520 2 30.6732 26.2913 1.46063
287 4 33.5945 24.8307 0
290 4 35.0551 24.8307 1.46063
314 4 35.0551 26.2913 0
799 4 33.5945 24.8307 2.92126
8484 2 33.5945 23.3701 1.46063
8523 2 35.0551 26.2913 0
9005 2 33.5945 24.8307 2.92126
9007 2 35.0551 23.3701 2.92126
9035 2 35.0551 26.2913 2.92126
288 4 36.5157 24.8307 0
289 4 36.5157 23.3701 1.46063
316 4 37.9764 26.2913 0
318 4 39.437 26.2913 1.46063
801 4 36.5157 24.8307 2.92126
803 4 39.437 24.8307 2.92126
837 4 37.9764 26.2913 2.92126
8486 2 36.5157 24.8307 0
8487 2 36.5157 23.3701 1.46063
8488 2 39.437 24.8307 0
8489 2 39.437 23.3701 1.46063
8490 2 37.9764 24.8307 1.46063
9008 2 36.5157 24.8307 2.92126
9009 2 39.437 24.8307 2.92126
9038 2 37.9764 26.2913 2.92126
291 4 42.3583 23.3701 1.46063
320 4 40.8976 26.2913 0
806 4 42.3583 24.8307 2.92126
8491 2 40.8976 23.3701 0
8492 2 42.3583 24.8307 0
8525 2 40.8976 26.2913 0
8526 2 42.3583 26.2913 1.46063
9011 2 40.8976 23.3701 2.92126
292 4 45.2795 23.3701 1.46063
293 4 43.8189 24.8307 1.46063
808 4 43.8189 23.3701 2.92126
809 4 45.2795 24.8307 2.92126
8493 2 45.2795 23.3701 1.46063
8494 2 43.8189 24.8307 1.46063
9042 2 43.8189 26.2913 2.92126
294 4 1.46063 27.752 0
323 4 1.46063 29.2126 1.46063
324 4 2.92126 29.2126 0
843 4 0 29.2126 2.92126
846 4 2.92126 29.2126 2.92126
8496 2 1.46063 27.752 0
8528 2 0 29.2126 0
296 4 4.38189 27.752 0
325 4 4.38189 29.2126 1.46063
812 4 4.38189 27.752 2.92126
8497 2 4.38189 27.752 0
8500 2 5.84252 27.752 1.46063
8532 2 5.84252 29.2126 0
9015 2 4.38189 27.752 2.92126
9049 2 5.84252 29.2126 2.92126
300 4 8.76378 27.752 1.46063
326 4 7.30315 29.2126 1.46063
8503 2 8.76378 27.752 1.46063
9053 2 8.76378 29.2126 2.92126
298 4 10.2244 27.752 0
328 4 10.2244 29.2126 1.46063
329 4 11.685 29.2126 0
852 4 11.685 29.2126 2.92126
8501 2 10.2244 27.752 0
8505 2 13.1457 27.752 0
8507 2 11.685 27.752 1.46063
8536 2 13.1457 29.2126 1.46063
9018 2 10.2244 27.752 2.92126
9020 2 13.1457 27.752 2.92126
9055 2 11.685 29.2126 2.92126
303 4 16.0669 27.752 0
304 4 14.6063 27.752 1.46063
332 4 14.6063 29.2126 0
820 4 16.0669 27.752 2.92126
856 4 14.6063 29.2126 2.92126
8509 2 16.0669 27.752 0
8537 2 14.6063 29.2126 0
8538 2 16.0669 29.2126 1.46063
305 4 18.9882 27.752 0
334 4 17.5276 29.2126 0
8511 2 18.9882 27.752 0
8512 2 17.5276 27.752 1.46063
8540 2 17.5276 29.2126 0
8542 2 18.9882 29.2126 1.46063
307 4 21.9094 27.752 0
338 4 21.9094 29.2126 1.46063
826 4 21.9094 27.752 2.92126
860 4 20.4488 29.2126 2.92126
8545 2 21.9094 29.2126 1.46063
9024 2 21.9094 27.752 2.92126
9063 2 20.4488 29.2126 2.92126
309 4 24.8307 27.752 0
339 4 23.3701 29.2126 0
341 4 24.8307 29.2126 1.46063
343 4 26.2913 29.2126 0
8514 2 24.8307 27.752 0
8516 2 23.3701 27.752 1.46063
8518 2 26.2913 27.752 1.46063
8546 2 23.3701 29.2126 0
8548 2 24.8307 29.2126 1.46063
9028 2 24.8307 27.752 2.92126
312 4 29.2126 27.752 1.46063
345 4 27.752 29.2126 1.46063
346 4 29.2126 29.2126 0
866 4 29.2126 29.2126 2.92126
8517 2 27.752 27.752 0
8521 2 29.2126 27.752 1.46063
8550 2 27.752 29.2126 1.46063
310 4 30.6732 27.752 0
347 4 32.1339 29.2126 0
870 4 32.1339 29.2126 2.92126
8552 2 30.6732 29.2126 1.46063
9031 2 30.6732 27.752 2.92126
9069 2 32.1339 29.2126 2.92126
313 4 33.5945 27.752 0
348 4 35.0551 29.2126 0
833 4 33.5945 27.752 2.92126
8522 2 33.5945 27.752 0
315 4 36.5157 27.752 0
317 4 39.437 27.752 0
319 4 37.9764 27.752 1.46063
349 4 36.5157 29.2126 1.46063
834 4 36.5157 27.752 2.92126
838 4 39.437 27.752 2.92126
8524 2 39.437 27.752 0
8556 2 37.9764 29.2126 0
8557 2 39.437 29.2126 1.46063
9076 2 37.9764 29.2126 2.92126
352 4 40.8976 29.2126 0
354 4 42.3583 29.2126 1.46063
9040 2 42.3583 27.752 2.92126
321 4 45.2795 27.752 0
841 4 45.2795 27.752 2.92126
874 4 43.8189 29.2126 2.92126
8527 2 45.2795 27.752 0
9043 2 45.2795 27.752 2.92126
9080 2 43.8189 29.2126 2.92126
322 4 1.46063 30.6732 0
357 4 0 32.1339 0
359 4 1.46063 32.1339 1.46063
361 4 2.92126 32.1339 0
844 4 1.46063 30.6732 2.92126
876 4 0 32.1339 2.92126
879 4 2.92126 32.1339 2.92126
8529 2 0 30.6732 1.46063
8531 2 2.92126 30.6732 1.46063
8561 2 0 32.1339 0
8562 2 1.46063 32.1339 1.46063
8563 2 2.92126 32.1339 0
9045 2 1.46063 30.6732 2.92126
327 4 5.84252 30.6732 1.46063
363 4 5.84252 32.1339 0
8530 2 4.38189 30.6732 0
8564 2 4.38189 32.1339 1.46063
8565 2 5.84252 32.1339 0
9046 2 4.38189 30.6732 2.92126
9085 2 5.84252 32.1339 2.92126
364 4 7.30315 32.1339 1.46063
365 4 8.76378 32.1339 0
849 4 7.30315 30.6732 2.92126
882 4 8.76378 32.1339 2.92126
8533 2 7.30315 30.6732 0
8566 2 7.30315 32.1339 1.46063
9050 2 7.30315 30.6732 2.92126
330 4 13.1457 30.6732 0
331 4 11.685 30.6732 1.46063
366 4 10.2244 32.1339 1.46063
368 4 13.1457 32.1339 1.46063
851 4 10.2244 30.6732 2.92126
853 4 13.1457 30.6732 2.92126
8534 2 10.2244 30.6732 0
8535 2 13.1457 30.6732 0
8569 2 10.2244 32.1339 1.46063
8570 2 13.1457 32.1339 1.46063
9056 2 13.1457 30.6732 2.92126
333 4 16.0669 30.6732 0
370 4 16.0669 32.1339 1.46063
857 4 16.0669 30.6732 2.92126
8539 2 14.6063 30.6732 1.46063
9057 2 16.0669 30.6732 2.92126
335 4 18.9882 30.6732 0
336 4 17.5276 30.6732 1.46063
372 4 18.9882 32.1339 1.46063