ITEM: TIMESTEP
0
ITEM: NUMBER OF ATOMS
16384
ITEM: BOX BOUNDS pp pp pp
0.0000000000000000e+00 6.1421171412375898e+01
0.0000000000000000e+00 6.1421171412375898e+01
0.0000000000000000e+00 6.1421171412375898e+01
ITEM: ATOMS id type x y z
1 4 0 0 0
2 4 1.93465 1.93465 0
8193 2 0 0 0
8194 2 1.93465 1.93465 0
8195 2 1.93465 0 1.93465
8196 2 0 1.93465 1.93465
3 4 5.80394 1.93465 0
4 4 5.80394 0 1.93465
5 4 3.86929 1.93465 1.93465
8197 2 5.80394 0 1.93465
6 4 9.67323 0 1.93465
7 4 7.73858 1.93465 1.93465
8198 2 7.73858 0 0
8199 2 9.67323 1.93465 0
8 4 13.5425 1.93465 0
9 4 13.5425 0 1.93465
10 4 11.6079 1.93465 1.93465
8200 2 13.5425 1.93465 0
11 4 15.4772 0 0
12 4 15.4772 1.93465 1.93465
8201 2 17.4118 0 1.93465
8203 2 19.3465 1.93465 1.93465
13 4 23.2157 0 0
8202 2 21.2811 0 1.93465
8204 2 23.2157 0 0
8206 2 23.2157 1.93465 1.93465
14 4 27.085 0 0
16 4 27.085 1.93465 1.93465
8205 2 25.1504 1.93465 0
8207 2 27.085 0 0
15 4 29.0197 0 1.93465
8208 2 29.0197 0 1.93465
17 4 30.9543 0 0
18 4 32.889 1.93465 0
19 4 32.889 0 1.93465
8209 2 32.889 1.93465 0
20 4 36.7583 1.93465 0
21 4 36.7583 0 1.93465
8210 2 36.7583 1.93465 0
8211 2 36.7583 0 1.93465
8212 2 34.8236 1.93465 1.93465
22 4 40.6276 1.93465 0
8213 2 38.6929 0 0
8214 2 40.6276 0 1.93465
8215 2 38.6929 1.93465 1.93465
23 4 42.5622 0 0
8217 2 42.5622 1.93465 1.93465
24 4 44.4969 1.93465 0
8216 2 44.4969 1.93465 0
8218 2 46.4315 0 0
8220 2 46.4315 1.93465 1.93465
25 4 48.3661 1.93465 0
8219 2 48.3661 1.93465 0
8221 2 50.3008 0 0
8223 2 50.3008 1.93465 1.93465
26 4 52.2354 1.93465 0
27 4 54.1701 0 0
29 4 54.1701 1.93465 1.93465
8222 2 52.2354 0 1.93465
28 4 56.1047 0 1.93465
8224 2 56.1047 0 1.93465
30 4 58.0394 0 0
31 4 59.974 1.93465 0
8225 2 58.0394 0 0
32 4 1.93465 3.86929 1.93465
33 4 0 5.80394 1.93465
8226 2 0 3.86929 0
8227 2 1.93465 5.80394 0
34 4 5.80394 3.86929 1.93465
35 4 3.86929 5.80394 1.93465
8228 2 5.80394 3.86929 1.93465
36 4 7.73858 3.86929 0
37 4 9.67323 5.80394 0
38 4 9.67323 3.86929 1.93465
39 4 7.73858 5.80394 1.93465
8229 2 7.73858 3.86929 0
8230 2 9.67323 5.80394 0
40 4 13.5425 5.80394 0
41 4 13.5425 3.86929 1.93465
42 4 11.6079 5.80394 1.93465
43 4 15.4772 3.86929 0
45 4 15.4772 5.80394 1.93465
8231 2 15.4772 3.86929 0
44 4 17.4118 5.80394 0
47 4 19.3465 5.80394 1.93465
8232 2 17.4118 3.86929 1.93465
46 4 21.2811 3.86929 1.93465
48 4 23.2157 3.86929 0
51 4 23.2157 5.80394 1.93465
8233 2 21.2811 5.80394 0
49 4 25.1504 5.80394 0
50 4 25.1504 3.86929 1.93465
52 4 27.085 5.80394 1.93465
8234 2 25.1504 5.80394 0
8235 2 25.1504 3.86929 1.93465
8236 2 27.085 3.86929 0
8237 2 27.085 5.80394 1.93465
53 4 30.9543 3.86929 0
54 4 32.889 5.80394 0
55 4 32.889 3.86929 1.93465
56 4 30.9543 5.80394 1.93465
8238 2 30.9543 3.86929 0
8239 2 32.889 5.80394 0
57 4 34.8236 3.86929 0
58 4 36.7583 5.80394 0
59 4 34.8236 5.80394 1.93465
8240 2 36.7583 3.86929 1.93465
8241 2 34.8236 5.80394 1.93465
60 4 40.6276 3.86929 1.93465
61 4 38.6929 5.80394 1.93465
8242 2 40.6276 3.86929 1.93465
8243 2 42.5622 3.86929 0
62 4 44.4969 3.86929 1.93465
63 4 46.4315 3.86929 0
8244 2 44.4969 5.80394 0
8245 2 46.4315 3.86929 0
64 4 48.3661 5.80394 0
65 4 48.3661 3.86929 1.93465
8246 2 48.3661 3.86929 1.93465
8247 2 50.3008 3.86929 0
8250 2 50.3008 5.80394 1.93465
66 4 52.2354 5.80394 0
67 4 52.2354 3.86929 1.93465
68 4 54.1701 3.86929 0
8248 2 52.2354 5.80394 0
8249 2 52.2354 3.86929 1.93465
8251 2 54.1701 3.86929 0
69 4 56.1047 5.80394 0
70 4 58.0394 3.86929 0
71 4 59.974 5.80394 0
72 4 58.0394 5.80394 1.93465
8252 2 58.0394 3.86929 0
8253 2 59.974 5.80394 0
8254 2 59.974 3.86929 1.93465
8255 2 58.0394 5.80394 1.93465
73 4 1.93465 7.73858 1.93465
8256 2 1.93465 7.73858 1.93465
8257 2 0 9.67323 1.93465
74 4 5.80394 7.73858 1.93465
75 4 3.86929 9.67323 1.93465
8258 2 3.86929 7.73858 0
8259 2 5.80394 9.67323 0
8260 2 7.73858 7.73858 0
8261 2 9.67323 7.73858 1.93465
8262 2 7.73858 9.67323 1.93465
76 4 11.6079 7.73858 0
77 4 13.5425 7.73858 1.93465
8263 2 11.6079 7.73858 0
8264 2 11.6079 9.67323 1.93465
8265 2 15.4772 7.73858 0
78 4 17.4118 7.73858 1.93465
8266 2 17.4118 9.67323 0
8267 2 17.4118 7.73858 1.93465
8268 2 19.3465 7.73858 0
79 4 21.2811 9.67323 0
80 4 21.2811 7.73858 1.93465
81 4 23.2157 7.73858 0
8269 2 21.2811 9.67323 0
8270 2 21.2811 7.73858 1.93465
8272 2 23.2157 9.67323 1.93465
82 4 25.1504 7.73858 1.93465
83 4 27.085 9.67323 1.93465
8271 2 25.1504 9.67323 0
8273 2 27.085 9.67323 1.93465
84 4 32.889 7.73858 1.93465
8274 2 30.9543 7.73858 0
8275 2 32.889 9.67323 0
8276 2 30.9543 9.67323 1.93465
85 4 36.7583 9.67323 0
86 4 34.8236 9.67323 1.93465
8277 2 34.8236 7.73858 0
8278 2 36.7583 9.67323 0
8279 2 36.7583 7.73858 1.93465
8280 2 34.8236 9.67323 1.93465
87 4 40.6276 7.73858 1.93465
88 4 38.6929 9.67323 1.93465
8281 2 38.6929 7.73858 0
8282 2 40.6276 9.67323 0
8283 2 40.6276 7.73858 1.93465
90 4 42.5622 9.67323 1.93465
89 4 44.4969 7.73858 1.93465
92 4 46.4315 9.67323 1.93465
8284 2 44.4969 9.67323 0
8285 2 46.4315 7.73858 0
91 4 48.3661 9.67323 0
93 4 50.3008 9.67323 1.93465
8288 2 50.3008 9.67323 1.93465
94 4 54.1701 7.73858 0
8286 2 52.2354 9.67323 0
8287 2 52.2354 7.73858 1.93465
8289 2 54.1701 7.73858 0
8291 2 54.1701 9.67323 1.93465
8290 2 56.1047 9.67323 0
95 4 58.0394 7.73858 0
96 4 59.974 9.67323 0
97 4 58.0394 9.67323 1.93465
8292 2 58.0394 7.73858 0
8293 2 59.974 9.67323 0
8294 2 58.0394 9.67323 1.93465
98 4 1.93465 13.5425 0
99 4 1.93465 11.6079 1.93465
100 4 0 13.5425 1.93465
8295 2 0 11.6079 0
101 4 3.86929 11.6079 0
102 4 5.80394 13.5425 0
103 4 5.80394 11.6079 1.93465
8296 2 3.86929 11.6079 0
8297 2 5.80394 13.5425 0
8298 2 5.80394 11.6079 1.93465
104 4 7.73858 11.6079 0
105 4 9.67323 11.6079 1.93465
8299 2 7.73858 11.6079 0
8300 2 9.67323 13.5425 0
106 4 13.5425 13.5425 0
107 4 13.5425 11.6079 1.93465
8301 2 11.6079 11.6079 0
8302 2 13.5425 13.5425 0
8303 2 11.6079 13.5425 1.93465
108 4 19.3465 11.6079 0
8304 2 17.4118 13.5425 0
8305 2 17.4118 11.6079 1.93465
109 4 21.2811 13.5425 0
110 4 21.2811 11.6079 1.93465
111 4 23.2157 11.6079 0
113 4 23.2157 13.5425 1.93465
8306 2 21.2811 13.5425 0
8308 2 23.2157 13.5425 1.93465
112 4 25.1504 11.6079 1.93465
114 4 27.085 11.6079 0
117 4 27.085 13.5425 1.93465
8307 2 25.1504 13.5425 0
8309 2 27.085 11.6079 0
8311 2 27.085 13.5425 1.93465
115 4 29.0197 13.5425 0
116 4 29.0197 11.6079 1.93465
8310 2 29.0197 11.6079 1.93465
118 4 30.9543 13.5425 1.93465
8312 2 30.9543 11.6079 0
8313 2 32.889 13.5425 0
119 4 34.8236 11.6079 0
120 4 36.7583 13.5425 0
121 4 36.7583 11.6079 1.93465
122 4 34.8236 13.5425 1.93465
8314 2 34.8236 11.6079 0
8315 2 36.7583 11.6079 1.93465
123 4 38.6929 11.6079 0
124 4 40.6276 11.6079 1.93465
8316 2 38.6929 11.6079 0
8317 2 42.5622 11.6079 0
8318 2 42.5622 13.5425 1.93465
127 4 46.4315 13.5425 1.93465
125 4 48.3661 13.5425 0
126 4 48.3661 11.6079 1.93465
128 4 50.3008 11.6079 0
8320 2 50.3008 13.5425 1.93465
129 4 52.2354 11.6079 1.93465
130 4 54.1701 11.6079 0
8319 2 52.2354 11.6079 1.93465
8321 2 54.1701 11.6079 0
8322 2 54.1701 13.5425 1.93465
131 4 59.974 13.5425 0
8323 2 58.0394 11.6079 0
8324 2 59.974 13.5425 0
8325 2 58.0394 13.5425 1.93465
8327 2 1.93465 15.4772 1.93465
8329 2 3.86929 15.4772 0
8331 2 5.80394 15.4772 1.93465
134 4 9.67323 15.4772 1.93465
8333 2 7.73858 15.4772 0
137 4 19.3465 15.4772 0
8338 2 17.4118 15.4772 1.93465
8340 2 19.3465 15.4772 0
139 4 23.2157 15.4772 0
8341 2 21.2811 15.4772 1.93465
8344 2 25.1504 15.4772 1.93465
143 4 32.889 15.4772 1.93465
146 4 36.7583 15.4772 1.93465
8349 2 36.7583 15.4772 1.93465
148 4 38.6929 15.4772 0
8353 2 42.5622 15.4772 0
152 4 46.4315 15.4772 0
8354 2 44.4969 15.4772 1.93465
8356 2 46.4315 15.4772 0
155 4 50.3008 15.4772 0
8357 2 48.3661 15.4772 1.93465
156 4 52.2354 15.4772 1.93465
158 4 54.1701 15.4772 0
8359 2 52.2354 15.4772 1.93465
8362 2 58.0394 15.4772 0
8364 2 59.974 15.4772 1.93465
132 4 1.93465 17.4118 0
160 4 0 19.3465 0
162 4 1.93465 19.3465 1.93465
8326 2 1.93465 17.4118 0
8328 2 0 17.4118 1.93465
8366 2 0 19.3465 0
8368 2 1.93465 19.3465 1.93465
133 4 5.80394 17.4118 0
164 4 3.86929 19.3465 0
165 4 5.80394 19.3465 1.93465
8330 2 5.80394 17.4118 0
8332 2 3.86929 17.4118 1.93465
8370 2 3.86929 19.3465 0
8372 2 5.80394 19.3465 1.93465
167 4 9.67323 19.3465 1.93465
8334 2 9.67323 17.4118 0
8335 2 7.73858 17.4118 1.93465
8374 2 7.73858 19.3465 0
135 4 11.6079 17.4118 1.93465
169 4 13.5425 19.3465 1.93465
8336 2 13.5425 17.4118 0
8377 2 13.5425 19.3465 1.93465
136 4 15.4772 17.4118 1.93465
171 4 15.4772 19.3465 0
8339 2 15.4772 17.4118 1.93465
8378 2 15.4772 19.3465 0
173 4 17.4118 19.3465 1.93465
175 4 19.3465 19.3465 0
8337 2 17.4118 17.4118 0
8342 2 19.3465 17.4118 1.93465
8380 2 17.4118 19.3465 1.93465
138 4 21.2811 17.4118 0
177 4 23.2157 19.3465 0
8345 2 23.2157 17.4118 1.93465
8383 2 21.2811 19.3465 1.93465
140 4 25.1504 17.4118 0
142 4 27.085 17.4118 1.93465
8343 2 25.1504 17.4118 0
8346 2 27.085 17.4118 1.93465
8385 2 25.1504 19.3465 1.93465
8386 2 27.085 19.3465 0
141 4 29.0197 17.4118 0
144 4 30.9543 17.4118 1.93465
8347 2 32.889 17.4118 0
8348 2 30.9543 17.4118 1.93465
145 4 36.7583 17.4118 0
147 4 34.8236 17.4118 1.93465
180 4 34.8236 19.3465 0
8350 2 34.8236 17.4118 1.93465
8390 2 36.7583 19.3465 1.93465
149 4 40.6276 17.4118 0
150 4 38.6929 17.4118 1.93465
183 4 38.6929 19.3465 0
8351 2 40.6276 17.4118 0
8352 2 38.6929 17.4118 1.93465
8391 2 38.6929 19.3465 0
8393 2 40.6276 19.3465 1.93465
184 4 42.5622 19.3465 0
8355 2 42.5622 17.4118 1.93465
151 4 44.4969 17.4118 0
154 4 46.4315 17.4118 1.93465
8358 2 46.4315 17.4118 1.93465
8395 2 46.4315 19.3465 0
153 4 48.3661 17.4118 0
157 4 50.3008 17.4118 1.93465
186 4 48.3661 19.3465 1.93465
8360 2 50.3008 17.4118 1.93465
8396 2 48.3661 19.3465 1.93465
8398 2 50.3008 19.3465 0
188 4 52.2354 19.3465 1.93465
8399 2 52.2354 19.3465 1.93465
8401 2 54.1701 19.3465 0
8361 2 56.1047 17.4118 0
159 4 58.0394 17.4118 1.93465
192 4 59.974 19.3465 1.93465
8363 2 59.974 17.4118 0
8365 2 58.0394 17.4118 1.93465
161 4 1.93465 21.2811 0
163 4 0 21.2811 1.93465
194 4 1.93465 23.2157 1.93465
8367 2 1.93465 21.2811 0
8369 2 0 21.2811 1.93465
196 4 3.86929 23.2157 0
8371 2 5.80394 21.2811 0
8373 2 3.86929 21.2811 1.93465
8404 2 3.86929 23.2157 0
166 4 9.67323 21.2811 0
168 4 7.73858 21.2811 1.93465
198 4 7.73858 23.2157 0
200 4 9.67323 23.2157 1.93465
8375 2 9.67323 21.2811 0
8406 2 7.73858 23.2157 0
170 4 11.6079 21.2811 1.93465
202 4 11.6079 23.2157 0
204 4 13.5425 23.2157 1.93465
8376 2 13.5425 21.2811 0
8408 2 11.6079 23.2157 0
174 4 15.4772 21.2811 1.93465
8381 2 15.4772 21.2811 1.93465
8410 2 15.4772 23.2157 0
172 4 17.4118 21.2811 0
176 4 19.3465 21.2811 1.93465
206 4 17.4118 23.2157 1.93465
8379 2 17.4118 21.2811 0
8413 2 19.3465 23.2157 0
209 4 23.2157 23.2157 0
8382 2 21.2811 21.2811 0
8414 2 21.2811 23.2157 1.93465
178 4 25.1504 21.2811 0
8384 2 25.1504 21.2811 0
8416 2 25.1504 23.2157 1.93465
8417 2 27.085 23.2157 0
179 4 29.0197 21.2811 0
8387 2 29.0197 21.2811 0
8418 2 29.0197 23.2157 1.93465
212 4 30.9543 23.2157 0
214 4 32.889 23.2157 1.93465
8388 2 30.9543 21.2811 1.93465
8419 2 30.9543 23.2157 0
8420 2 32.889 23.2157 1.93465
181 4 36.7583 21.2811 0
182 4 34.8236 21.2811 1.93465
217 4 36.7583 23.2157 1.93465
8389 2 36.7583 21.2811 0
8421 2 34.8236 23.2157 0
8423 2 36.7583 23.2157 1.93465
218 4 38.6929 23.2157 0
219 4 40.6276 23.2157 1.93465
8392 2 40.6276 21.2811 0
8424 2 38.6929 23.2157 0
185 4 42.5622 21.2811 1.93465
220 4 42.5622 23.2157 0
8394 2 42.5622 21.2811 1.93465
8397 2 46.4315 21.2811 1.93465
189 4 50.3008 21.2811 1.93465
223 4 48.3661 23.2157 1.93465
224 4 50.3008 23.2157 0
8400 2 50.3008 21.2811 1.93465
187 4 52.2354 21.2811 0
226 4 54.1701 23.2157 0
8429 2 52.2354 23.2157 1.93465
190 4 56.1047 21.2811 0
8402 2 56.1047 21.2811 0
191 4 59.974 21.2811 0
8403 2 59.974 21.2811 0
193 4 1.93465 25.1504 0
195 4 0 25.1504 1.93465
230 4 0 27.085 0
232 4 1.93465 27.085 1.93465
8431 2 0 27.085 0
8433 2 1.93465 27.085 1.93465
197 4 5.80394 25.1504 0
235 4 5.80394 27.085 1.93465
8405 2 3.86929 25.1504 1.93465
8436 2 5.80394 27.085 1.93465
199 4 9.67323 25.1504 0
201 4 7.73858 25.1504 1.93465
237 4 9.67323 27.085 1.93465
8407 2 9.67323 25.1504 0
8437 2 7.73858 27.085 0
8439 2 9.67323 27.085 1.93465
203 4 13.5425 25.1504 0
239 4 11.6079 27.085 0
240 4 13.5425 27.085 1.93465
8409 2 11.6079 25.1504 1.93465
8412 2 15.4772 25.1504 1.93465
205 4 17.4118 25.1504 0
208 4 19.3465 25.1504 1.93465
243 4 17.4118 27.085 1.93465
8411 2 17.4118 25.1504 0
8441 2 17.4118 27.085 1.93465
207 4 21.2811 25.1504 0
245 4 23.2157 27.085 0
8443 2 21.2811 27.085 1.93465
210 4 25.1504 25.1504 0
246 4 25.1504 27.085 1.93465
8415 2 25.1504 25.1504 0
8445 2 25.1504 27.085 1.93465
8446 2 27.085 27.085 0
211 4 29.0197 25.1504 0
248 4 29.0197 27.085 1.93465
213 4 32.889 25.1504 0
215 4 30.9543 25.1504 1.93465
8447 2 30.9543 27.085 0
216 4 36.7583 25.1504 0
251 4 34.8236 27.085 0
8422 2 36.7583 25.1504 0
8449 2 34.8236 27.085 0
8450 2 36.7583 27.085 1.93465
252 4 38.6929 27.085 0
253 4 40.6276 27.085 1.93465
8425 2 40.6276 25.1504 0
8451 2 38.6929 27.085 0
8453 2 40.6276 27.085 1.93465
8427 2 42.5622 25.1504 1.93465
8454 2 42.5622 27.085 0
221 4 44.4969 25.1504 0
8426 2 44.4969 25.1504 0
8428 2 46.4315 25.1504 1.93465
8456 2 46.4315 27.085 0
222 4 48.3661 25.1504 0
225 4 50.3008 25.1504 1.93465
256 4 48.3661 27.085 1.93465
228 4 54.1701 25.1504 1.93465
227 4 56.1047 25.1504 0
8430 2 56.1047 25.1504 0
229 4 59.974 25.1504 0
259 4 59.974 27.085 1.93465
231 4 1.93465 29.0197 0
233 4 0 29.0197 1.93465
8432 2 1.93465 29.0197 0
8434 2 0 29.0197 1.93465
234 4 5.80394 29.0197 0
236 4 3.86929 29.0197 1.93465
8435 2 5.80394 29.0197 0
238 4 7.73858 29.0197 1.93465
8438 2 9.67323 29.0197 0
8440 2 7.73858 29.0197 1.93465
241 4 11.6079 29.0197 1.93465
244 4 15.4772 29.0197 1.93465
242 4 17.4118 29.0197 0
8442 2 21.2811 29.0197 0
249 4 27.085 29.0197 1.93465
8444 2 25.1504 29.0197 0
247 4 29.0197 29.0197 0
250 4 30.9543 29.0197 1.93465
8448 2 32.889 29.0197 0
8452 2 40.6276 29.0197 0
8455 2 42.5622 29.0197 1.93465
254 4 44.4969 29.0197 0
8458 2 46.4315 29.0197 1.93465
255 4 48.3661 29.0197 0
257 4 50.3008 29.0197 1.93465
8457 2 48.3661 29.0197 0
8459 2 52.2354 29.0197 0
8461 2 54.1701 29.0197 1.93465
258 4 56.1047 29.0197 0
8460 2 56.1047 29.0197 0
8462 2 59.974 29.0197 0
260 4 0 30.9543 0
261 4 1.93465 32.889 0
262 4 0 32.889 1.93465
8463 2 1.93465 32.889 0
8464 2 1.93465 30.9543 1.93465
8465 2 0 32.889 1.93465
263 4 3.86929 30.9543 0
264 4 5.80394 32.889 0
265 4 5.80394 30.9543 1.93465
266 4 3.86929 32.889 1.93465
8466 2 3.86929 30.9543 0
267 4 7.73858 30.9543 0
268 4 9.67323 30.9543 1.93465
8467 2 7.73858 30.9543 0
8468 2 9.67323 32.889 0
8469 2 9.67323 30.9543 1.93465
269 4 11.6079 30.9543 0
270 4 13.5425 32.889 0
271 4 11.6079 32.889 1.93465
8470 2 11.6079 30.9543 0
272 4 15.4772 32.889 1.93465
8472 2 15.4772 32.889 1.93465
275 4 19.3465 32.889 1.93465
8471 2 17.4118 30.9543 1.93465
273 4 21.2811 32.889 0
274 4 21.2811 30.9543 1.93465
277 4 23.2157 32.889 1.93465
8473 2 21.2811 32.889 0
8474 2 23.2157 30.9543 0
276 4 25.1504 30.9543 1.93465
278 4 27.085 30.9543 0
279 4 27.085 32.889 1.93465
280 4 30.9543 30.9543 0
281 4 32.889 30.9543 1.93465
8475 2 30.9543 30.9543 0
8476 2 32.889 32.889 0
8477 2 32.889 30.9543 1.93465
282 4 34.8236 30.9543 0
283 4 36.7583 32.889 0
284 4 36.7583 30.9543 1.93465
8478 2 34.8236 30.9543 0
8479 2 36.7583 32.889 0
285 4 38.6929 32.889 1.93465
8480 2 38.6929 30.9543 0
8481 2 40.6276 32.889 0
8482 2 40.6276 30.9543 1.93465
8483 2 38.6929 32.889 1.93465
286 4 42.5622 30.9543 0
8485 2 42.5622 32.889 1.93465
287 4 44.4969 32.889 0
290 4 46.4315 32.889 1.93465
8484 2 44.4969 30.9543 1.93465
288 4 48.3661 32.889 0
289 4 48.3661 30.9543 1.93465
8486 2 48.3661 32.889 0
8487 2 48.3661 30.9543 1.93465
8490 2 50.3008 32.889 1.93465
8488 2 52.2354 32.889 0
8489 2 52.2354 30.9543 1.93465
8491 2 54.1701 30.9543 0
291 4 56.1047 30.9543 1.93465
8492 2 56.1047 32.889 0
292 4 59.974 30.9543 1.93465
293 4 58.0394 32.889 1.93465
8493 2 59.974 30.9543 1.93465
8494 2 58.0394 32.889 1.93465
294 4 1.93465 36.7583 0
8495 2 0 34.8236 0
8496 2 1.93465 36.7583 0
295 4 3.86929 34.8236 0
296 4 5.80394 36.7583 0
8497 2 5.80394 36.7583 0
8498 2 5.80394 34.8236 1.93465
297 4 9.67323 34.8236 1.93465
8499 2 7.73858 34.8236 0
8500 2 7.73858 36.7583 1.93465
298 4 13.5425 36.7583 0
299 4 13.5425 34.8236 1.93465
300 4 11.6079 36.7583 1.93465
8501 2 13.5425 36.7583 0
8502 2 13.5425 34.8236 1.93465
8503 2 11.6079 36.7583 1.93465
301 4 15.4772 34.8236 0
8504 2 15.4772 34.8236 0
8507 2 15.4772 36.7583 1.93465
302 4 17.4118 34.8236 1.93465
304 4 19.3465 36.7583 1.93465
8505 2 17.4118 36.7583 0
8506 2 17.4118 34.8236 1.93465
8508 2 19.3465 34.8236 0
303 4 21.2811 36.7583 0
8509 2 21.2811 36.7583 0
8510 2 23.2157 34.8236 0
8512 2 23.2157 36.7583 1.93465
305 4 25.1504 36.7583 0
306 4 25.1504 34.8236 1.93465
8511 2 25.1504 36.7583 0
8513 2 27.085 34.8236 0
307 4 29.0197 36.7583 0
308 4 30.9543 34.8236 0
309 4 32.889 36.7583 0
8514 2 32.889 36.7583 0
8515 2 32.889 34.8236 1.93465
8516 2 30.9543 36.7583 1.93465
8517 2 36.7583 36.7583 0
8518 2 34.8236 36.7583 1.93465
310 4 40.6276 36.7583 0
311 4 40.6276 34.8236 1.93465
312 4 38.6929 36.7583 1.93465
8519 2 38.6929 34.8236 0
8520 2 40.6276 34.8236 1.93465
8521 2 38.6929 36.7583 1.93465
313 4 44.4969 36.7583 0
314 4 46.4315 34.8236 0
8522 2 44.4969 36.7583 0
8523 2 46.4315 34.8236 0
315 4 48.3661 36.7583 0
316 4 50.3008 34.8236 0
319 4 50.3008 36.7583 1.93465
317 4 52.2354 36.7583 0
318 4 52.2354 34.8236 1.93465
320 4 54.1701 34.8236 0
8524 2 52.2354 36.7583 0
8525 2 54.1701 34.8236 0
8526 2 56.1047 34.8236 1.93465
321 4 59.974 36.7583 0
8527 2 59.974 36.7583 0
322 4 1.93465 40.6276 0
323 4 1.93465 38.6929 1.93465
8528 2 0 38.6929 0
8529 2 0 40.6276 1.93465
324 4 3.86929 38.6929 0
325 4 5.80394 38.6929 1.93465
8530 2 5.80394 40.6276 0
8531 2 3.86929 40.6276 1.93465
326 4 9.67323 38.6929 1.93465
327 4 7.73858 40.6276 1.93465
8532 2 7.73858 38.6929 0
8533 2 9.67323 40.6276 0
328 4 13.5425 38.6929 1.93465
8534 2 13.5425 40.6276 0
329 4 15.4772 38.6929 0
331 4 15.4772 40.6276 1.93465
330 4 17.4118 40.6276 0
332 4 19.3465 38.6929 0
8535 2 17.4118 40.6276 0
8536 2 17.4118 38.6929 1.93465
8537 2 19.3465 38.6929 0
8539 2 19.3465 40.6276 1.93465
333 4 21.2811 40.6276 0
334 4 23.2157 38.6929 0
336 4 23.2157 40.6276 1.93465
8538 2 21.2811 38.6929 1.93465
8540 2 23.2157 38.6929 0
8543 2 23.2157 40.6276 1.93465
335 4 25.1504 40.6276 0
8541 2 25.1504 40.6276 0
8542 2 25.1504 38.6929 1.93465
337 4 29.0197 40.6276 0
338 4 29.0197 38.6929 1.93465
8544 2 29.0197 40.6276 0
8545 2 29.0197 38.6929 1.93465
339 4 30.9543 38.6929 0
340 4 32.889 40.6276 0
341 4 32.889 38.6929 1.93465
342 4 30.9543 40.6276 1.93465
8546 2 30.9543 38.6929 0
8547 2 32.889 40.6276 0
8548 2 32.889 38.6929 1.93465
8549 2 30.9543 40.6276 1.93465
343 4 34.8236 38.6929 0
344 4 36.7583 40.6276 0
345 4 36.7583 38.6929 1.93465
8550 2 36.7583 38.6929 1.93465
8551 2 34.8236 40.6276 1.93465
346 4 38.6929 38.6929 0
8552 2 40.6276 38.6929 1.93465
8553 2 38.6929 40.6276 1.93465
347 4 42.5622 38.6929 0
348 4 46.4315 38.6929 0
350 4 46.4315 40.6276 1.93465
8555 2 46.4315 40.6276 1.93465
349 4 48.3661 38.6929 1.93465
8554 2 48.3661 40.6276 0
8556 2 50.3008 38.6929 0
351 4 52.2354 40.6276 0
352 4 54.1701 38.6929 0
8557 2 52.2354 38.6929 1.93465
353 4 56.1047 40.6276 0
354 4 56.1047 38.6929 1.93465
8558 2 56.1047 40.6276 0
355 4 59.974 40.6276 0
356 4 58.0394 40.6276 1.93465
8559 2 59.974 40.6276 0
8560 2 58.0394 40.6276 1.93465
357 4 0 42.5622 0
359 4 1.93465 42.5622 1.93465
8561 2 0 42.5622 0
8562 2 1.93465 42.5622 1.93465
361 4 3.86929 42.5622 0
8563 2 3.86929 42.5622 0
8564 2 5.80394 42.5622 1.93465
363 4 7.73858 42.5622 0
364 4 9.67323 42.5622 1.93465
8565 2 7.73858 42.5622 0
8566 2 9.67323 42.5622 1.93465
365 4 11.6079 42.5622 0
366 4 13.5425 42.5622 1.93465
8569 2 13.5425 42.5622 1.93465
368 4 17.4118 42.5622 1.93465
8570 2 17.4118 42.5622 1.93465
370 4 21.2811 42.5622 1.93465
372 4 25.1504 42.5622 1.93465
374 4 27.085 42.5622 0
8573 2 25.1504 42.5622 1.93465
8575 2 27.085 42.5622 0
376 4 29.0197 42.5622 1.93465
8576 2 29.0197 42.5622 1.93465
378 4 30.9543 42.5622 0
379 4 32.889 42.5622 1.93465
380 4 34.8236 42.5622 0
381 4 36.7583 42.5622 1.93465
8578 2 34.8236 42.5622 0
383 4 40.6276 42.5622 1.93465
385 4 44.4969 42.5622 1.93465
8581 2 44.4969 42.5622 1.93465
387 4 50.3008 42.5622 0
390 4 54.1701 42.5622 0
8582 2 52.2354 42.5622 1.93465
391 4 56.1047 42.5622 1.93465
8584 2 56.1047 42.5622 1.93465
8586 2 59.974 42.5622 1.93465
358 4 1.93465 44.4969 0
360 4 0 44.4969 1.93465
362 4 3.86929 44.4969 1.93465
395 4 3.86929 46.4315 0
8591 2 5.80394 46.4315 1.93465
397 4 7.73858 46.4315 0
399 4 9.67323 46.4315 1.93465
8567 2 7.73858 44.4969 1.93465
8593 2 7.73858 46.4315 0
8595 2 9.67323 46.4315 1.93465
367 4 11.6079 44.4969 1.93465
401 4 13.5425 46.4315 1.93465
8568 2 13.5425 44.4969 0
402 4 15.4772 46.4315 0
371 4 19.3465 44.4969 1.93465
8572 2 19.3465 44.4969 1.93465
8597 2 17.4118 46.4315 1.93465
8598 2 19.3465 46.4315 0
369 4 21.2811 44.4969 0
373 4 23.2157 44.4969 1.93465
406 4 23.2157 46.4315 0
8571 2 21.2811 44.4969 0
8574 2 23.2157 44.4969 1.93465
8599 2 21.2811 46.4315 1.93465
8600 2 23.2157 46.4315 0
377 4 27.085 44.4969 1.93465
407 4 27.085 46.4315 0
8577 2 27.085 44.4969 1.93465
8601 2 25.1504 46.4315 1.93465
8602 2 27.085 46.4315 0
375 4 29.0197 44.4969 0
8605 2 32.889 46.4315 1.93465
408 4 36.7583 46.4315 1.93465
8579 2 34.8236 44.4969 1.93465
8607 2 34.8236 46.4315 0
8608 2 36.7583 46.4315 1.93465
382 4 40.6276 44.4969 0
410 4 38.6929 46.4315 0
412 4 40.6276 46.4315 1.93465
8580 2 40.6276 44.4969 0
8610 2 38.6929 46.4315 0
8612 2 40.6276 46.4315 1.93465
413 4 42.5622 46.4315 0
8614 2 42.5622 46.4315 0
384 4 44.4969 44.4969 0
386 4 46.4315 44.4969 1.93465
415 4 44.4969 46.4315 1.93465
8615 2 44.4969 46.4315 1.93465
8616 2 46.4315 46.4315 0
389 4 50.3008 44.4969 1.93465
418 4 50.3008 46.4315 0
8617 2 48.3661 46.4315 1.93465
8618 2 50.3008 46.4315 0
388 4 52.2354 44.4969 0
419 4 52.2354 46.4315 1.93465
420 4 54.1701 46.4315 0
8585 2 54.1701 44.4969 1.93465
8583 2 56.1047 44.4969 0
392 4 59.974 44.4969 0
393 4 58.0394 44.4969 1.93465
422 4 58.0394 46.4315 0
8587 2 58.0394 44.4969 1.93465
8622 2 58.0394 46.4315 0
394 4 0 48.3661 1.93465
8588 2 1.93465 48.3661 0
8589 2 0 48.3661 1.93465
8623 2 0 50.3008 0
8624 2 1.93465 50.3008 1.93465
396 4 3.86929 48.3661 1.93465
426 4 3.86929 50.3008 0
8590 2 5.80394 48.3661 0
8592 2 3.86929 48.3661 1.93465
8625 2 5.80394 50.3008 1.93465
398 4 9.67323 48.3661 0
400 4 7.73858 48.3661 1.93465
8594 2 9.67323 48.3661 0
8627 2 7.73858 50.3008 0
8628 2 9.67323 50.3008 1.93465
429 4 11.6079 50.3008 0
8596 2 13.5425 48.3661 0
8631 2 13.5425 50.3008 1.93465
404 4 15.4772 48.3661 1.93465
432 4 15.4772 50.3008 0
403 4 17.4118 48.3661 0
405 4 19.3465 48.3661 1.93465
435 4 19.3465 50.3008 0
436 4 23.2157 50.3008 0
8635 2 21.2811 50.3008 1.93465
8636 2 23.2157 50.3008 0
438 4 25.1504 50.3008 1.93465
8603 2 27.085 48.3661 1.93465
440 4 29.0197 50.3008 1.93465
8638 2 29.0197 50.3008 1.93465
441 4 30.9543 50.3008 0
8604 2 32.889 48.3661 0
8606 2 30.9543 48.3661 1.93465
409 4 34.8236 48.3661 1.93465
443 4 36.7583 50.3008 1.93465
8609 2 34.8236 48.3661 1.93465
8641 2 36.7583 50.3008 1.93465
411 4 40.6276 48.3661 0
445 4 38.6929 50.3008 0
8611 2 40.6276 48.3661 0
8613 2 38.6929 48.3661 1.93465
448 4 42.5622 50.3008 0
8644 2 42.5622 50.3008 0
414 4 44.4969 48.3661 0
417 4 46.4315 48.3661 1.93465
449 4 44.4969 50.3008 1.93465
450 4 46.4315 50.3008 0
416 4 48.3661 48.3661 0
452 4 48.3661 50.3008 1.93465
454 4 50.3008 50.3008 0
8620 2 50.3008 48.3661 1.93465
8647 2 48.3661 50.3008 1.93465
8649 2 50.3008 50.3008 0
456 4 52.2354 50.3008 1.93465
8619 2 52.2354 48.3661 0
8621 2 54.1701 48.3661 1.93465
8651 2 52.2354 50.3008 1.93465
8652 2 54.1701 50.3008 0
421 4 56.1047 48.3661 0
457 4 56.1047 50.3008 1.93465
423 4 59.974 48.3661 0
424 4 58.0394 48.3661 1.93465
459 4 58.0394 50.3008 0
460 4 59.974 50.3008 1.93465
8655 2 58.0394 50.3008 0
8657 2 59.974 50.3008 1.93465
425 4 0 52.2354 1.93465
8658 2 0 54.1701 0
8660 2 1.93465 54.1701 1.93465
427 4 3.86929 52.2354 1.93465
8626 2 3.86929 52.2354 1.93465
428 4 9.67323 52.2354 0
463 4 9.67323 54.1701 1.93465
8629 2 7.73858 52.2354 1.93465
8662 2 7.73858 54.1701 0
430 4 13.5425 52.2354 0
431 4 11.6079 52.2354 1.93465
464 4 11.6079 54.1701 0
8630 2 13.5425 52.2354 0
8632 2 11.6079 52.2354 1.93465
8665 2 11.6079 54.1701 0
8667 2 13.5425 54.1701 1.93465
434 4 15.4772 52.2354 1.93465
465 4 15.4772 54.1701 0
8634 2 15.4772 52.2354 1.93465
8668 2 15.4772 54.1701 0
433 4 17.4118 52.2354 0
467 4 19.3465 54.1701 0
8633 2 17.4118 52.2354 0
8669 2 19.3465 54.1701 0
468 4 21.2811 54.1701 1.93465
8671 2 23.2157 54.1701 0
437 4 25.1504 52.2354 0
470 4 25.1504 54.1701 1.93465
471 4 27.085 54.1701 0
8637 2 25.1504 52.2354 0
8639 2 27.085 52.2354 1.93465
439 4 29.0197 52.2354 0
473 4 29.0197 54.1701 1.93465
8673 2 29.0197 54.1701 1.93465
475 4 32.889 54.1701 1.93465
8640 2 30.9543 52.2354 1.93465
8674 2 30.9543 54.1701 0
442 4 36.7583 52.2354 0
444 4 34.8236 52.2354 1.93465
477 4 36.7583 54.1701 1.93465
8676 2 34.8236 54.1701 0
8677 2 36.7583 54.1701 1.93465
446 4 40.6276 52.2354 0
447 4 38.6929 52.2354 1.93465
478 4 38.6929 54.1701 0
479 4 40.6276 54.1701 1.93465
8642 2 40.6276 52.2354 0
8643 2 38.6929 52.2354 1.93465
8680 2 40.6276 54.1701 1.93465
8646 2 42.5622 52.2354 1.93465
453 4 46.4315 52.2354 1.93465
481 4 44.4969 54.1701 1.93465
483 4 46.4315 54.1701 0
8645 2 44.4969 52.2354 0
8648 2 46.4315 52.2354 1.93465
451 4 48.3661 52.2354 0
484 4 48.3661 54.1701 1.93465
8684 2 50.3008 54.1701 0
455 4 52.2354 52.2354 0
458 4 54.1701 52.2354 1.93465
8650 2 52.2354 52.2354 0
8654 2 54.1701 52.2354 1.93465
8687 2 54.1701 54.1701 0
488 4 56.1047 54.1701 1.93465
8653 2 56.1047 52.2354 0
489 4 58.0394 54.1701 0
491 4 59.974 54.1701 1.93465
8656 2 59.974 52.2354 0
8659 2 1.93465 56.1047 0
461 4 5.80394 56.1047 0
8661 2 3.86929 56.1047 1.93465
462 4 9.67323 56.1047 0
8663 2 9.67323 56.1047 0
8664 2 7.73858 56.1047 1.93465
8666 2 13.5425 56.1047 0
466 4 15.4772 56.1047 1.93465
469 4 19.3465 56.1047 1.93465
8670 2 21.2811 56.1047 0
8672 2 23.2157 56.1047 1.93465
474 4 27.085 56.1047 1.93465
472 4 29.0197 56.1047 0
8675 2 32.889 56.1047 0
476 4 36.7583 56.1047 0
8678 2 34.8236 56.1047 1.93465
8679 2 40.6276 56.1047 0
8681 2 38.6929 56.1047 1.93465
482 4 42.5622 56.1047 1.93465
8682 2 42.5622 56.1047 1.93465
480 4 44.4969 56.1047 0
8683 2 46.4315 56.1047 1.93465
486 4 50.3008 56.1047 1.93465
8686 2 50.3008 56.1047 1.93465
485 4 52.2354 56.1047 0
8685 2 52.2354 56.1047 0
487 4 56.1047 56.1047 0
8688 2 56.1047 56.1047 0
490 4 59.974 56.1047 0
492 4 1.93465 59.974 0
8689 2 0 58.0394 0
8690 2 1.93465 59.974 0
8691 2 0 59.974 1.93465
493 4 3.86929 58.0394 0
494 4 5.80394 59.974 0
495 4 3.86929 59.974 1.93465
8692 2 3.86929 58.0394 0
8693 2 5.80394 58.0394 1.93465
8694 2 3.86929 59.974 1.93465
496 4 7.73858 58.0394 0
497 4 9.67323 58.0394 1.93465
8695 2 9.67323 59.974 0
8696 2 7.73858 59.974 1.93465
498 4 13.5425 59.974 0
8697 2 11.6079 58.0394 0
8698 2 13.5425 58.0394 1.93465
8699 2 15.4772 58.0394 0
8702 2 15.4772 59.974 1.93465
501 4 19.3465 59.974 1.93465
8700 2 17.4118 59.974 0
8701 2 17.4118 58.0394 1.93465
8703 2 19.3465 58.0394 0
499 4 21.2811 59.974 0
500 4 21.2811 58.0394 1.93465
502 4 23.2157 58.0394 0
8706 2 23.2157 59.974 1.93465
503 4 27.085 58.0394 0
8704 2 25.1504 59.974 0
8705 2 25.1504 58.0394 1.93465
8707 2 27.085 58.0394 0
8709 2 27.085 59.974 1.93465
504 4 29.0197 59.974 0
505 4 29.0197 58.0394 1.93465
8708 2 29.0197 58.0394 1.93465
506 4 32.889 59.974 0
507 4 32.889 58.0394 1.93465
508 4 30.9543 59.974 1.93465
8710 2 32.889 59.974 0
8711 2 30.9543 59.974 1.93465
509 4 34.8236 58.0394 0
510 4 36.7583 59.974 0
511 4 36.7583 58.0394 1.93465
8712 2 34.8236 58.0394 0
8713 2 36.7583 58.0394 1.93465
8714 2 34.8236 59.974 1.93465
512 4 38.6929 58.0394 0
8715 2 38.6929 58.0394 0
8716 2 40.6276 59.974 0
8717 2 40.6276 58.0394 1.93465
8718 2 38.6929 59.974 1.93465
513 4 42.5622 58.0394 0
8719 2 42.5622 58.0394 0
514 4 44.4969 58.0394 1.93465
516 4 46.4315 59.974 1.93465
8720 2 44.4969 59.974 0
515 4 48.3661 58.0394 1.93465
517 4 50.3008 58.0394 0
519 4 50.3008 59.974 1.93465
8721 2 48.3661 58.0394 1.93465
8722 2 50.3008 58.0394 0
8725 2 50.3008 59.974 1.93465
518 4 52.2354 58.0394 1.93465
8723 2 52.2354 59.974 0
8724 2 52.2354 58.0394 1.93465
8726 2 56.1047 59.974 0
8727 2 56.1047 58.0394 1.93465
520 4 59.974 59.974 0
521 4 59.974 58.0394 1.93465
8728 2 59.974 59.974 0
8729 2 59.974 58.0394 1.93465
8730 2 1.93465 1.93465 3.86929
8731 2 0 1.93465 5.80394
522 4 5.80394 0 5.80394
523 4 3.86929 1.93465 5.80394
8732 2 5.80394 1.93465 3.86929
8733 2 5.80394 0 5.80394
8734 2 3.86929 1.93465 5.80394
524 4 9.67323 0 5.80394
8735 2 7.73858 0 3.86929
8736 2 9.67323 0 5.80394
8737 2 7.73858 1.93465 5.80394
525 4 13.5425 1.93465 3.86929
526 4 13.5425 0 5.80394
527 4 11.6079 1.93465 5.80394
8738 2 13.5425 0 5.80394
8739 2 11.6079 1.93465 5.80394
528 4 15.4772 0 3.86929
8740 2 15.4772 0 3.86929
8741 2 15.4772 1.93465 5.80394
529 4 17.4118 0 5.80394
531 4 19.3465 1.93465 5.80394
8742 2 19.3465 1.93465 5.80394
530 4 21.2811 0 5.80394
8743 2 23.2157 0 3.86929
8745 2 23.2157 1.93465 5.80394
532 4 25.1504 1.93465 3.86929
533 4 25.1504 0 5.80394
534 4 27.085 0 3.86929
535 4 27.085 1.93465 5.80394
8744 2 25.1504 1.93465 3.86929
8746 2 27.085 0 3.86929
8747 2 29.0197 0 5.80394
536 4 30.9543 0 3.86929
537 4 32.889 1.93465 3.86929
538 4 32.889 0 5.80394
539 4 30.9543 1.93465 5.80394
8748 2 30.9543 0 3.86929
8749 2 30.9543 1.93465 5.80394
8750 2 36.7583 1.93465 3.86929
8751 2 36.7583 0 5.80394
8752 2 34.8236 1.93465 5.80394
540 4 38.6929 0 3.86929
8753 2 38.6929 1.93465 5.80394
541 4 42.5622 0 3.86929
542 4 44.4969 1.93465 3.86929
545 4 46.4315 1.93465 5.80394
8754 2 44.4969 1.93465 3.86929
8755 2 44.4969 0 5.80394
8756 2 46.4315 1.93465 5.80394
543 4 48.3661 1.93465 3.86929
544 4 48.3661 0 5.80394
546 4 50.3008 0 3.86929