ITEM: TIMESTEP
0
ITEM: NUMBER OF ATOMS
16384
ITEM: BOX BOUNDS pp pp pp
0.0000000000000000e+00 3.1673025714074100e+01
0.0000000000000000e+00 3.1673025714074100e+01
0.0000000000000000e+00 3.1673025714074100e+01
ITEM: ATOMS id type x y z
1 4 0 0 0
2 4 0.997638 0.997638 0
3 4 2.99291 0.997638 0
4 4 2.99291 0 0.997638
5 4 1.99528 0.997638 0.997638
32 4 0.997638 1.99528 0.997638
33 4 0 2.99291 0.997638
34 4 2.99291 1.99528 0.997638
35 4 1.99528 2.99291 0.997638
522 4 2.99291 0 2.99291
523 4 1.99528 0.997638 2.99291
553 4 0.997638 2.99291 1.99528
554 4 0 2.99291 2.99291
555 4 2.99291 2.99291 1.99528
556 4 2.99291 1.99528 2.99291
557 4 1.99528 2.99291 2.99291
8193 2 0 0 0
8194 2 0.997638 0.997638 0
8195 2 0.997638 0 0.997638
8196 2 0 0.997638 0.997638
8197 2 2.99291 0 0.997638
8226 2 0 1.99528 0
8227 2 0.997638 2.99291 0
8228 2 2.99291 1.99528 0.997638
8730 2 0.997638 0.997638 1.99528
8731 2 0 0.997638 2.99291
8732 2 2.99291 0.997638 1.99528
8733 2 2.99291 0 2.99291
8734 2 1.99528 0.997638 2.99291
8760 2 1.99528 1.99528 1.99528
8761 2 2.99291 2.99291 1.99528
6 4 4.98819 0 0.997638
7 4 3.99055 0.997638 0.997638
8 4 6.98346 0.997638 0
9 4 6.98346 0 0.997638
10 4 5.98583 0.997638 0.997638
36 4 3.99055 1.99528 0
37 4 4.98819 2.99291 0
38 4 4.98819 1.99528 0.997638
39 4 3.99055 2.99291 0.997638
40 4 6.98346 2.99291 0
41 4 6.98346 1.99528 0.997638
42 4 5.98583 2.99291 0.997638
524 4 4.98819 0 2.99291
525 4 6.98346 0.997638 1.99528
526 4 6.98346 0 2.99291
527 4 5.98583 0.997638 2.99291
558 4 3.99055 1.99528 1.99528
559 4 4.98819 1.99528 2.99291
560 4 3.99055 2.99291 2.99291
561 4 5.98583 1.99528 1.99528
562 4 6.98346 2.99291 1.99528
8198 2 3.99055 0 0
8199 2 4.98819 0.997638 0
8200 2 6.98346 0.997638 0
8229 2 3.99055 1.99528 0
8230 2 4.98819 2.99291 0
8735 2 3.99055 0 1.99528
8736 2 4.98819 0 2.99291
8737 2 3.99055 0.997638 2.99291
8738 2 6.98346 0 2.99291
8739 2 5.98583 0.997638 2.99291
8762 2 4.98819 2.99291 1.99528
8763 2 4.98819 1.99528 2.99291
8764 2 5.98583 2.99291 2.99291
11 4 7.9811 0 0
12 4 7.9811 0.997638 0.997638
43 4 7.9811 1.99528 0
44 4 8.97874 2.99291 0
45 4 7.9811 2.99291 0.997638
47 4 9.97638 2.99291 0.997638
528 4 7.9811 0 1.99528
529 4 8.97874 0 2.99291
531 4 9.97638 0.997638 2.99291
563 4 8.97874 2.99291 1.99528
564 4 8.97874 1.99528 2.99291
565 4 9.97638 1.99528 1.99528
8201 2 8.97874 0 0.997638
8203 2 9.97638 0.997638 0.997638
8231 2 7.9811 1.99528 0
8232 2 8.97874 1.99528 0.997638
8740 2 7.9811 0 1.99528
8741 2 7.9811 0.997638 2.99291
8742 2 9.97638 0.997638 2.99291
8765 2 8.97874 2.99291 1.99528
8766 2 8.97874 1.99528 2.99291
8767 2 7.9811 2.99291 2.99291
8769 2 9.97638 2.99291 2.99291
13 4 11.9717 0 0
14 4 13.9669 0 0
16 4 13.9669 0.997638 0.997638
46 4 10.974 1.99528 0.997638
48 4 11.9717 1.99528 0
49 4 12.9693 2.99291 0
50 4 12.9693 1.99528 0.997638
51 4 11.9717 2.99291 0.997638
52 4 13.9669 2.99291 0.997638
530 4 10.974 0 2.99291
532 4 12.9693 0.997638 1.99528
533 4 12.9693 0 2.99291
534 4 13.9669 0 1.99528
535 4 13.9669 0.997638 2.99291
566 4 10.974 2.99291 1.99528
567 4 10.974 1.99528 2.99291
568 4 11.9717 1.99528 1.99528
569 4 12.9693 2.99291 1.99528
570 4 12.9693 1.99528 2.99291
8202 2 10.974 0 0.997638
8204 2 11.9717 0 0
8205 2 12.9693 0.997638 0
8206 2 11.9717 0.997638 0.997638
8207 2 13.9669 0 0
8233 2 10.974 2.99291 0
8234 2 12.9693 2.99291 0
8235 2 12.9693 1.99528 0.997638
8236 2 13.9669 1.99528 0
8237 2 13.9669 2.99291 0.997638
8743 2 11.9717 0 1.99528
8744 2 12.9693 0.997638 1.99528
8745 2 11.9717 0.997638 2.99291
8746 2 13.9669 0 1.99528
8768 2 10.974 2.99291 1.99528
8770 2 11.9717 1.99528 1.99528
8771 2 12.9693 2.99291 1.99528
8772 2 11.9717 2.99291 2.99291
8773 2 13.9669 1.99528 1.99528
8775 2 13.9669 2.99291 2.99291
15 4 14.9646 0 0.997638
17 4 15.9622 0 0
18 4 16.9598 0.997638 0
19 4 16.9598 0 0.997638
53 4 15.9622 1.99528 0
54 4 16.9598 2.99291 0
55 4 16.9598 1.99528 0.997638
56 4 15.9622 2.99291 0.997638
536 4 15.9622 0 1.99528
537 4 16.9598 0.997638 1.99528
538 4 16.9598 0 2.99291
539 4 15.9622 0.997638 2.99291
571 4 15.9622 1.99528 1.99528
572 4 16.9598 2.99291 1.99528
573 4 16.9598 1.99528 2.99291
574 4 15.9622 2.99291 2.99291
8208 2 14.9646 0 0.997638
8209 2 16.9598 0.997638 0
8238 2 15.9622 1.99528 0
8239 2 16.9598 2.99291 0
8747 2 14.9646 0 2.99291
8748 2 15.9622 0 1.99528
8749 2 15.9622 0.997638 2.99291
8774 2 14.9646 1.99528 2.99291
8776 2 16.9598 2.99291 1.99528
8777 2 15.9622 2.99291 2.99291
20 4 18.9551 0.997638 0
21 4 18.9551 0 0.997638
22 4 20.9504 0.997638 0
57 4 17.9575 1.99528 0
58 4 18.9551 2.99291 0
59 4 17.9575 2.99291 0.997638
60 4 20.9504 1.99528 0.997638
61 4 19.9528 2.99291 0.997638
540 4 19.9528 0 1.99528
575 4 17.9575 1.99528 1.99528
576 4 18.9551 2.99291 1.99528
577 4 17.9575 2.99291 2.99291
578 4 19.9528 2.99291 2.99291
8210 2 18.9551 0.997638 0
8211 2 18.9551 0 0.997638
8212 2 17.9575 0.997638 0.997638
8213 2 19.9528 0 0
8214 2 20.9504 0 0.997638
8215 2 19.9528 0.997638 0.997638
8240 2 18.9551 1.99528 0.997638
8241 2 17.9575 2.99291 0.997638
8242 2 20.9504 1.99528 0.997638
8750 2 18.9551 0.997638 1.99528
8751 2 18.9551 0 2.99291
8752 2 17.9575 0.997638 2.99291
8753 2 19.9528 0.997638 2.99291
8778 2 17.9575 1.99528 1.99528
8779 2 20.9504 1.99528 2.99291
8780 2 19.9528 2.99291 2.99291
23 4 21.948 0 0
24 4 22.9457 0.997638 0
62 4 22.9457 1.99528 0.997638
63 4 23.9433 1.99528 0
541 4 21.948 0 1.99528
542 4 22.9457 0.997638 1.99528
545 4 23.9433 0.997638 2.99291
579 4 22.9457 2.99291 1.99528
580 4 22.9457 1.99528 2.99291
581 4 21.948 2.99291 2.99291
8216 2 22.9457 0.997638 0
8217 2 21.948 0.997638 0.997638
8218 2 23.9433 0 0
8220 2 23.9433 0.997638 0.997638
8243 2 21.948 1.99528 0
8244 2 22.9457 2.99291 0
8245 2 23.9433 1.99528 0
8754 2 22.9457 0.997638 1.99528
8755 2 22.9457 0 2.99291
8756 2 23.9433 0.997638 2.99291
8781 2 22.9457 1.99528 2.99291
8782 2 21.948 2.99291 2.99291
8783 2 23.9433 1.99528 1.99528
8785 2 23.9433 2.99291 2.99291
25 4 24.9409 0.997638 0
26 4 26.9362 0.997638 0
27 4 27.9339 0 0
29 4 27.9339 0.997638 0.997638
64 4 24.9409 2.99291 0
65 4 24.9409 1.99528 0.997638
66 4 26.9362 2.99291 0
67 4 26.9362 1.99528 0.997638
68 4 27.9339 1.99528 0
543 4 24.9409 0.997638 1.99528
544 4 24.9409 0 2.99291
546 4 25.9386 0 1.99528
547 4 26.9362 0.997638 1.99528
548 4 26.9362 0 2.99291
549 4 25.9386 0.997638 2.99291
550 4 27.9339 0.997638 2.99291
582 4 24.9409 2.99291 1.99528
583 4 25.9386 1.99528 1.99528
584 4 26.9362 2.99291 1.99528
8219 2 24.9409 0.997638 0
8221 2 25.9386 0 0
8222 2 26.9362 0 0.997638
8223 2 25.9386 0.997638 0.997638
8246 2 24.9409 1.99528 0.997638
8247 2 25.9386 1.99528 0
8248 2 26.9362 2.99291 0
8249 2 26.9362 1.99528 0.997638
8250 2 25.9386 2.99291 0.997638
8251 2 27.9339 1.99528 0
8757 2 25.9386 0 1.99528
8758 2 26.9362 0 2.99291
8784 2 24.9409 2.99291 1.99528
8786 2 25.9386 2.99291 2.99291
8787 2 27.9339 1.99528 1.99528
28 4 28.9315 0 0.997638
30 4 29.9291 0 0
31 4 30.9268 0.997638 0
69 4 28.9315 2.99291 0
70 4 29.9291 1.99528 0
71 4 30.9268 2.99291 0
72 4 29.9291 2.99291 0.997638
551 4 29.9291 0 1.99528
552 4 29.9291 0.997638 2.99291
585 4 28.9315 1.99528 2.99291
586 4 30.9268 2.99291 1.99528
8224 2 28.9315 0 0.997638
8225 2 29.9291 0 0
8252 2 29.9291 1.99528 0
8253 2 30.9268 2.99291 0
8254 2 30.9268 1.99528 0.997638
8255 2 29.9291 2.99291 0.997638
8759 2 30.9268 0.997638 1.99528
8788 2 28.9315 1.99528 2.99291
8789 2 30.9268 2.99291 1.99528
73 4 0.997638 3.99055 0.997638
74 4 2.99291 3.99055 0.997638
75 4 1.99528 4.98819 0.997638
98 4 0.997638 6.98346 0
99 4 0.997638 5.98583 0.997638
100 4 0 6.98346 0.997638
101 4 1.99528 5.98583 0
102 4 2.99291 6.98346 0
103 4 2.99291 5.98583 0.997638
587 4 0 3.99055 1.99528
588 4 0.997638 4.98819 1.99528
589 4 0.997638 3.99055 2.99291
590 4 2.99291 4.98819 1.99528
591 4 1.99528 4.98819 2.99291
611 4 0 6.98346 2.99291
612 4 2.99291 6.98346 1.99528
8256 2 0.997638 3.99055 0.997638
8257 2 0 4.98819 0.997638
8258 2 1.99528 3.99055 0
8259 2 2.99291 4.98819 0
8295 2 0 5.98583 0
8296 2 1.99528 5.98583 0
8297 2 2.99291 6.98346 0
8298 2 2.99291 5.98583 0.997638
8790 2 0 3.99055 1.99528
8791 2 0.997638 3.99055 2.99291
8792 2 0 4.98819 2.99291
8793 2 1.99528 3.99055 1.99528
8794 2 2.99291 4.98819 1.99528
8795 2 1.99528 4.98819 2.99291
8824 2 0 5.98583 1.99528
8825 2 0.997638 6.98346 1.99528
8826 2 1.99528 5.98583 1.99528
76 4 5.98583 3.99055 0
77 4 6.98346 3.99055 0.997638
104 4 3.99055 5.98583 0
105 4 4.98819 5.98583 0.997638
106 4 6.98346 6.98346 0
107 4 6.98346 5.98583 0.997638
613 4 3.99055 5.98583 1.99528
614 4 4.98819 6.98346 1.99528
615 4 3.99055 6.98346 2.99291
616 4 6.98346 6.98346 1.99528
617 4 5.98583 6.98346 2.99291
8260 2 3.99055 3.99055 0
8261 2 4.98819 3.99055 0.997638
8262 2 3.99055 4.98819 0.997638
8263 2 5.98583 3.99055 0
8264 2 5.98583 4.98819 0.997638
8299 2 3.99055 5.98583 0
8300 2 4.98819 6.98346 0
8301 2 5.98583 5.98583 0
8302 2 6.98346 6.98346 0
8303 2 5.98583 6.98346 0.997638
8796 2 4.98819 3.99055 2.99291
8797 2 3.99055 4.98819 2.99291
8798 2 6.98346 4.98819 1.99528
8799 2 5.98583 4.98819 2.99291
8827 2 3.99055 5.98583 1.99528
8828 2 4.98819 6.98346 1.99528
8829 2 6.98346 6.98346 1.99528
8830 2 5.98583 6.98346 2.99291
78 4 8.97874 3.99055 0.997638
108 4 9.97638 5.98583 0
592 4 7.9811 3.99055 1.99528
593 4 8.97874 3.99055 2.99291
594 4 9.97638 3.99055 1.99528
618 4 9.97638 5.98583 1.99528
8265 2 7.9811 3.99055 0
8266 2 8.97874 4.98819 0
8267 2 8.97874 3.99055 0.997638
8268 2 9.97638 3.99055 0
8304 2 8.97874 6.98346 0
8305 2 8.97874 5.98583 0.997638
8800 2 7.9811 4.98819 2.99291
8831 2 7.9811 5.98583 1.99528
8832 2 7.9811 6.98346 2.99291
79 4 10.974 4.98819 0
80 4 10.974 3.99055 0.997638
81 4 11.9717 3.99055 0
82 4 12.9693 3.99055 0.997638
83 4 13.9669 4.98819 0.997638
109 4 10.974 6.98346 0
110 4 10.974 5.98583 0.997638
111 4 11.9717 5.98583 0
112 4 12.9693 5.98583 0.997638
113 4 11.9717 6.98346 0.997638
114 4 13.9669 5.98583 0
117 4 13.9669 6.98346 0.997638
595 4 10.974 4.98819 1.99528
596 4 11.9717 3.99055 1.99528
597 4 12.9693 3.99055 2.99291
598 4 13.9669 3.99055 1.99528
619 4 10.974 5.98583 2.99291
620 4 12.9693 6.98346 1.99528
622 4 13.9669 6.98346 2.99291
8269 2 10.974 4.98819 0
8270 2 10.974 3.99055 0.997638
8271 2 12.9693 4.98819 0
8272 2 11.9717 4.98819 0.997638
8273 2 13.9669 4.98819 0.997638
8306 2 10.974 6.98346 0
8307 2 12.9693 6.98346 0
8308 2 11.9717 6.98346 0.997638
8309 2 13.9669 5.98583 0
8311 2 13.9669 6.98346 0.997638
8801 2 10.974 4.98819 1.99528
8802 2 10.974 3.99055 2.99291
8803 2 11.9717 4.98819 2.99291
8804 2 13.9669 3.99055 1.99528
8833 2 12.9693 6.98346 1.99528
84 4 16.9598 3.99055 0.997638
115 4 14.9646 6.98346 0
116 4 14.9646 5.98583 0.997638
118 4 15.9622 6.98346 0.997638
599 4 14.9646 4.98819 1.99528
600 4 14.9646 3.99055 2.99291
601 4 16.9598 4.98819 1.99528
602 4 15.9622 4.98819 2.99291
621 4 14.9646 6.98346 1.99528
623 4 15.9622 5.98583 1.99528
624 4 16.9598 6.98346 1.99528
625 4 15.9622 6.98346 2.99291
8274 2 15.9622 3.99055 0
8275 2 16.9598 4.98819 0
8276 2 15.9622 4.98819 0.997638
8310 2 14.9646 5.98583 0.997638
8312 2 15.9622 5.98583 0
8313 2 16.9598 6.98346 0
8805 2 16.9598 4.98819 1.99528
8806 2 16.9598 3.99055 2.99291
8807 2 15.9622 4.98819 2.99291
8834 2 14.9646 6.98346 1.99528
8835 2 15.9622 5.98583 1.99528
8836 2 16.9598 6.98346 1.99528
8837 2 15.9622 6.98346 2.99291
85 4 18.9551 4.98819 0
86 4 17.9575 4.98819 0.997638
87 4 20.9504 3.99055 0.997638
88 4 19.9528 4.98819 0.997638
119 4 17.9575 5.98583 0
120 4 18.9551 6.98346 0
121 4 18.9551 5.98583 0.997638
122 4 17.9575 6.98346 0.997638
123 4 19.9528 5.98583 0
124 4 20.9504 5.98583 0.997638
603 4 17.9575 3.99055 1.99528
626 4 17.9575 5.98583 1.99528
627 4 18.9551 5.98583 2.99291
628 4 19.9528 5.98583 1.99528
629 4 20.9504 6.98346 1.99528
630 4 19.9528 6.98346 2.99291
8277 2 17.9575 3.99055 0
8278 2 18.9551 4.98819 0
8279 2 18.9551 3.99055 0.997638
8280 2 17.9575 4.98819 0.997638
8281 2 19.9528 3.99055 0
8282 2 20.9504 4.98819 0
8283 2 20.9504 3.99055 0.997638
8314 2 17.9575 5.98583 0
8315 2 18.9551 5.98583 0.997638
8316 2 19.9528 5.98583 0
8808 2 17.9575 4.98819 2.99291
8809 2 20.9504 4.98819 1.99528
8810 2 20.9504 3.99055 2.99291
8811 2 19.9528 4.98819 2.99291
8838 2 18.9551 6.98346 1.99528
8839 2 19.9528 5.98583 1.99528
8840 2 20.9504 6.98346 1.99528
8841 2 20.9504 5.98583 2.99291
8842 2 19.9528 6.98346 2.99291
89 4 22.9457 3.99055 0.997638
90 4 21.948 4.98819 0.997638
92 4 23.9433 4.98819 0.997638
127 4 23.9433 6.98346 0.997638
604 4 21.948 3.99055 1.99528
605 4 23.9433 4.98819 2.99291
631 4 22.9457 5.98583 2.99291
632 4 21.948 6.98346 2.99291
633 4 23.9433 5.98583 1.99528
8284 2 22.9457 4.98819 0
8285 2 23.9433 3.99055 0
8317 2 21.948 5.98583 0
8318 2 21.948 6.98346 0.997638
8812 2 21.948 3.99055 1.99528
8813 2 22.9457 4.98819 1.99528
8814 2 22.9457 3.99055 2.99291
8815 2 21.948 4.98819 2.99291
8816 2 23.9433 3.99055 1.99528
8819 2 23.9433 4.98819 2.99291
8843 2 22.9457 6.98346 1.99528
8844 2 21.948 6.98346 2.99291
8845 2 23.9433 6.98346 2.99291
91 4 24.9409 4.98819 0
93 4 25.9386 4.98819 0.997638
94 4 27.9339 3.99055 0
125 4 24.9409 6.98346 0
126 4 24.9409 5.98583 0.997638
128 4 25.9386 5.98583 0
129 4 26.9362 5.98583 0.997638
130 4 27.9339 5.98583 0
606 4 26.9362 3.99055 2.99291
607 4 25.9386 4.98819 2.99291
608 4 27.9339 4.98819 2.99291
634 4 25.9386 6.98346 2.99291
636 4 27.9339 6.98346 2.99291
8286 2 26.9362 4.98819 0
8287 2 26.9362 3.99055 0.997638
8288 2 25.9386 4.98819 0.997638
8289 2 27.9339 3.99055 0
8291 2 27.9339 4.98819 0.997638
8319 2 26.9362 5.98583 0.997638
8320 2 25.9386 6.98346 0.997638
8321 2 27.9339 5.98583 0
8322 2 27.9339 6.98346 0.997638
8817 2 24.9409 4.98819 1.99528
8818 2 24.9409 3.99055 2.99291
8820 2 26.9362 3.99055 2.99291
8821 2 27.9339 4.98819 2.99291
8846 2 25.9386 6.98346 2.99291
8847 2 27.9339 5.98583 1.99528
8850 2 27.9339 6.98346 2.99291
95 4 29.9291 3.99055 0
96 4 30.9268 4.98819 0
97 4 29.9291 4.98819 0.997638
131 4 30.9268 6.98346 0
609 4 29.9291 3.99055 1.99528
610 4 30.9268 4.98819 1.99528
635 4 28.9315 6.98346 1.99528
637 4 29.9291 5.98583 1.99528
638 4 30.9268 5.98583 2.99291
639 4 29.9291 6.98346 2.99291
8290 2 28.9315 4.98819 0
8292 2 29.9291 3.99055 0
8293 2 30.9268 4.98819 0
8294 2 29.9291 4.98819 0.997638
8323 2 29.9291 5.98583 0
8324 2 30.9268 6.98346 0
8325 2 29.9291 6.98346 0.997638
8822 2 30.9268 4.98819 1.99528
8823 2 30.9268 3.99055 2.99291
8848 2 28.9315 6.98346 1.99528
8849 2 28.9315 5.98583 2.99291
8851 2 30.9268 6.98346 1.99528
132 4 0.997638 8.97874 0
133 4 2.99291 8.97874 0
160 4 0 9.97638 0
162 4 0.997638 9.97638 0.997638
164 4 1.99528 9.97638 0
165 4 2.99291 9.97638 0.997638
640 4 0.997638 8.97874 1.99528
641 4 0.997638 7.9811 2.99291
642 4 0 8.97874 2.99291
643 4 2.99291 7.9811 2.99291
672 4 0 9.97638 1.99528
673 4 0.997638 9.97638 2.99291
675 4 1.99528 9.97638 1.99528
677 4 2.99291 9.97638 2.99291
8326 2 0.997638 8.97874 0
8327 2 0.997638 7.9811 0.997638
8328 2 0 8.97874 0.997638
8329 2 1.99528 7.9811 0
8330 2 2.99291 8.97874 0
8331 2 2.99291 7.9811 0.997638
8332 2 1.99528 8.97874 0.997638
8366 2 0 9.97638 0
8368 2 0.997638 9.97638 0.997638
8370 2 1.99528 9.97638 0
8372 2 2.99291 9.97638 0.997638
8852 2 0 7.9811 1.99528
8853 2 0.997638 8.97874 1.99528
8854 2 0.997638 7.9811 2.99291
8855 2 0 8.97874 2.99291
8856 2 1.99528 7.9811 1.99528
8857 2 2.99291 8.97874 1.99528
8858 2 2.99291 7.9811 2.99291
8859 2 1.99528 8.97874 2.99291
8880 2 0 9.97638 1.99528
8881 2 0.997638 9.97638 2.99291
8883 2 1.99528 9.97638 1.99528
8885 2 2.99291 9.97638 2.99291
134 4 4.98819 7.9811 0.997638
135 4 5.98583 8.97874 0.997638
167 4 4.98819 9.97638 0.997638
169 4 6.98346 9.97638 0.997638
644 4 6.98346 7.9811 2.99291
645 4 5.98583 8.97874 2.99291
679 4 3.99055 9.97638 1.99528
681 4 4.98819 9.97638 2.99291
682 4 5.98583 9.97638 1.99528
8333 2 3.99055 7.9811 0
8334 2 4.98819 8.97874 0
8335 2 3.99055 8.97874 0.997638
8336 2 6.98346 8.97874 0
8374 2 3.99055 9.97638 0
8377 2 6.98346 9.97638 0.997638
8860 2 4.98819 8.97874 1.99528
8861 2 3.99055 8.97874 2.99291
8862 2 5.98583 8.97874 2.99291
8886 2 3.99055 9.97638 1.99528
136 4 7.9811 8.97874 0.997638
137 4 9.97638 7.9811 0
171 4 7.9811 9.97638 0
173 4 8.97874 9.97638 0.997638
175 4 9.97638 9.97638 0
646 4 8.97874 7.9811 2.99291
647 4 7.9811 8.97874 2.99291
649 4 9.97638 8.97874 2.99291
685 4 7.9811 9.97638 1.99528
687 4 8.97874 9.97638 2.99291
688 4 9.97638 9.97638 1.99528
8337 2 8.97874 8.97874 0
8338 2 8.97874 7.9811 0.997638
8339 2 7.9811 8.97874 0.997638
8340 2 9.97638 7.9811 0
8342 2 9.97638 8.97874 0.997638
8378 2 7.9811 9.97638 0
8380 2 8.97874 9.97638 0.997638
8863 2 8.97874 8.97874 1.99528
8864 2 9.97638 7.9811 1.99528
8890 2 7.9811 9.97638 1.99528
138 4 10.974 8.97874 0
139 4 11.9717 7.9811 0
140 4 12.9693 8.97874 0
142 4 13.9669 8.97874 0.997638
177 4 11.9717 9.97638 0
648 4 10.974 7.9811 2.99291
650 4 12.9693 7.9811 2.99291
651 4 11.9717 8.97874 2.99291
653 4 13.9669 8.97874 2.99291
690 4 10.974 9.97638 2.99291
692 4 12.9693 9.97638 2.99291
8341 2 10.974 7.9811 0.997638
8343 2 12.9693 8.97874 0
8344 2 12.9693 7.9811 0.997638
8345 2 11.9717 8.97874 0.997638
8346 2 13.9669 8.97874 0.997638
8383 2 10.974 9.97638 0.997638
8385 2 12.9693 9.97638 0.997638
8386 2 13.9669 9.97638 0
8865 2 10.974 7.9811 2.99291
8866 2 11.9717 7.9811 1.99528
8867 2 12.9693 8.97874 1.99528
8868 2 13.9669 7.9811 1.99528
8893 2 10.974 9.97638 2.99291
8894 2 11.9717 9.97638 1.99528
8897 2 13.9669 9.97638 1.99528
141 4 14.9646 8.97874 0
143 4 16.9598 7.9811 0.997638
144 4 15.9622 8.97874 0.997638
652 4 14.9646 8.97874 1.99528
654 4 15.9622 7.9811 1.99528
655 4 16.9598 8.97874 1.99528
656 4 16.9598 7.9811 2.99291
694 4 16.9598 9.97638 2.99291
8347 2 16.9598 8.97874 0
8348 2 15.9622 8.97874 0.997638
8869 2 14.9646 8.97874 1.99528
8870 2 16.9598 8.97874 1.99528
145 4 18.9551 8.97874 0
146 4 18.9551 7.9811 0.997638
147 4 17.9575 8.97874 0.997638
148 4 19.9528 7.9811 0
149 4 20.9504 8.97874 0
150 4 19.9528 8.97874 0.997638
180 4 17.9575 9.97638 0
183 4 19.9528 9.97638 0
657 4 17.9575 7.9811 1.99528
658 4 18.9551 8.97874 1.99528
659 4 20.9504 8.97874 1.99528
696 4 18.9551 9.97638 2.99291
8349 2 18.9551 7.9811 0.997638
8350 2 17.9575 8.97874 0.997638
8351 2 20.9504 8.97874 0
8352 2 19.9528 8.97874 0.997638
8390 2 18.9551 9.97638 0.997638
8391 2 19.9528 9.97638 0
8393 2 20.9504 9.97638 0.997638
8871 2 18.9551 8.97874 1.99528
8872 2 18.9551 7.9811 2.99291
8873 2 17.9575 8.97874 2.99291
8874 2 20.9504 8.97874 1.99528
8875 2 20.9504 7.9811 2.99291
8876 2 19.9528 8.97874 2.99291
8900 2 18.9551 9.97638 2.99291
8902 2 19.9528 9.97638 1.99528
151 4 22.9457 8.97874 0
152 4 23.9433 7.9811 0
154 4 23.9433 8.97874 0.997638
184 4 21.948 9.97638 0
660 4 21.948 7.9811 1.99528
661 4 22.9457 8.97874 1.99528
662 4 23.9433 7.9811 1.99528
698 4 21.948 9.97638 1.99528
701 4 23.9433 9.97638 1.99528
8353 2 21.948 7.9811 0
8354 2 22.9457 7.9811 0.997638
8355 2 21.948 8.97874 0.997638
8356 2 23.9433 7.9811 0
8358 2 23.9433 8.97874 0.997638
8395 2 23.9433 9.97638 0
8905 2 22.9457 9.97638 2.99291
8906 2 23.9433 9.97638 1.99528
153 4 24.9409 8.97874 0
155 4 25.9386 7.9811 0
156 4 26.9362 7.9811 0.997638
157 4 25.9386 8.97874 0.997638
158 4 27.9339 7.9811 0
186 4 24.9409 9.97638 0.997638
188 4 26.9362 9.97638 0.997638
663 4 24.9409 8.97874 1.99528
664 4 25.9386 7.9811 1.99528
665 4 26.9362 7.9811 2.99291
666 4 25.9386 8.97874 2.99291
667 4 27.9339 7.9811 1.99528
702 4 25.9386 9.97638 1.99528
704 4 26.9362 9.97638 2.99291
705 4 27.9339 9.97638 1.99528
8357 2 24.9409 7.9811 0.997638
8359 2 26.9362 7.9811 0.997638
8360 2 25.9386 8.97874 0.997638
8396 2 24.9409 9.97638 0.997638
8398 2 25.9386 9.97638 0
8399 2 26.9362 9.97638 0.997638
8401 2 27.9339 9.97638 0
8877 2 24.9409 7.9811 2.99291
8878 2 25.9386 7.9811 1.99528
8908 2 24.9409 9.97638 2.99291
8909 2 25.9386 9.97638 1.99528
8911 2 26.9362 9.97638 2.99291
159 4 29.9291 8.97874 0.997638
192 4 30.9268 9.97638 0.997638
668 4 28.9315 8.97874 1.99528
669 4 28.9315 7.9811 2.99291
670 4 30.9268 7.9811 2.99291
671 4 29.9291 8.97874 2.99291
707 4 28.9315 9.97638 2.99291
709 4 29.9291 9.97638 1.99528
8361 2 28.9315 8.97874 0
8362 2 29.9291 7.9811 0
8363 2 30.9268 8.97874 0
8364 2 30.9268 7.9811 0.997638
8365 2 29.9291 8.97874 0.997638
8879 2 30.9268 7.9811 2.99291
8914 2 28.9315 9.97638 2.99291
8916 2 29.9291 9.97638 1.99528
8917 2 30.9268 9.97638 2.99291
161 4 0.997638 10.974 0
163 4 0 10.974 0.997638
193 4 0.997638 12.9693 0
194 4 0.997638 11.9717 0.997638
195 4 0 12.9693 0.997638
196 4 1.99528 11.9717 0
197 4 2.99291 12.9693 0
230 4 0 13.9669 0
232 4 0.997638 13.9669 0.997638
235 4 2.99291 13.9669 0.997638
674 4 0 10.974 2.99291
676 4 2.99291 10.974 1.99528
678 4 1.99528 10.974 2.99291
711 4 0 11.9717 1.99528
712 4 0.997638 12.9693 1.99528
713 4 1.99528 11.9717 1.99528
714 4 1.99528 12.9693 2.99291
747 4 0 13.9669 1.99528
749 4 0.997638 13.9669 2.99291
750 4 1.99528 13.9669 1.99528
751 4 2.99291 13.9669 2.99291
8367 2 0.997638 10.974 0
8369 2 0 10.974 0.997638
8371 2 2.99291 10.974 0
8373 2 1.99528 10.974 0.997638
8404 2 1.99528 11.9717 0
8405 2 1.99528 12.9693 0.997638
8431 2 0 13.9669 0
8433 2 0.997638 13.9669 0.997638
8436 2 2.99291 13.9669 0.997638
8882 2 0 10.974 2.99291
8884 2 2.99291 10.974 1.99528
8918 2 0 11.9717 1.99528
8919 2 0.997638 12.9693 1.99528
8920 2 1.99528 11.9717 1.99528
8921 2 2.99291 12.9693 1.99528
8922 2 2.99291 11.9717 2.99291
8952 2 0 13.9669 1.99528
8955 2 2.99291 13.9669 2.99291
166 4 4.98819 10.974 0
168 4 3.99055 10.974 0.997638
170 4 5.98583 10.974 0.997638
198 4 3.99055 11.9717 0
199 4 4.98819 12.9693 0
200 4 4.98819 11.9717 0.997638
201 4 3.99055 12.9693 0.997638
202 4 5.98583 11.9717 0
203 4 6.98346 12.9693 0
204 4 6.98346 11.9717 0.997638
237 4 4.98819 13.9669 0.997638
239 4 5.98583 13.9669 0
240 4 6.98346 13.9669 0.997638
680 4 4.98819 10.974 1.99528
683 4 6.98346 10.974 1.99528
684 4 5.98583 10.974 2.99291
715 4 4.98819 12.9693 1.99528
716 4 4.98819 11.9717 2.99291
717 4 3.99055 12.9693 2.99291
718 4 5.98583 11.9717 1.99528
719 4 6.98346 12.9693 1.99528
720 4 5.98583 12.9693 2.99291
754 4 6.98346 13.9669 2.99291
8375 2 4.98819 10.974 0
8376 2 6.98346 10.974 0
8406 2 3.99055 11.9717 0
8407 2 4.98819 12.9693 0
8408 2 5.98583 11.9717 0
8409 2 5.98583 12.9693 0.997638
8437 2 3.99055 13.9669 0
8439 2 4.98819 13.9669 0.997638
8887 2 4.98819 10.974 1.99528
8888 2 6.98346 10.974 1.99528
8889 2 5.98583 10.974 2.99291
8923 2 3.99055 11.9717 1.99528
8924 2 4.98819 12.9693 1.99528
8925 2 4.98819 11.9717 2.99291
8926 2 5.98583 11.9717 1.99528
8927 2 6.98346 12.9693 1.99528
8956 2 3.99055 13.9669 1.99528
8957 2 4.98819 13.9669 2.99291
8959 2 6.98346 13.9669 2.99291
172 4 8.97874 10.974 0
174 4 7.9811 10.974 0.997638
176 4 9.97638 10.974 0.997638
205 4 8.97874 12.9693 0
206 4 8.97874 11.9717 0.997638
208 4 9.97638 12.9693 0.997638
243 4 8.97874 13.9669 0.997638
686 4 8.97874 10.974 1.99528
721 4 7.9811 11.9717 1.99528
722 4 7.9811 12.9693 2.99291
755 4 7.9811 13.9669 1.99528
8379 2 8.97874 10.974 0
8381 2 7.9811 10.974 0.997638
8410 2 7.9811 11.9717 0
8411 2 8.97874 12.9693 0
8412 2 7.9811 12.9693 0.997638
8413 2 9.97638 11.9717 0
8441 2 8.97874 13.9669 0.997638
8891 2 8.97874 10.974 1.99528
8928 2 7.9811 11.9717 1.99528
8929 2 8.97874 11.9717 2.99291
8962 2 9.97638 13.9669 1.99528
178 4 12.9693 10.974 0
207 4 10.974 12.9693 0
209 4 11.9717 11.9717 0
210 4 12.9693 12.9693 0
245 4 11.9717 13.9669 0
246 4 12.9693 13.9669 0.997638
689 4 10.974 10.974 1.99528
691 4 12.9693 10.974 1.99528
693 4 11.9717 10.974 2.99291
723 4 10.974 12.9693 1.99528
724 4 10.974 11.9717 2.99291
725 4 12.9693 11.9717 2.99291
726 4 11.9717 12.9693 2.99291
759 4 11.9717 13.9669 1.99528
8382 2 10.974 10.974 0
8384 2 12.9693 10.974 0
8414 2 10.974 11.9717 0.997638
8415 2 12.9693 12.9693 0
8416 2 12.9693 11.9717 0.997638
8417 2 13.9669 11.9717 0
8443 2 10.974 13.9669 0.997638
8445 2 12.9693 13.9669 0.997638
8446 2 13.9669 13.9669 0
8892 2 10.974 10.974 1.99528
8895 2 12.9693 10.974 1.99528
8896 2 11.9717 10.974 2.99291
8930 2 10.974 12.9693 1.99528
8931 2 10.974 11.9717 2.99291
8932 2 11.9717 12.9693 2.99291
8933 2 13.9669 11.9717 1.99528
8935 2 13.9669 12.9693 2.99291
8965 2 13.9669 13.9669 1.99528
179 4 14.9646 10.974 0
211 4 14.9646 12.9693 0
212 4 15.9622 11.9717 0
213 4 16.9598 12.9693 0
214 4 16.9598 11.9717 0.997638
215 4 15.9622 12.9693 0.997638
248 4 14.9646 13.9669 0.997638
695 4 15.9622 10.974 2.99291
727 4 14.9646 12.9693 1.99528
728 4 15.9622 11.9717 1.99528
729 4 16.9598 12.9693 1.99528
730 4 16.9598 11.9717 2.99291
761 4 14.9646 13.9669 2.99291
763 4 16.9598 13.9669 2.99291
8387 2 14.9646 10.974 0
8388 2 15.9622 10.974 0.997638
8418 2 14.9646 11.9717 0.997638
8419 2 15.9622 11.9717 0
8420 2 16.9598 11.9717 0.997638
8447 2 15.9622 13.9669 0
8898 2 16.9598 10.974 1.99528
8934 2 14.9646 12.9693 1.99528
8936 2 16.9598 12.9693 1.99528
8966 2 15.9622 13.9669 1.99528
8967 2 16.9598 13.9669 2.99291
181 4 18.9551 10.974 0
182 4 17.9575 10.974 0.997638
216 4 18.9551 12.9693 0
217 4 18.9551 11.9717 0.997638
218 4 19.9528 11.9717 0
219 4 20.9504 11.9717 0.997638
251 4 17.9575 13.9669 0
252 4 19.9528 13.9669 0
253 4 20.9504 13.9669 0.997638
697 4 19.9528 10.974 2.99291
731 4 17.9575 11.9717 1.99528
732 4 18.9551 11.9717 2.99291
733 4 17.9575 12.9693 2.99291
734 4 19.9528 11.9717 1.99528
735 4 20.9504 12.9693 1.99528
765 4 17.9575 13.9669 1.99528
766 4 18.9551 13.9669 2.99291
8389 2 18.9551 10.974 0
8392 2 20.9504 10.974 0
8421 2 17.9575 11.9717 0
8422 2 18.9551 12.9693 0
8423 2 18.9551 11.9717 0.997638
8424 2 19.9528 11.9717 0
8425 2 20.9504 12.9693 0
8449 2 17.9575 13.9669 0
8450 2 18.9551 13.9669 0.997638
8451 2 19.9528 13.9669 0
8453 2 20.9504 13.9669 0.997638
8899 2 18.9551 10.974 1.99528
8901 2 17.9575 10.974 2.99291
8903 2 20.9504 10.974 1.99528
8904 2 19.9528 10.974 2.99291
8937 2 17.9575 11.9717 1.99528
8938 2 18.9551 12.9693 1.99528
8939 2 18.9551 11.9717 2.99291
8940 2 17.9575 12.9693 2.99291
8941 2 20.9504 12.9693 1.99528
8942 2 20.9504 11.9717 2.99291
8968 2 17.9575 13.9669 1.99528
8972 2 20.9504 13.9669 2.99291
185 4 21.948 10.974 0.997638
220 4 21.948 11.9717 0
221 4 22.9457 12.9693 0
699 4 22.9457 10.974 1.99528
700 4 21.948 10.974 2.99291
736 4 22.9457 12.9693 1.99528
737 4 22.9457 11.9717 2.99291
738 4 21.948 12.9693 2.99291
739 4 23.9433 11.9717 1.99528
769 4 21.948 13.9669 1.99528
8394 2 21.948 10.974 0.997638
8397 2 23.9433 10.974 0.997638
8426 2 22.9457 12.9693 0
8427 2 21.948 12.9693 0.997638
8428 2 23.9433 12.9693 0.997638
8454 2 21.948 13.9669 0
8456 2 23.9433 13.9669 0
8943 2 21.948 11.9717 1.99528
8946 2 23.9433 12.9693 2.99291
187 4 26.9362 10.974 0
189 4 25.9386 10.974 0.997638
222 4 24.9409 12.9693 0
223 4 24.9409 11.9717 0.997638
224 4 25.9386 11.9717 0
225 4 25.9386 12.9693 0.997638
226 4 27.9339 11.9717 0
228 4 27.9339 12.9693 0.997638
256 4 24.9409 13.9669 0.997638
703 4 26.9362 10.974 1.99528
708 4 27.9339 10.974 2.99291
740 4 24.9409 12.9693 1.99528
741 4 26.9362 11.9717 2.99291
742 4 25.9386 12.9693 2.99291
770 4 24.9409 13.9669 2.99291
772 4 25.9386 13.9669 1.99528
8400 2 25.9386 10.974 0.997638
8429 2 26.9362 11.9717 0.997638
8907 2 24.9409 10.974 1.99528
8910 2 26.9362 10.974 1.99528
8912 2 25.9386 10.974 2.99291
8915 2 27.9339 10.974 2.99291
8944 2 24.9409 12.9693 1.99528
8945 2 24.9409 11.9717 2.99291
8947 2 25.9386 11.9717 1.99528
8948 2 26.9362 11.9717 2.99291
8949 2 27.9339 11.9717 1.99528
8950 2 27.9339 12.9693 2.99291
8977 2 26.9362 13.9669 2.99291
190 4 28.9315 10.974 0
191 4 30.9268 10.974 0
227 4 28.9315 12.9693 0
229 4 30.9268 12.9693 0
259 4 30.9268 13.9669 0.997638
706 4 28.9315 10.974 1.99528
710 4 30.9268 10.974 1.99528
743 4 28.9315 12.9693 1.99528
744 4 28.9315 11.9717 2.99291
745 4 30.9268 12.9693 1.99528
746 4 30.9268 11.9717 2.99291
775 4 28.9315 13.9669 2.99291
776 4 29.9291 13.9669 1.99528
8402 2 28.9315 10.974 0
8403 2 30.9268 10.974 0
8430 2 28.9315 12.9693 0
8913 2 28.9315 10.974 1.99528
8951 2 30.9268 11.9717 2.99291
8978 2 28.9315 13.9669 2.99291
231 4 0.997638 14.9646 0
233 4 0 14.9646 0.997638
234 4 2.99291 14.9646 0
236 4 1.99528 14.9646 0.997638
260 4 0 15.9622 0
261 4 0.997638 16.9598 0
262 4 0 16.9598 0.997638
263 4 1.99528 15.9622 0
264 4 2.99291 16.9598 0
265 4 2.99291 15.9622 0.997638
266 4 1.99528 16.9598 0.997638
748 4 0.997638 14.9646 1.99528
778 4 0 15.9622 1.99528
779 4 0.997638 16.9598 1.99528
780 4 0 16.9598 2.99291
781 4 1.99528 15.9622 1.99528
782 4 1.99528 16.9598 2.99291
8432 2 0.997638 14.9646 0
8434 2 0 14.9646 0.997638
8435 2 2.99291 14.9646 0
8463 2 0.997638 16.9598 0
8464 2 0.997638 15.9622 0.997638
8465 2 0 16.9598 0.997638
8466 2 1.99528 15.9622 0
8953 2 0.997638 14.9646 1.99528
8954 2 2.99291 14.9646 1.99528
8981 2 0 15.9622 1.99528
8982 2 0.997638 15.9622 2.99291
8983 2 0 16.9598 2.99291
8984 2 1.99528 15.9622 1.99528
8985 2 2.99291 16.9598 1.99528
238 4 3.99055 14.9646 0.997638
241 4 5.98583 14.9646 0.997638
267 4 3.99055 15.9622 0
268 4 4.98819 15.9622 0.997638
269 4 5.98583 15.9622 0
270 4 6.98346 16.9598 0
271 4 5.98583 16.9598 0.997638
752 4 4.98819 14.9646 1.99528
753 4 6.98346 14.9646 1.99528
783 4 4.98819 15.9622 2.99291
784 4 5.98583 16.9598 2.99291
8438 2 4.98819 14.9646 0
8440 2 3.99055 14.9646 0.997638
8467 2 3.99055 15.9622 0
8468 2 4.98819 16.9598 0
8469 2 4.98819 15.9622 0.997638
8470 2 5.98583 15.9622 0
8958 2 6.98346 14.9646 1.99528
8960 2 5.98583 14.9646 2.99291
8986 2 3.99055 15.9622 1.99528
8987 2 4.98819 16.9598 1.99528
8988 2 4.98819 15.9622 2.99291
8989 2 3.99055 16.9598 2.99291
8990 2 6.98346 16.9598 1.99528
8991 2 6.98346 15.9622 2.99291
242 4 8.97874 14.9646 0
244 4 7.9811 14.9646 0.997638
272 4 7.9811 16.9598 0.997638
275 4 9.97638 16.9598 0.997638
756 4 8.97874 14.9646 1.99528
757 4 7.9811 14.9646 2.99291
758 4 9.97638 14.9646 2.99291
785 4 7.9811 15.9622 1.99528
786 4 8.97874 16.9598 1.99528
787 4 7.9811 16.9598 2.99291
788 4 9.97638 15.9622 1.99528
8471 2 8.97874 15.9622 0.997638
8472 2 7.9811 16.9598 0.997638
8961 2 7.9811 14.9646 2.99291
8964 2 9.97638 14.9646 2.99291
8992 2 7.9811 15.9622 1.99528
8993 2 7.9811 16.9598 2.99291
8996 2 9.97638 16.9598 2.99291
249 4 13.9669 14.9646 0.997638