ITEM: TIMESTEP
0
ITEM: NUMBER OF ATOMS
50688
ITEM: BOX BOUNDS pp pp pp
-20.3679009 59.912899
-22.2159996 65.355896
-22.2159996 65.355896
ITEM: ATOMS id type x y z VoronoiIndex1 VoronoiIndex2 VoronoiIndex3 VoronoiIndex4 VoronoiIndex5 VoronoiIndex6 VoronoiIndex7 VoronoiIndex8 VoronoiIndex9 AtomicVolume
9 1 -5.4580002 -12.9700004 3.3570001 0 0 0 0 12 0 0 0 0 10.826828
23 4 15.5799999 20.3600006 -0.6245 0 0 1 2 9 3 0 0 0 12.7607365
25 2 8.1809998 18.0400009 17.9500008 0 0 0 3 6 4 0 0 0 10.974373
57 5 8.988 -5.0380001 -19.4699993 0 0 0 1 10 2 0 0 0 11.5832625
71 2 3.7200001 16.3999996 -14.1300001 0 0 0 2 10 1 0 0 0 11.9314098
80 5 -0.3893 20.3899994 -15.8400002 0 0 0 3 7 1 1 0 0 12.2495489
81 4 17.0400009 -3.961 -9.1029997 0 0 0 0 12 0 0 0 0 10.8310128
82 5 -9.8389998 -15.96 -21.2000008 0 0 0 1 10 2 0 0 0 11.988574
86 4 -17.6499996 11.7600003 19.8700008 0 0 1 2 9 4 0 0 0 12.9921418
91 2 3.2790001 17.3199997 -9.8909998 0 0 1 1 9 2 2 0 0 12.3951302
93 2 -19.5100003 -4.908 -18.4500008 0 0 1 2 7 3 0 0 0 11.8196183
101 1 -3.728 -19.3400002 -4.349 0 0 0 1 10 3 0 0 0 12.2865563
102 2 -17.1800003 -15.8500004 -3.4040001 0 0 0 2 8 2 0 0 0 11.7813053
105 4 3.5799999 11.5 -16.0 0 0 0 2 8 3 0 0 0 11.9720012
110 5 -2.6760001 -18.7199993 2.6919999 0 0 0 0 12 3 0 0 0 12.9717456
112 2 14.8599998 -4.2449999 15.1700001 0 0 1 3 7 2 0 0 0 11.93777
128 5 -10.4099999 -12.8299999 6.935 0 0 0 2 10 2 0 0 0 12.2753496
141 5 5.1269999 6.7540002 -9.2729998 0 0 0 5 2 8 0 0 0 12.9401846
147 5 15.25 -2.939 10.3100004 0 0 0 2 8 6 0 0 0 12.95852
148 2 -18.5900002 18.7600003 4.704 0 0 1 3 4 5 1 0 0 12.4581375
157 4 0.1118 20.5400009 12.6400004 0 0 0 3 5 5 1 0 0 12.3670054
159 4 17.6200009 -3.2000001 15.0200005 0 0 0 3 6 4 0 0 0 11.9565812
168 5 7.5570002 -8.9890004 -15.1400003 0 0 1 0 9 3 0 0 0 11.4595795
171 2 0.2697 6.1539998 -10.1099997 0 0 0 0 12 0 0 0 0 11.1950932
174 4 -6.2010002 14.6800003 11.4799996 0 0 0 2 8 3 0 0 0 12.0308599
184 2 16.4099999 -2.0350001 12.6099997 0 0 1 2 7 3 0 0 0 11.5320721
186 5 14.6700001 11.7100001 -15.9799996 0 0 0 1 10 3 0 0 0 12.0604134
194 4 -19.3899994 11.9200002 -13.9200002 0 0 0 2 8 5 0 0 0 12.4965115
196 5 14.2799997 -8.2620001 -2.0810001 0 0 0 1 10 2 0 0 0 12.1531286
214 2 2.204 14.5799999 -17.9200002 0 0 0 3 8 2 0 0 0 11.4177818
217 2 -11.6300001 -7.0630002 19.3199997 0 0 0 1 10 2 0 0 0 11.4627352
220 2 -14.8400002 -20.2099991 -10.4099999 0 0 1 1 9 2 0 0 0 11.6567936
243 4 5.4590001 0.7265 13.9899998 0 0 1 3 5 5 0 0 0 12.0596905
244 5 15.6999998 -12.8599998 18.9799996 0 0 1 0 11 3 0 0 0 12.5930414
245 1 -6.5370002 3.2160001 -21.8700008 0 0 0 3 6 4 0 0 0 11.5467778
247 2 11.9700004 13.1400003 -5.0170002 0 0 0 2 8 2 0 0 0 11.7215243
254 2 -7.1500001 18.1100006 -7.007 0 0 0 0 12 0 0 0 0 11.5848723
258 2 -19.9799996 1.3710001 17.5599995 0 0 0 0 12 0 0 0 0 11.0849018
275 4 18.4099999 -0.9758 11.8599998 0 0 1 2 7 4 0 0 0 11.5532732
288 5 -9.1560001 12.9499998 21.4400006 0 0 0 2 8 2 0 0 0 11.4158688
291 4 -14.8100004 12.8199997 -14.2299996 0 0 0 2 8 4 0 0 0 12.4311352
295 4 -1.6260001 1.861 -9.5179997 0 0 0 1 10 4 0 0 0 12.0789261
299 5 0.6634 18.1299992 -19.4500008 0 0 0 1 10 2 0 0 0 11.9749766
302 5 -17.3799992 13.3000002 -8.3400002 0 0 0 0 12 0 0 0 0 11.7711706
313 5 3.7709999 -15.1199999 3.7149999 0 0 1 1 9 4 0 0 0 13.166626
314 5 -11.5900002 -21.2700005 3.56 0 0 0 1 12 2 0 0 0 12.5208121
327 4 0.928 -3.1889999 14.9399996 0 0 0 2 8 6 0 0 0 13.2970715
335 1 -7.829 17.1499996 -15.3699999 0 0 0 1 10 2 0 0 0 11.5479384
348 4 -6.4029999 1.93 11.8900004 0 0 0 1 10 2 0 0 0 12.2901697
360 4 16.1900005 -21.6900006 -7.5110002 0 0 0 2 8 7 0 0 0 13.7882471
364 4 -6.9970002 4.0710001 -15.5799999 0 0 1 2 7 5 0 0 0 14.0177908
387 4 19.6000004 -12.1199999 0.6292 0 0 0 0 12 2 0 0 0 12.2304821
397 1 -5.1269999 0.1032 19.1800003 0 0 0 0 12 0 0 0 0 10.9390574
401 4 -13.4200001 13.3599997 11.5699997 0 0 0 0 12 2 0 0 0 12.2605801
410 4 10.8999996 -4.6810003 7.4819999 0 0 0 0 12 0 0 0 0 11.2963228
412 1 -4.7890001 12.4099999 -7.7010002 0 0 1 0 9 3 0 0 0 11.7806235
415 2 -5.2810001 1.282 -13.1499996 0 0 0 3 6 4 0 0 0 11.1708613
419 2 8.8529998 -10.5200005 -11.0900002 0 0 0 4 4 6 0 0 0 12.5993424
420 5 13.8599998 -10.6400004 -10.5200005 0 0 1 2 7 3 0 0 0 12.3924589
432 5 5.5799999 8.6269999 8.4099999 0 0 0 1 12 1 0 0 0 12.1373749
438 4 -8.4930001 -19.75 16.3600006 0 0 1 2 7 4 0 0 0 12.2285433
439 4 -6.2719998 19.7299996 -15.9799996 0 0 0 5 6 3 0 0 0 13.3174133
442 4 6.533 16.4400006 -18.2600002 0 0 0 0 12 2 0 0 0 12.4639378
446 4 -16.2800007 5.9320002 3.757 0 0 0 1 10 2 0 0 0 11.0710382
453 4 3.5120001 0.3085 7.6220002 0 0 0 3 8 2 0 0 0 12.4322338
459 4 -7.6939998 0.8266 -21.0900002 0 0 0 0 12 3 0 0 0 13.5792856
477 5 -9.5360003 -4.3720002 -3.412 0 0 0 5 5 5 1 0 0 13.1100569
485 4 9.3450003 4.0359998 -15.3699999 0 0 0 1 12 1 0 0 0 11.8761054
515 5 3.8010001 -14.6400004 16.9599992 0 0 0 2 10 2 0 0 0 12.1530819
520 5 9.9130002 -17.3799992 11.6000004 0 0 0 4 8 2 0 0 0 12.6530466
527 5 -17.6399994 -10.5299998 18.1299992 0 0 0 0 12 2 0 0 0 11.8371344
533 4 13.0900002 4.4400001 -4.6900001 0 0 0 0 12 4 0 0 0 13.2319136
537 2 18.7999993 8.349 -9.4490004 0 0 0 2 8 1 0 0 0 11.0035877
539 2 -5.4120002 7.5720001 -21.8099995 0 0 1 1 9 0 2 0 0 11.4421854
540 5 -3.862 -17.7000008 0.4621 0 0 0 0 12 0 0 0 0 10.7079945
550 4 12.0699997 -10.8100004 12.3299999 0 0 1 1 9 3 0 0 0 11.8491678
562 2 7.737 -13.1199999 -21.9300004 0 0 0 3 6 4 0 0 0 10.9078322
564 4 17.5100003 -1.22 16.6800003 0 0 0 3 8 3 0 0 0 11.5958653
567 4 11.3400002 -14.4300003 20.8799992 0 0 0 0 12 0 0 0 0 11.1753082
576 5 -14.9899998 6.7230001 -16.7900009 0 0 0 0 12 0 0 0 0 11.4813309
585 4 15.3000002 -9.5509997 -11.9499998 0 0 0 1 10 3 0 0 0 12.3088741
603 5 -5.3699999 -19.2999992 -0.5509 0 0 0 1 10 2 0 0 0 11.616169
620 4 2.7579999 15.6700001 7.9330002 0 0 0 1 10 2 0 0 0 12.3636589
622 5 5.1389999 -5.566 5.198 0 0 0 0 12 2 0 0 0 12.2919111
642 4 -2.9920002 2.0599999 -20.1900005 0 0 0 3 10 2 0 0 0 12.9917422
643 5 18.0200005 -0.3483 -17.3999996 0 0 2 2 6 3 0 0 0 11.962061
653 4 4.7350002 -17.4599991 3.5309999 0 0 0 0 12 4 0 0 0 13.3756685
654 4 4.856 -9.132 -0.6418 0 0 0 0 12 2 0 0 0 12.6812172
656 4 10.5600004 -14.6199999 15.1199999 0 0 0 1 10 3 0 0 0 12.477067
665 4 -4.927 -7.402 -22.0400009 0 0 1 2 7 4 2 0 0 12.427619
666 4 -6.0050001 -11.1400003 -0.3483 0 0 0 1 10 4 0 0 0 12.8351145
673 2 12.25 5.3850002 12.5900002 0 0 0 0 12 0 0 0 0 11.6757345
679 4 10.8100004 12.96 17.4799996 0 0 0 2 10 0 0 0 0 10.9728394
683 5 -4.3020001 10.7600003 18.6700001 0 0 0 1 9 2 1 0 0 11.9396372
687 5 18.6599999 -10.4799996 19.8700008 0 0 0 2 8 3 0 0 0 11.4117775
694 5 -14.6599999 15.6099997 5.1599999 0 0 0 3 6 5 0 0 0 11.7667961
697 4 -17.1000004 17.7199993 19.3299999 0 0 0 1 10 4 0 0 0 12.813159
700 5 -18.1000004 -13.5500002 -9.276 0 0 0 0 12 2 0 0 0 12.4662733
706 5 -16.5300007 -0.8373 1.75 0 0 0 4 6 4 0 0 0 11.6153956
716 4 3.1429999 3.922 4.2259998 0 0 0 2 8 2 2 0 0 11.9183598
717 4 11.2100001 -20.2700005 1.92 0 0 0 0 12 4 0 0 0 13.5775347
728 5 7.8460002 0.02007 3.605 0 0 1 3 5 4 0 0 0 12.0343456
745 4 5.4460001 -15.8800002 -17.5200005 0 0 1 1 7 5 0 0 0 11.9113388
761 5 -3.2690001 11.6199999 -12.6899996 0 0 0 2 8 4 0 0 0 12.2228279
770 4 -14.1099997 -19.75 18.9599992 0 0 0 0 12 2 0 0 0 12.2232056
775 2 1.4910001 -14.2299996 21.4300003 0 0 0 2 10 0 0 0 0 11.6540451
781 4 -2.1359999 -20.3199997 -11.29 0 0 0 3 8 3 0 0 0 12.6018124
783 2 -19.6000004 17.8500004 16.3700009 0 0 1 2 7 3 0 0 0 10.9949218
787 2 -16.1299992 -12.1899996 14.8100004 0 0 0 0 12 0 0 0 0 11.2433987
798 5 -6.5669999 20.7099991 -3.81 0 0 0 1 10 4 0 0 0 12.317874
806 4 -5.112 3.787 16.6499996 0 0 0 3 8 3 0 0 0 13.0495567
821 5 -19.3999996 -14.6099997 -7.0830002 0 0 0 2 8 4 0 0 0 12.5888119
831 4 -17.4599991 -12.6300001 17.0499992 0 0 0 2 8 5 0 0 0 12.2307634
841 5 -10.6499996 21.3600006 -11.1400003 0 0 0 4 6 3 0 0 0 12.1694698
843 2 6.6339998 -4.2090001 -8.6110001 0 0 0 2 8 2 0 0 0 11.874382
864 2 8.8739996 -4.0609999 0.8816 0 0 0 2 8 2 0 0 0 11.4076815
897 5 9.4930001 -5.0450001 10.8599998 0 0 0 2 8 2 0 0 0 11.7765246
917 5 13.4300003 -13.8199997 20.2199993 0 0 0 0 12 0 0 0 0 11.7397957
947 5 -15.3699999 14.8000002 -12.4300003 0 0 1 4 4 3 1 0 0 12.874507
949 2 16.3400002 3.372 21.0200005 0 0 0 2 10 1 0 0 0 11.8506804
952 2 13.96 0.1068 0.8024 0 0 0 0 12 2 0 0 0 12.6329651
961 2 3.87 -20.9799996 -5.1849999 0 0 1 3 5 4 0 0 0 11.1113892
980 2 0.2222 19.8700008 16.8899994 0 0 0 0 12 0 0 0 0 10.9476434
990 4 9.0480003 -14.7399998 -20.3199997 0 0 0 0 12 2 0 0 0 11.8668948
996 5 17.9799996 -9.4549999 16.0100002 0 0 0 0 12 0 0 0 0 11.2279911
997 2 -18.2999992 14.6099997 -0.09596 0 0 0 2 8 1 0 0 0 11.0635128
999 4 3.1789999 9.3389998 -9.6789999 0 0 0 4 6 3 0 0 0 12.0311213
1009 5 10.1899996 10.8100004 17.8799992 0 0 0 0 12 0 0 0 0 11.0425959
1027 4 -2.1559999 -11.6599999 17.25 0 0 0 3 8 4 0 0 0 12.4732161
1034 4 15.4799996 7.007 -14.3500004 0 0 0 0 12 0 0 0 0 11.3266668
1039 5 11.8500004 10.2600002 -21.3400002 0 0 0 4 8 1 0 0 0 11.8653498
1040 1 11.4700003 -15.04 -20.5799999 0 0 0 0 12 0 0 0 0 11.0719271
1053 4 -13.3299999 -0.7474 0.2951 0 0 0 0 12 2 0 0 0 12.1936588
1068 5 -1.881 3.9860002 -2.5350001 0 0 0 0 12 2 0 0 0 12.8815908
1070 4 -19.0 -9.9399996 -17.9099998 0 0 0 1 10 4 0 0 0 12.7710905
1087 4 -12.1199999 16.8600006 -0.1593 0 0 0 1 10 3 0 0 0 12.5642796
1089 4 0.3904 -8.3369999 4.0289998 0 0 0 0 12 3 0 0 0 12.9652138
1091 5 3.29 -17.2999992 7.98 0 0 0 1 10 2 0 0 0 12.3200293
1094 5 12.6199999 2.0380001 19.1200008 0 0 0 2 10 1 0 0 0 11.8194886
1101 4 -3.27 -17.7299996 9.9720002 0 0 0 2 8 4 0 0 0 12.1246967
1111 4 -9.0019999 -18.9400006 20.6499996 0 0 0 3 8 4 0 0 0 13.4740801
1113 4 16.1100006 4.6240001 18.7999993 0 0 0 2 8 4 0 0 0 11.7593384
1127 2 -4.2839999 14.5500002 -2.927 0 0 0 0 12 0 0 0 0 11.3849754
1129 2 18.2800007 19.4699993 20.0100002 0 0 0 0 12 0 0 0 0 11.4005547
1143 5 -2.876 10.5500002 -0.2196 0 0 0 1 10 3 0 0 0 12.1266003
1147 4 -9.1499996 1.495 -10.7600003 0 0 2 2 6 4 2 0 0 13.5379524
1152 2 -7.3600001 -13.3900004 -7.672 0 0 0 1 10 3 0 0 0 11.5681353
1158 2 4.8839998 12.87 13.2299996 0 0 0 0 12 0 0 0 0 11.26717
1161 4 12.9899998 -1.86 -3.1989999 0 0 0 1 12 2 0 0 0 13.177352
1171 5 2.431 -1.505 13.9700004 0 0 0 2 8 2 0 0 0 10.8856422
1175 4 7.8920002 16.25 15.9499998 0 0 0 0 12 3 0 0 0 12.7896595
1179 2 -17.0200005 -20.7199993 -2.4519999 0 0 1 2 7 4 0 0 0 11.807848
1185 2 12.3100004 -4.6690002 -21.3600006 0 0 0 0 12 0 0 0 0 11.3894682
1190 2 -4.6640001 -16.3400002 -15.7700005 0 0 0 3 6 4 0 0 0 11.0390072
1191 4 -12.2799997 20.2700005 -12.54 0 0 0 3 8 2 0 0 0 11.5271864
1196 2 14.5100003 21.2700005 -18.8299999 0 0 1 2 5 4 0 0 0 10.9790984
1206 1 -16.2900009 19.4400006 10.5600004 0 0 1 3 6 2 1 0 0 11.708973
1207 5 12.1599999 17.8099995 18.1800003 0 0 0 1 10 2 0 0 0 11.5085602
1208 4 16.2099991 17.4400006 -4.8400002 0 0 0 2 8 4 0 0 0 12.3386574
1209 5 -19.7000008 16.0400009 -17.2800007 0 0 0 3 6 4 0 0 0 12.5888453
1212 4 12.7399998 -3.4130001 10.9899998 0 0 0 4 4 6 0 0 0 13.0334692
1216 1 10.8800002 21.0300007 -13.6000004 0 0 0 3 6 4 0 0 0 11.5000897
1217 5 -5.7859998 10.0299997 3.57 0 0 1 4 5 3 2 0 0 12.9830942
1226 4 12.1499996 18.6700001 -16.0799999 0 0 0 2 10 2 0 0 0 12.2050457
1232 4 -15.5600004 5.947 -8.6379996 0 0 0 0 12 3 0 0 0 12.79881
1246 4 11.3100004 10.3599997 -10.5699997 0 0 0 1 10 5 0 0 0 12.8150158
1249 2 -4.1329999 -8.8900004 21.1399994 0 0 0 2 8 2 0 0 0 11.6660462
1250 2 -4.81 10.5299998 6.2909999 0 0 2 2 7 3 1 0 0 12.6543484
1252 4 -10.4700003 -17.5699997 -19.4099999 0 0 0 3 8 3 0 0 0 11.9955406
1257 1 -19.5200005 -10.6899996 -14.0299997 0 0 0 0 12 0 0 0 0 10.9266958
1258 4 -16.6100006 17.0799999 11.3000002 0 0 0 2 10 2 0 0 0 12.7694454
1261 4 8.993 -1.942 -0.5049 0 0 1 1 8 4 1 0 0 12.8437424
1269 5 -9.8389998 -19.0599995 -6.6500001 0 0 0 1 10 3 0 0 0 12.2161694
1270 2 2.027 5.5720001 0.6782 0 0 0 1 10 2 0 0 0 11.5957785
1279 1 -19.75 3.4630001 -2.2950001 0 0 0 2 10 0 0 0 0 12.0731134
1295 4 2.129 -22.1800003 -3.872 0 0 1 1 9 2 2 0 0 12.9002838
1305 5 0.03743 16.4099999 13.9399996 0 0 0 2 8 4 0 0 0 12.316905
1306 5 -2.883 15.9300004 -8.8330002 0 0 1 1 9 3 0 0 0 12.0341558
1318 5 2.165 -3.382 -13.0 0 0 0 3 6 4 0 0 0 12.4128857
1325 4 18.3899994 21.2399998 3.883 0 0 0 1 10 3 0 0 0 12.6280155
1328 2 6.672 13.3000002 -5.198 0 0 0 2 10 0 0 0 0 11.5488901
1335 5 -1.102 -0.9351 20.4400006 0 0 1 1 8 3 1 0 0 12.5484257
1340 4 16.0100002 14.6599999 -0.3509 0 0 2 1 10 3 0 0 0 13.2494097
1352 4 -12.5500002 -20.8299999 17.5200005 0 0 0 0 12 3 0 0 0 12.6886864
1371 4 19.0599995 8.6219998 -1.485 0 0 1 1 9 3 0 0 0 11.6535244
1386 2 10.0799999 0.7427 4.5840001 0 0 0 4 4 6 0 0 0 12.2605209
1387 3 -16.2600002 10.1800003 21.2399998 0 0 0 1 10 3 0 0 0 11.9899292
1388 5 15.7200003 -3.4159999 -7.1770001 0 0 0 2 10 0 0 0 0 11.4815817
1393 4 7.3410001 -6.987 4.8000002 0 0 0 1 10 2 0 0 0 11.6300116
1400 2 -17.7099991 -6.0960002 21.2600002 0 0 0 1 10 2 0 0 0 11.7369423
1415 4 6.3740001 -13.9200002 -2.2379999 0 0 0 1 10 5 0 0 0 13.517313
1419 4 17.0599995 -18.0699997 -14.1099997 0 0 0 4 6 3 0 0 0 12.3201084
1431 4 -14.5500002 -8.04 2.4030001 0 0 0 0 12 4 0 0 0 13.2209234
1433 5 5.1350002 -5.54 15.4499998 0 0 0 4 4 7 0 0 0 12.6598921
1444 4 -2.424 1.052 10.9200002 0 0 0 2 8 5 0 0 0 12.6232996
1447 4 8.5699997 -20.5100003 14.4899998 0 0 0 0 12 3 0 0 0 13.3299503
1452 4 -5.3330002 -8.8879996 -19.4200001 0 0 1 1 9 4 0 0 0 12.3946114
1469 2 8.2040005 -17.6700001 -1.674 0 0 0 2 10 2 0 0 0 11.7474776
1471 5 -12.25 -20.1700001 -10.29 0 0 1 4 5 3 0 0 0 11.7666559
1487 4 6.9320002 -16.6900006 -9.04 0 0 0 3 8 4 0 0 0 13.3162623
1497 1 -19.7299996 -20.0900002 -19.1000004 0 0 0 3 6 3 0 0 0 11.3685532
1504 5 11.8800002 4.7620001 -16.6499996 0 0 1 3 5 5 0 0 0 12.6496973
1516 2 17.8400002 18.0799999 -3.062 0 0 0 3 6 3 0 0 0 10.9164392
1525 2 -18.9899998 -17.75 -11.0 0 0 1 3 7 2 0 0 0 11.9895068
1533 2 11.1499996 0.9071 -5.9910002 0 0 0 0 12 0 0 0 0 11.8301373
1534 4 8.7950001 15.1999998 0.901 0 0 0 3 9 2 1 0 0 12.998477
1543 1 -12.7100001 -16.4899998 5.5619998 0 0 0 3 8 2 0 0 0 11.9816856
1548 4 15.8599998 -16.3999996 16.4899998 0 0 0 3 6 5 0 0 0 13.2321577
1550 4 1.055 -14.5900002 -13.0 0 0 0 0 12 2 0 0 0 12.7696076
1561 4 -11.7600003 4.4400001 4.5390001 0 0 0 3 6 4 0 0 0 12.01124
1566 1 10.5699997 0.8834 -8.6230002 0 0 0 0 12 3 0 0 0 13.1284285
1581 2 5.8860002 8.389 -4.033 0 0 0 0 12 0 0 0 0 11.9535656
1585 3 -3.5580001 -19.6000004 14.7299996 0 0 0 0 12 0 0 0 0 11.4705382
1595 5 5.3699999 0.752 -12.5100003 0 0 0 4 6 4 0 0 0 12.7938633
1605 5 10.4700003 -5.9310002 0.01925 0 0 0 2 8 4 0 0 0 12.1273031
1618 4 1.877 -6.8530002 21.0200005 0 0 0 0 12 3 0 0 0 13.1460762
1622 4 9.356 13.8800002 -1.8170001 0 0 0 0 12 3 0 0 0 13.9014016
1625 4 11.8100004 -7.2020001 8.0970001 0 0 0 3 8 5 0 0 0 13.297925
1630 4 4.8530002 -16.9699994 12.5600004 0 0 0 1 10 2 2 0 0 13.1914549
1632 4 2.7200001 -5.7659998 -13.3599997 0 0 0 2 10 2 0 0 0 12.6199303
1637 4 -19.2299996 -17.9500008 11.8400002 0 0 0 0 12 2 0 0 0 12.6918392
1644 4 7.2870002 11.9799996 13.8100004 0 0 0 0 12 3 0 0 0 13.2962504
1648 4 -18.1599999 7.7709999 -4.3540001 0 0 1 2 8 3 1 0 0 12.6228142
1667 4 -3.536 7.9310002 -8.908 0 0 0 2 8 5 0 0 0 12.9960966
1672 4 13.7700005 -19.4099999 -20.1900005 0 0 0 2 8 4 0 0 0 12.8473826
1687 5 17.9500008 -0.8637 14.3400002 0 0 0 1 10 2 0 0 0 11.4248867
1700 5 13.1099997 11.7399998 20.3700009 0 0 1 2 7 4 0 0 0 12.1653605
1702 2 -18.3299999 -6.6290002 12.1899996 0 0 0 2 8 3 0 0 0 11.6646004
1705 1 2.3570001 -15.3599997 -0.2858 0 0 0 1 10 2 0 0 0 11.5377503
1707 4 18.6100006 4.4270001 -12.2700005 0 0 1 2 7 4 0 0 0 12.3715153
1712 2 18.4300003 -14.4899998 -20.4200001 0 0 1 0 9 3 0 0 0 11.3978167
1724 2 -0.3435 0.1228 -12.8000002 0 0 1 3 5 4 0 0 0 11.589592
1730 5 -1.069 -2.6960001 18.7099991 0 0 0 3 7 4 1 0 0 13.1727352
1733 1 -2.6329999 -15.5200005 18.9699994 0 0 0 0 12 0 0 0 0 11.2643824
1737 4 17.1299992 -20.6000004 -0.5334 0 0 0 0 12 0 0 0 0 11.1992197
1743 4 -1.3710001 -18.3799992 0.5981 0 0 0 0 12 2 0 0 0 12.8228426
1745 4 -10.0699997 -21.4799996 16.5699997 0 0 1 1 9 3 0 0 0 11.5348034
1750 4 3.0580001 3.7560001 -1.018 0 0 1 3 5 6 0 0 0 13.8817024
1751 4 2.1619999 -12.6000004 -3.445 0 0 0 4 5 6 1 0 0 12.5305929
1772 2 -5.8540002 21.2700005 -19.9799996 0 0 0 0 12 0 0 0 0 10.452919
1773 5 14.3599997 1.227 21.0599995 0 0 1 0 11 3 0 0 0 13.0138483
1776 2 -19.5699997 17.5699997 18.75 0 0 0 4 4 6 0 0 0 12.4440384
1792 1 -17.6399994 13.3999996 -19.9099998 0 0 0 0 12 0 0 0 0 11.3596869
1796 2 14.8900004 -8.4540005 -20.7099991 0 0 0 0 12 0 0 0 0 11.0899925
1803 2 17.9500008 -4.6900001 -6.8010001 0 0 0 2 8 4 0 0 0 11.7382469
1813 4 -12.1000004 -2.605 -8.533 0 0 0 1 10 4 0 0 0 12.4361811
1834 4 19.1200008 17.4400006 21.0599995 0 0 0 1 10 3 0 0 0 12.7794781
1837 4 -13.8900004 11.29 -19.1200008 0 0 1 1 11 3 0 0 0 13.2230597
1838 2 7.0580001 17.6100006 -2.8269999 0 0 0 1 10 2 0 0 0 11.0589333
1849 5 0.9415 -7.882 -12.9700004 0 0 0 4 8 2 0 0 0 12.3660813
1852 4 -18.1299992 -13.4799996 1.798 0 0 0 1 10 2 0 0 0 12.1755409
1853 2 19.6399994 21.0699997 -12.4700003 0 0 1 1 9 3 0 0 0 11.9351902
1854 4 19.1399994 -7.0960002 8.2720003 0 0 0 0 12 0 0 0 0 11.1715403
1860 2 -5.6599999 -5.329 -16.7399998 0 0 0 2 10 1 0 0 0 11.794178
1865 2 -13.1899996 -8.5360003 14.75 0 0 0 3 6 4 0 0 0 11.5120573
1868 4 -11.4399996 5.6599999 6.7610002 0 0 0 1 12 2 0 0 0 13.4367695
1873 4 18.4500008 -19.6499996 -8.2349997 0 0 0 0 12 2 0 0 0 12.0973806
1880 5 11.9700004 -19.5599995 20.1900005 0 0 1 1 9 3 0 0 0 11.972374
1890 4 -7.3990002 -21.0 7.6170001 0 0 0 1 10 1 2 0 0 12.0248699
1893 2 13.7299996 -11.2799997 0.947 0 0 1 0 9 3 0 0 0 11.8377638
1898 5 -11.4399996 17.0699997 21.2399998 0 0 0 0 12 0 0 0 0 11.4092522
1921 4 14.3100004 15.7799998 4.382 0 0 1 3 5 5 0 0 0 12.1586618
1925 2 18.3600006 -20.2299996 -15.5100003 0 0 0 2 8 2 0 0 0 11.1313849
1926 4 -1.37 7.125 -8.2650004 0 0 0 0 12 2 0 0 0 12.7792082
1928 4 -0.4376 5.586 1.108 0 0 0 2 8 4 0 0 0 12.8322783
1934 4 -2.533 16.3999996 -6.3470001 0 0 0 4 6 2 0 0 0 11.5030222
1935 4 8.5719996 -2.086 5.2989998 0 0 1 2 9 3 0 0 0 12.5265789
1938 4 -1.745 -3.313 -9.5979996 0 0 0 2 8 2 0 0 0 11.9747258
1943 5 -7.3720002 20.2399998 -18.3700009 0 0 0 3 8 2 0 0 0 11.8108588
1947 5 -3.6970001 0.8399 17.2399998 0 0 1 1 9 3 0 0 0 12.3017235
1948 4 -1.629 -4.8850002 -11.4600001 0 0 0 1 10 4 0 0 0 12.1242666
1954 5 -5.5619998 -10.7200003 13.9099998 0 0 0 1 10 2 0 0 0 12.0321169
1955 4 -18.25 -6.4899998 -20.4899998 0 0 0 4 5 5 1 0 0 12.6977473
1986 4 -3.0880001 9.6870003 12.1499996 0 0 0 3 6 4 0 0 0 11.9906836
1993 5 -8.8140002 -8.3640003 -17.3500004 0 0 0 1 10 2 0 0 0 11.863659
1996 4 -4.072 14.9499998 7.027 0 0 0 1 10 2 0 0 0 11.4310265
1998 2 -0.1726 3.1159999 7.152 0 0 0 2 8 3 0 0 0 12.4859295
2001 4 11.8000002 -5.79 5.1760001 0 0 0 2 7 4 1 0 0 13.1570406
2006 5 -9.8310004 -11.0699997 -20.2600002 0 0 0 6 3 5 1 0 0 12.8712282
2009 4 -7.48 -18.3099995 -1.475 0 0 0 0 12 2 0 0 0 12.4111977
2020 2 16.3299999 -3.227 3.876 0 0 2 5 2 5 0 0 0 12.0052824
2027 4 -1.03 -4.4520002 14.0900002 0 0 1 2 7 3 2 0 0 11.9219694
2028 2 -6.7140003 6.5679999 0.9849 0 0 0 1 10 2 0 0 0 12.1618843
2045 4 -18.3600006 -3.05 14.2200003 0 0 1 3 5 5 0 0 0 12.3204565
2050 2 -10.5100003 -20.2900009 -15.6700001 0 0 1 3 6 3 1 0 0 11.7688017
2052 5 -13.0 19.3299999 2.7609999 0 0 0 0 12 2 0 0 0 12.6811648
2055 4 10.5900002 -4.3140001 -10.3100004 0 0 0 4 6 3 1 0 0 13.1850281
2056 5 17.8400002 11.3199997 9.797 0 0 1 1 8 3 1 0 0 12.773242
2062 2 9.5030003 15.0500002 -15.5299998 0 0 0 3 6 4 0 0 0 11.3187246
2073 4 0.04503 -14.4300003 -19.4099999 0 0 0 0 12 3 0 0 0 12.4082193
2081 5 -12.6499996 -14.9099998 1.382 0 0 0 0 12 2 0 0 0 12.2353401
2082 2 18.0 15.5200005 11.5600004 0 0 0 2 10 0 0 0 0 11.6520186
2083 4 1.568 -19.6599999 -13.54 0 0 0 3 6 4 0 0 0 12.2007647
2087 5 -8.5290003 -9.0 -6.954 0 0 0 2 8 3 0 0 0 11.9374162
2093 5 -0.06086 -15.5500002 11.4099999 0 0 0 0 12 0 0 0 0 11.35816
2095 4 1.811 -10.2200003 -20.25 0 0 0 2 10 3 0 0 0 12.9144096
2096 5 -15.3000002 -5.368 13.0600004 0 0 0 5 2 6 0 0 0 11.503891
2107 5 -15.5900002 15.1400003 -6.6040001 0 0 0 4 5 6 1 0 0 14.3384867
2143 2 7.8740002 2.85 16.7800007 0 0 1 1 8 3 1 0 0 12.2935629
2154 4 18.3899994 14.3000002 -1.934 0 0 0 1 10 4 0 0 0 13.2426014
2160 2 13.4899998 8.8879996 2.6329999 0 0 0 3 6 3 0 0 0 11.4253626
2167 5 18.2600002 13.87 9.2589998 0 0 1 1 9 4 2 0 0 14.0961523
2176 5 9.4309998 12.8599998 0.8124 0 0 0 3 7 3 1 0 0 12.3338404
2178 4 -7.4229999 -20.1499996 -5.5580001 0 0 0 0 12 3 0 0 0 13.1985378
2180 5 -19.3400002 14.4600001 -4.955 0 0 1 0 9 3 0 0 0 11.0661135
2181 4 -7.6279998 8.1770001 15.6300001 0 0 0 0 12 2 0 0 0 12.3416186
2185 2 -11.3199997 -20.8600006 -7.1360002 0 0 1 3 5 4 0 0 0 11.4468212
2187 2 -2.5769999 9.3269997 18.2900009 0 0 0 1 10 2 0 0 0 10.9237662
2207 5 17.2000008 -9.1529999 -7.974 0 0 0 3 6 4 0 0 0 12.9463836
2212 4 -8.4989996 -5.7399998 -17.2099991 0 0 1 2 7 5 0 0 0 12.4352331
2241 4 7.5100003 -5.9699998 0.8271 0 0 0 0 12 2 0 0 0 12.3669729
2242 2 -18.9599992 -11.0200005 20.1800003 0 0 0 2 8 3 0 0 0 11.5091515
2274 1 -3.468 -19.7999993 0.6375 0 0 0 3 6 4 0 0 0 10.9560576
2290 4 -0.4203 -20.7399998 12.79 0 0 0 1 10 2 0 0 0 11.7320996
2291 2 -11.8999996 16.2299996 -14.8800002 0 0 0 2 8 3 0 0 0 11.8757992
2295 1 9.5109997 -2.855 18.2800007 0 0 0 4 4 4 0 0 0 11.8112717
2300 5 -18.3099995 -10.1099997 -11.79 0 0 0 1 10 3 0 0 0 12.5833645
2315 4 18.1800003 -0.1954 -21.4699993 0 0 1 2 9 1 0 0 0 11.6690016
2319 4 -19.1599999 14.0 9.3669996 0 0 0 2 10 2 0 0 0 12.3443174
2324 1 15.7299996 -10.2399998 10.4499998 0 0 0 4 4 5 0 0 0 12.2104254
2325 4 -13.7200003 -6.2160001 -6.5380001 0 0 0 0 12 2 0 0 0 12.4876452
2333 2 8.2480002 21.0400009 19.75 0 0 0 1 10 2 0 0 0 11.4217158
2334 5 -0.04016 8.4399996 14.9200002 0 0 0 5 2 6 0 0 0 12.7068758
2342 3 2.678 6.283 -15.9899998 0 0 0 2 10 1 0 0 0 12.347908
2346 4 -13.5799999 -1.998 4.4270001 0 0 0 1 10 5 0 0 0 13.2681971
2377 4 9.7229996 -20.3600006 20.8299999 0 0 0 0 12 0 0 0 0 10.7906389
2388 4 -3.744 6.7600003 -2.3139999 0 0 0 0 12 4 0 0 0 13.1717625
2389 2 -11.9099998 -16.0400009 -17.6800003 0 0 0 0 12 0 0 0 0 11.3055515
2400 2 -12.0600004 0.3099 20.5 0 0 1 4 3 4 0 0 0 11.469369
2409 5 -6.0689998 21.0100002 19.8199997 0 0 0 1 10 2 0 0 0 11.6325407
2414 1 2.6760001 7.0939999 15.2399998 0 0 0 2 10 1 0 0 0 12.5900507
2428 4 -6.1440001 14.4899998 13.9300004 0 0 0 2 8 3 0 0 0 11.6229248
2437 2 -10.3800001 10.0200005 18.6200009 0 0 0 2 10 0 0 0 0 11.2867956
2438 1 13.0100002 -10.2399998 -1.125 0 0 0 0 12 0 0 0 0 11.1890459
2440 4 14.5299998 -12.6800003 -1.106 0 0 0 3 8 5 0 0 0 13.7652149
2465 5 0.7158 -10.1499996 7.9780002 0 0 1 1 9 3 0 0 0 12.2759085
2476 1 15.4899998 -22.1800003 19.4500008 0 0 0 1 10 2 0 0 0 11.5390578
2480 4 14.0299997 11.3000002 -20.3799992 0 0 0 2 9 3 1 0 0 12.3234959
2490 4 -19.25 1.563 -19.7099991 0 0 1 3 5 4 0 0 0 12.5431376
2497 4 -18.7299996 16.7900009 0.9485 0 0 1 2 7 3 0 0 0 11.1276474
2502 4 -3.921 -10.7700005 -2.0209999 0 0 0 1 10 1 0 0 0 12.234107
2504 2 -6.7909999 -9.6169997 -14.3500004 0 0 0 0 12 0 0 0 0 11.3949833
2509 4 -8.5120001 17.4099999 -21.5499993 0 0 0 2 10 3 0 0 0 12.612526
2511 5 -4.7470002 6.625 -4.7319999 0 0 0 0 12 0 0 0 0 10.8140908
2519 4 10.7799998 -9.1490002 17.3500004 0 0 0 1 9 2 1 0 0 12.4973755
2520 4 6.2010002 -19.6900006 -6.0479999 0 0 0 1 12 2 0 0 0 12.4307871
2521 2 7.2459998 4.98 13.4300003 0 0 0 2 8 5 0 0 0 12.323885
2524 4 -17.2700005 4.027 -2.191 0 0 0 0 12 2 0 0 0 12.8894482
2526 2 -5.2459998 15.4499998 18.3099995 0 0 0 3 6 2 0 0 0 10.9808532
2534 5 -5.645 8.8079996 -17.3500004 0 0 0 3 6 6 0 0 0 12.2509537
2535 5 -3.0869999 -5.224 3.958 0 0 0 1 10 5 0 0 0 13.4173813
2577 3 1.282 -3.7130001 10.4200001 0 0 0 0 12 4 0 0 0 13.0104713
2582 2 3.3929999 13.6199999 -11.6400004 0 0 0 2 10 1 0 0 0 12.0793457
2590 4 -5.6799999 10.75 11.3100004 0 0 0 0 12 2 0 0 0 12.5689621
2592 3 -12.25 15.1300001 -20.8899994 0 0 1 3 5 5 0 0 0 11.7132492
2594 2 6.1220002 2.839 -17.2399998 0 0 0 2 6 4 0 0 0 12.1728087
2595 5 -14.7200003 -15.6800003 2.878 0 0 0 1 10 2 0 0 0 11.8031559
2600 1 12.5 18.2199993 10.7700005 0 0 0 3 6 4 0 0 0 12.3729143
2608 5 6.691 -10.4899998 10.3000002 0 0 0 2 8 4 0 0 0 12.6443262
2613 5 -7.8369999 -10.4700003 20.0200005 0 0 0 2 10 3 0 0 0 13.7507086
2615 2 12.5900002 -21.0699997 6.711 0 0 0 3 6 4 0 0 0 11.4389582
2623 3 -14.1099997 1.555 -20.5100003 0 0 0 1 9 2 1 0 0 12.548729
2644 2 -6.5970001 21.2299996 0.7639 0 0 0 2 8 2 0 0 0 12.1608553
2648 2 5.0219998 -6.0229998 -14.04 0 0 0 0 12 0 0 0 0 10.8791866
2651 4 17.8199997 -20.2399998 9.969 0 0 0 1 10 2 0 0 0 11.7039452
2659 4 19.4599991 -3.52 -8.6660004 0 0 0 0 12 2 0 0 0 12.2268477
2664 5 -18.9400006 -15.9799996 5.4640003 0 0 0 2 10 1 0 0 0 12.1411877
2672 2 -6.1729999 -15.3699999 10.9200002 0 0 0 3 6 3 1 0 0 12.2315016
2692 4 -12.6000004 -7.573 -4.8920002 0 0 0 2 10 0 0 0 0 11.1034718
2695 4 -19.5599995 18.3199997 -21.9400006 0 0 0 0 12 2 0 0 0 11.7123251
2697 1 -13.9700004 17.9500008 -1.876 0 0 1 2 9 2 0 0 0 12.6094284
2706 4 16.1299992 3.921 -12.6199999 0 0 0 1 10 2 0 0 0 12.570014
2715 4 9.165 -5.3860002 17.9500008 0 0 0 1 10 4 0 0 0 12.6198931
2719 4 4.4569998 -8.7100001 -11.3500004 0 0 0 2 8 4 0 0 0 12.6565418
2741 5 14.4099999 12.9099998 1.263 0 0 0 0 12 0 0 0 0 11.6247654
2771 5 11.3599997 -18.6399994 10.1099997 0 0 0 0 12 0 0 0 0 11.5056668
2773 2 12.7799998 -18.1000004 -15.3800001 0 0 0 1 10 2 0 0 0 11.7282934
2784 5 1.724 -20.8500004 2.122 0 0 1 1 7 5 0 0 0 12.0362625
2789 5 -15.87 -19.8099995 -22.1700001 0 0 0 3 8 3 0 0 0 12.5514212
2803 5 -6.2030001 -14.96 -8.8400002 0 0 0 3 5 4 1 0 0 12.4219847
2805 4 15.7100001 11.2299996 -2.7880001 0 0 0 1 10 4 0 0 0 13.5667258
2813 4 -5.3299999 -6.75 -10.3699999 0 0 0 1 10 4 0 0 0 13.3076649
2823 4 5.5949998 -21.7199993 20.1599999 0 0 0 0 12 2 0 0 0 13.0573721
2830 4 -3.6889999 21.4699993 10.9300004 0 0 0 6 4 4 0 0 0 12.4432698
2840 2 -3.973 18.9300004 3.428 0 0 0 4 8 2 0 0 0 12.8191099
2848 4 -0.8899 -8.3500004 6.5349999 0 0 0 2 8 5 0 0 0 12.6794596
2850 4 -1.755 3.6860001 10.9799996 0 0 0 0 12 0 0 0 0 11.3869887
2860 1 5.9780002 -1.2790001 -18.5699997 0 0 0 3 8 2 0 0 0 11.730115
2864 4 -3.6819999 17.25 21.1299992 0 0 0 1 10 2 0 0 0 11.8526126
2871 5 -7.1440001 15.1800003 -13.2600002 0 0 0 3 9 1 1 0 0 12.0139694
2878 2 4.1719999 -7.4790001 8.6479998 0 0 0 1 10 2 0 0 0 12.1918249
2889 2 -19.0599995 5.231 -15.5799999 0 0 0 2 8 3 0 0 0 11.4609766
2900 4 4.8520002 4.1300001 -21.4400006 0 0 0 2 10 1 0 0 0 11.7528897
2902 2 -18.3199997 -11.3900004 5.9369998 0 0 0 0 12 0 0 0 0 11.0443087
2906 4 -15.3100004 17.8799992 -20.4400006 0 0 0 3 6 6 0 0 0 13.2132626
2911 4 2.971 18.4200001 -12.3599997 0 0 0 0 12 2 0 0 0 11.8838216
2929 4 -9.816 -13.8000002 -14.5 0 0 0 2 8 4 0 0 0 12.5101786
2942 4 0.6216 -19.0499992 14.4200001 0 0 0 2 8 4 0 0 0 12.1286869
2961 4 4.4239998 -10.7200003 -9.8879996 0 0 0 1 10 2 0 0 0 11.8510742
2963 2 -17.0499992 -14.8000002 10.5699997 0 0 0 0 12 0 0 0 0 11.7971344
2993 4 15.9499998 21.2000008 -16.9799996 0 0 0 1 10 4 0 0 0 12.6747246
2994 4 -1.942 -9.29 -0.9643 0 0 0 1 10 1 1 0 0 12.1749821
2995 2 10.6499996 -2.6080001 14.8199997 0 0 0 2 8 2 0 0 0 11.7999306
2997 2 -13.3800001 -8.1350002 -21.1200008 0 0 0 2 10 0 0 0 0 11.5241518
2999 2 19.75 20.0900002 0.3098 0 0 2 3 3 3 1 1 0 11.4372177
3020 5 18.0900002 5.982 -19.1499996 0 0 0 3 8 3 0 0 0 12.1167727
3021 5 0.4053 -10.7100001 0.3872 0 0 0 2 8 4 0 0 0 12.8264742
3024 5 -1.1 7.184 -21.25 0 0 0 1 12 2 0 0 0 13.0604553
3025 2 -17.6000004 5.87 1.624 0 0 1 1 9 2 0 0 0 11.9080782
3048 4 5.152 10.54 14.3400002 0 0 0 0 12 3 0 0 0 13.3124628
3056 4 17.0100002 -15.8400002 -8.5039997 0 0 0 1 12 2 0 0 0 12.9913732
3066 2 -15.6700001 5.2069998 -12.6499996 0 0 0 0 12 0 0 0 0 11.7531042
3070 4 15.9200002 4.6209998 14.6199999 0 0 0 3 6 6 0 0 0 12.3848868
3072 4 -10.0500002 -4.5209999 -18.6599999 0 0 0 3 8 4 0 0 0 12.7970171
3083 4 -9.573 -10.2700005 -9.4359999 0 0 0 2 8 3 0 0 0 11.7207833
3109 5 -18.4799996 15.5200005 18.0 0 0 0 2 8 6 0 0 0 12.9079782
3110 2 7.3839998 17.0599995 2.0980001 0 0 0 1 10 0 0 0 0 11.2160664
3119 5 15.4700003 10.8299999 13.9300004 0 0 0 0 11 2 1 0 0 12.8151284
3123 5 -18.4699993 -18.8400002 19.9799996 0 0 1 3 5 7 0 0 0 12.5258675
3126 2 -10.5 -0.3937 18.6599999 0 0 2 4 5 5 1 0 0 13.3754482
3129 2 3.6270001 14.6800003 -7.1560001 0 0 1 2 7 2 0 0 0 11.5360174
3137 2 7.152 -3.3199999 -19.1000004 0 0 0 1 10 2 0 0 0 12.2203055
3142 2 -6.921 13.3299999 -17.1900005 0 0 0 0 12 2 0 0 0 12.4972563
3157 5 -16.2800007 14.8400002 -15.1800003 0 0 0 4 4 4 0 0 0 11.9330932
3169 5 -1.53 18.3700009 7.934 0 0 0 2 8 4 0 0 0 12.3120442
3174 4 -1.686 -3.777 16.3700009 0 0 1 3 5 4 0 0 0 12.1896563
3190 2 2.527 13.5200005 8.8050003 0 0 0 0 12 0 0 0 0 11.6281405
3193 2 19.5 2.596 9.559 0 0 0 0 12 0 0 0 0 11.378665
3204 1 -18.5 16.3199997 12.8199997 0 0 0 2 8 4 0 0 0 12.1341438
3219 4 -2.221 6.8039999 18.9300004 0 0 0 4 4 5 0 0 0 11.8613338
3231 5 13.6999998 18.7099991 3.1770001 0 0 0 2 10 2 0 0 0 13.0844927
3238 5 8.1490002 -21.7600003 19.0900002 0 0 0 1 10 4 0 0 0 13.1828823
3240 1 -11.1700001 20.3799992 -3.3870001 0 0 0 0 12 0 0 0 0 10.8646642
3242 2 1.209 0.3073 12.6300001 0 0 0 0 12 0 0 0 0 11.0388718
3248 4 -14.5600004 -5.9770002 6.8969998 0 0 0 0 12 3 0 0 0 13.2304821
3253 5 10.8999996 4.2930002 10.4200001 0 0 0 1 10 3 0 0 0 12.8005457
3257 4 6.5339999 -15.1400003 -21.1399994 0 0 0 0 12 0 0 0 0 11.5178118
3260 4 -16.8700008 -16.5900002 3.924 0 0 1 2 7 4 0 0 0 11.9326936
3274 2 -0.29 15.3000002 16.4799996 0 0 0 0 12 0 0 0 0 11.3149462
3278 4 19.4500008 -8.5550003 -18.5200005 0 0 1 0 9 3 0 0 0 12.0147591
3282 5 7.3309999 14.1199999 20.4400006 0 0 2 0 8 4 0 0 0 12.5055752
3283 4 -13.1499996 17.4400006 -21.8600006 0 0 1 3 7 3 0 0 0 12.6651964
3298 5 -1.4930001 -0.3512 8.6680002 0 0 1 0 9 3 0 0 0 11.7731991
3303 5 -2.023 -8.4390002 14.1300001 0 0 0 1 10 2 0 0 0 11.916977
3305 5 -18.6499996 10.3999996 -2.757 0 0 0 3 8 2 0 0 0 12.3704014
3308 2 -18.9500008 -5.8930002 -1.989 0 0 0 0 12 0 0 0 0 11.3221731
3313 2 1.591 -8.7840004 6.2140002 0 0 0 2 8 2 0 0 0 11.4841614