ITEM: TIMESTEP
0
ITEM: NUMBER OF ATOMS
16384
ITEM: BOX BOUNDS pp pp pp
0.0000000000000000e+00 4.6022131286196199e+01
0.0000000000000000e+00 4.6022131286196199e+01
0.0000000000000000e+00 4.6022131286196199e+01
ITEM: ATOMS id type x y z
1 4 0 0 0
2 4 1.44961 1.44961 0
5 4 2.89921 1.44961 1.44961
32 4 1.44961 2.89921 1.44961
8193 2 0 0 0
8194 2 1.44961 1.44961 0
8195 2 1.44961 0 1.44961
8196 2 0 1.44961 1.44961
8226 2 0 2.89921 0
8730 2 1.44961 1.44961 2.89921
8760 2 2.89921 2.89921 2.89921
3 4 4.34882 1.44961 0
4 4 4.34882 0 1.44961
7 4 5.79843 1.44961 1.44961
34 4 4.34882 2.89921 1.44961
36 4 5.79843 2.89921 0
558 4 5.79843 2.89921 2.89921
8197 2 4.34882 0 1.44961
8198 2 5.79843 0 0
8228 2 4.34882 2.89921 1.44961
8229 2 5.79843 2.89921 0
8732 2 4.34882 1.44961 2.89921
8735 2 5.79843 0 2.89921
6 4 7.24803 0 1.44961
10 4 8.69764 1.44961 1.44961
38 4 7.24803 2.89921 1.44961
561 4 8.69764 2.89921 2.89921
8199 2 7.24803 1.44961 0
8 4 10.1472 1.44961 0
9 4 10.1472 0 1.44961
11 4 11.5969 0 0
12 4 11.5969 1.44961 1.44961
41 4 10.1472 2.89921 1.44961
43 4 11.5969 2.89921 0
525 4 10.1472 1.44961 2.89921
528 4 11.5969 0 2.89921
8200 2 10.1472 1.44961 0
8201 2 13.0465 0 1.44961
8231 2 11.5969 2.89921 0
8232 2 13.0465 2.89921 1.44961
8740 2 11.5969 0 2.89921
46 4 15.9457 2.89921 1.44961
565 4 14.4961 2.89921 2.89921
8202 2 15.9457 0 1.44961
8203 2 14.4961 1.44961 1.44961
13 4 17.3953 0 0
48 4 17.3953 2.89921 0
50 4 18.8449 2.89921 1.44961
532 4 18.8449 1.44961 2.89921
568 4 17.3953 2.89921 2.89921
8204 2 17.3953 0 0
8205 2 18.8449 1.44961 0
8206 2 17.3953 1.44961 1.44961
8235 2 18.8449 2.89921 1.44961
8743 2 17.3953 0 2.89921
8744 2 18.8449 1.44961 2.89921
8770 2 17.3953 2.89921 2.89921
14 4 20.2945 0 0
15 4 21.7441 0 1.44961
16 4 20.2945 1.44961 1.44961
534 4 20.2945 0 2.89921
8207 2 20.2945 0 0
8208 2 21.7441 0 1.44961
8236 2 20.2945 2.89921 0
8746 2 20.2945 0 2.89921
8773 2 20.2945 2.89921 2.89921
17 4 23.1937 0 0
18 4 24.6433 1.44961 0
19 4 24.6433 0 1.44961
53 4 23.1937 2.89921 0
55 4 24.6433 2.89921 1.44961
57 4 26.0929 2.89921 0
536 4 23.1937 0 2.89921
537 4 24.6433 1.44961 2.89921
571 4 23.1937 2.89921 2.89921
575 4 26.0929 2.89921 2.89921
8209 2 24.6433 1.44961 0
8212 2 26.0929 1.44961 1.44961
8238 2 23.1937 2.89921 0
8748 2 23.1937 0 2.89921
8778 2 26.0929 2.89921 2.89921
20 4 27.5425 1.44961 0
21 4 27.5425 0 1.44961
540 4 28.9921 0 2.89921
8210 2 27.5425 1.44961 0
8211 2 27.5425 0 1.44961
8213 2 28.9921 0 0
8215 2 28.9921 1.44961 1.44961
8240 2 27.5425 2.89921 1.44961
8750 2 27.5425 1.44961 2.89921
22 4 30.4417 1.44961 0
23 4 31.8913 0 0
60 4 30.4417 2.89921 1.44961
541 4 31.8913 0 2.89921
8214 2 30.4417 0 1.44961
8217 2 31.8913 1.44961 1.44961
8242 2 30.4417 2.89921 1.44961
8243 2 31.8913 2.89921 0
24 4 33.3409 1.44961 0
62 4 33.3409 2.89921 1.44961
63 4 34.7906 2.89921 0
542 4 33.3409 1.44961 2.89921
8216 2 33.3409 1.44961 0
8218 2 34.7906 0 0
8220 2 34.7906 1.44961 1.44961
8245 2 34.7906 2.89921 0
8754 2 33.3409 1.44961 2.89921
8783 2 34.7906 2.89921 2.89921
25 4 36.2402 1.44961 0
26 4 39.1394 1.44961 0
65 4 36.2402 2.89921 1.44961
67 4 39.1394 2.89921 1.44961
543 4 36.2402 1.44961 2.89921
546 4 37.6898 0 2.89921
547 4 39.1394 1.44961 2.89921
583 4 37.6898 2.89921 2.89921
8219 2 36.2402 1.44961 0
8221 2 37.6898 0 0
8222 2 39.1394 0 1.44961
8223 2 37.6898 1.44961 1.44961
8246 2 36.2402 2.89921 1.44961
8247 2 37.6898 2.89921 0
8249 2 39.1394 2.89921 1.44961
8757 2 37.6898 0 2.89921
27 4 40.589 0 0
28 4 42.0386 0 1.44961
29 4 40.589 1.44961 1.44961
68 4 40.589 2.89921 0
8224 2 42.0386 0 1.44961
8251 2 40.589 2.89921 0
8787 2 40.589 2.89921 2.89921
30 4 43.4882 0 0
31 4 44.9378 1.44961 0
70 4 43.4882 2.89921 0
551 4 43.4882 0 2.89921
8225 2 43.4882 0 0
8252 2 43.4882 2.89921 0
8254 2 44.9378 2.89921 1.44961
8759 2 44.9378 1.44961 2.89921
33 4 0 4.34882 1.44961
35 4 2.89921 4.34882 1.44961
73 4 1.44961 5.79843 1.44961
553 4 1.44961 4.34882 2.89921
587 4 0 5.79843 2.89921
8227 2 1.44961 4.34882 0
8256 2 1.44961 5.79843 1.44961
8258 2 2.89921 5.79843 0
8790 2 0 5.79843 2.89921
8793 2 2.89921 5.79843 2.89921
39 4 5.79843 4.34882 1.44961
74 4 4.34882 5.79843 1.44961
555 4 4.34882 4.34882 2.89921
8260 2 5.79843 5.79843 0
8761 2 4.34882 4.34882 2.89921
37 4 7.24803 4.34882 0
42 4 8.69764 4.34882 1.44961
76 4 8.69764 5.79843 0
8230 2 7.24803 4.34882 0
8261 2 7.24803 5.79843 1.44961
8263 2 8.69764 5.79843 0
8762 2 7.24803 4.34882 2.89921
40 4 10.1472 4.34882 0
44 4 13.0465 4.34882 0
45 4 11.5969 4.34882 1.44961
77 4 10.1472 5.79843 1.44961
78 4 13.0465 5.79843 1.44961
562 4 10.1472 4.34882 2.89921
563 4 13.0465 4.34882 2.89921
592 4 11.5969 5.79843 2.89921
8265 2 11.5969 5.79843 0
8267 2 13.0465 5.79843 1.44961
8765 2 13.0465 4.34882 2.89921
47 4 14.4961 4.34882 1.44961
80 4 15.9457 5.79843 1.44961
566 4 15.9457 4.34882 2.89921
594 4 14.4961 5.79843 2.89921
8233 2 15.9457 4.34882 0
8268 2 14.4961 5.79843 0
8270 2 15.9457 5.79843 1.44961
8768 2 15.9457 4.34882 2.89921
49 4 18.8449 4.34882 0
51 4 17.3953 4.34882 1.44961
81 4 17.3953 5.79843 0
82 4 18.8449 5.79843 1.44961
569 4 18.8449 4.34882 2.89921
596 4 17.3953 5.79843 2.89921
8234 2 18.8449 4.34882 0
8771 2 18.8449 4.34882 2.89921
52 4 20.2945 4.34882 1.44961
598 4 20.2945 5.79843 2.89921
8237 2 20.2945 4.34882 1.44961
8804 2 20.2945 5.79843 2.89921
54 4 24.6433 4.34882 0
56 4 23.1937 4.34882 1.44961
59 4 26.0929 4.34882 1.44961
84 4 24.6433 5.79843 1.44961
572 4 24.6433 4.34882 2.89921
603 4 26.0929 5.79843 2.89921
8239 2 24.6433 4.34882 0
8241 2 26.0929 4.34882 1.44961
8274 2 23.1937 5.79843 0
8277 2 26.0929 5.79843 0
8776 2 24.6433 4.34882 2.89921
58 4 27.5425 4.34882 0
61 4 28.9921 4.34882 1.44961
576 4 27.5425 4.34882 2.89921
8279 2 27.5425 5.79843 1.44961
8281 2 28.9921 5.79843 0
87 4 30.4417 5.79843 1.44961
604 4 31.8913 5.79843 2.89921
8283 2 30.4417 5.79843 1.44961
8812 2 31.8913 5.79843 2.89921
89 4 33.3409 5.79843 1.44961
579 4 33.3409 4.34882 2.89921
8244 2 33.3409 4.34882 0
8285 2 34.7906 5.79843 0
8816 2 34.7906 5.79843 2.89921
64 4 36.2402 4.34882 0
66 4 39.1394 4.34882 0
582 4 36.2402 4.34882 2.89921
584 4 39.1394 4.34882 2.89921
8248 2 39.1394 4.34882 0
8250 2 37.6898 4.34882 1.44961
8287 2 39.1394 5.79843 1.44961
8784 2 36.2402 4.34882 2.89921
69 4 42.0386 4.34882 0
94 4 40.589 5.79843 0
8289 2 40.589 5.79843 0
71 4 44.9378 4.34882 0
72 4 43.4882 4.34882 1.44961
95 4 43.4882 5.79843 0
586 4 44.9378 4.34882 2.89921
609 4 43.4882 5.79843 2.89921
8253 2 44.9378 4.34882 0
8255 2 43.4882 4.34882 1.44961
8292 2 43.4882 5.79843 0
8789 2 44.9378 4.34882 2.89921
75 4 2.89921 7.24803 1.44961
99 4 1.44961 8.69764 1.44961
101 4 2.89921 8.69764 0
588 4 1.44961 7.24803 2.89921
8257 2 0 7.24803 1.44961
8295 2 0 8.69764 0
8296 2 2.89921 8.69764 0
8824 2 0 8.69764 2.89921
8826 2 2.89921 8.69764 2.89921
103 4 4.34882 8.69764 1.44961
104 4 5.79843 8.69764 0
590 4 4.34882 7.24803 2.89921
613 4 5.79843 8.69764 2.89921
8259 2 4.34882 7.24803 0
8262 2 5.79843 7.24803 1.44961
8298 2 4.34882 8.69764 1.44961
8299 2 5.79843 8.69764 0
8794 2 4.34882 7.24803 2.89921
8827 2 5.79843 8.69764 2.89921
105 4 7.24803 8.69764 1.44961
8264 2 8.69764 7.24803 1.44961
8301 2 8.69764 8.69764 0
107 4 10.1472 8.69764 1.44961
8266 2 13.0465 7.24803 0
8305 2 13.0465 8.69764 1.44961
8798 2 10.1472 7.24803 2.89921
8831 2 11.5969 8.69764 2.89921
79 4 15.9457 7.24803 0
108 4 14.4961 8.69764 0
110 4 15.9457 8.69764 1.44961
595 4 15.9457 7.24803 2.89921
618 4 14.4961 8.69764 2.89921
8269 2 15.9457 7.24803 0
8801 2 15.9457 7.24803 2.89921
111 4 17.3953 8.69764 0
112 4 18.8449 8.69764 1.44961
8271 2 18.8449 7.24803 0
8272 2 17.3953 7.24803 1.44961
83 4 20.2945 7.24803 1.44961
114 4 20.2945 8.69764 0
116 4 21.7441 8.69764 1.44961
599 4 21.7441 7.24803 2.89921
8273 2 20.2945 7.24803 1.44961
8309 2 20.2945 8.69764 0
8310 2 21.7441 8.69764 1.44961
86 4 26.0929 7.24803 1.44961
119 4 26.0929 8.69764 0
601 4 24.6433 7.24803 2.89921
623 4 23.1937 8.69764 2.89921
626 4 26.0929 8.69764 2.89921
8275 2 24.6433 7.24803 0
8276 2 23.1937 7.24803 1.44961
8280 2 26.0929 7.24803 1.44961
8312 2 23.1937 8.69764 0
8314 2 26.0929 8.69764 0
8805 2 24.6433 7.24803 2.89921
8835 2 23.1937 8.69764 2.89921
85 4 27.5425 7.24803 0
88 4 28.9921 7.24803 1.44961
121 4 27.5425 8.69764 1.44961
123 4 28.9921 8.69764 0
628 4 28.9921 8.69764 2.89921
8278 2 27.5425 7.24803 0
8315 2 27.5425 8.69764 1.44961
8316 2 28.9921 8.69764 0
8839 2 28.9921 8.69764 2.89921
90 4 31.8913 7.24803 1.44961
124 4 30.4417 8.69764 1.44961
8282 2 30.4417 7.24803 0
8317 2 31.8913 8.69764 0
8809 2 30.4417 7.24803 2.89921
92 4 34.7906 7.24803 1.44961
633 4 34.7906 8.69764 2.89921
8284 2 33.3409 7.24803 0
8813 2 33.3409 7.24803 2.89921
91 4 36.2402 7.24803 0
93 4 37.6898 7.24803 1.44961
126 4 36.2402 8.69764 1.44961
128 4 37.6898 8.69764 0
129 4 39.1394 8.69764 1.44961
8286 2 39.1394 7.24803 0
8288 2 37.6898 7.24803 1.44961
8319 2 39.1394 8.69764 1.44961
8817 2 36.2402 7.24803 2.89921
130 4 40.589 8.69764 0
8290 2 42.0386 7.24803 0
8291 2 40.589 7.24803 1.44961
8321 2 40.589 8.69764 0
8847 2 40.589 8.69764 2.89921
96 4 44.9378 7.24803 0
97 4 43.4882 7.24803 1.44961
610 4 44.9378 7.24803 2.89921
637 4 43.4882 8.69764 2.89921
8293 2 44.9378 7.24803 0
8294 2 43.4882 7.24803 1.44961
8323 2 43.4882 8.69764 0
8822 2 44.9378 7.24803 2.89921
98 4 1.44961 10.1472 0
100 4 0 10.1472 1.44961
132 4 1.44961 13.0465 0
640 4 1.44961 13.0465 2.89921
8326 2 1.44961 13.0465 0
8327 2 1.44961 11.5969 1.44961
8328 2 0 13.0465 1.44961
8329 2 2.89921 11.5969 0
8332 2 2.89921 13.0465 1.44961
8825 2 1.44961 10.1472 2.89921
8852 2 0 11.5969 2.89921
8853 2 1.44961 13.0465 2.89921
8856 2 2.89921 11.5969 2.89921
102 4 4.34882 10.1472 0
133 4 4.34882 13.0465 0
612 4 4.34882 10.1472 2.89921
8297 2 4.34882 10.1472 0
8330 2 4.34882 13.0465 0
8331 2 4.34882 11.5969 1.44961
8333 2 5.79843 11.5969 0
8335 2 5.79843 13.0465 1.44961
8857 2 4.34882 13.0465 2.89921
134 4 7.24803 11.5969 1.44961
135 4 8.69764 13.0465 1.44961
614 4 7.24803 10.1472 2.89921
8300 2 7.24803 10.1472 0
8303 2 8.69764 10.1472 1.44961
8334 2 7.24803 13.0465 0
8828 2 7.24803 10.1472 2.89921
8860 2 7.24803 13.0465 2.89921
106 4 10.1472 10.1472 0
136 4 11.5969 13.0465 1.44961
616 4 10.1472 10.1472 2.89921
8302 2 10.1472 10.1472 0
8304 2 13.0465 10.1472 0
8336 2 10.1472 13.0465 0
8337 2 13.0465 13.0465 0
8338 2 13.0465 11.5969 1.44961
8339 2 11.5969 13.0465 1.44961
8829 2 10.1472 10.1472 2.89921
8863 2 13.0465 13.0465 2.89921
109 4 15.9457 10.1472 0
137 4 14.4961 11.5969 0
138 4 15.9457 13.0465 0
8306 2 15.9457 10.1472 0
8340 2 14.4961 11.5969 0
8341 2 15.9457 11.5969 1.44961
8342 2 14.4961 13.0465 1.44961
8864 2 14.4961 11.5969 2.89921
113 4 17.3953 10.1472 1.44961
139 4 17.3953 11.5969 0
140 4 18.8449 13.0465 0
620 4 18.8449 10.1472 2.89921
8307 2 18.8449 10.1472 0
8308 2 17.3953 10.1472 1.44961
8343 2 18.8449 13.0465 0
8344 2 18.8449 11.5969 1.44961
8345 2 17.3953 13.0465 1.44961
8833 2 18.8449 10.1472 2.89921
8866 2 17.3953 11.5969 2.89921
8867 2 18.8449 13.0465 2.89921
115 4 21.7441 10.1472 0
117 4 20.2945 10.1472 1.44961
141 4 21.7441 13.0465 0
142 4 20.2945 13.0465 1.44961
621 4 21.7441 10.1472 2.89921
652 4 21.7441 13.0465 2.89921
8311 2 20.2945 10.1472 1.44961
8346 2 20.2945 13.0465 1.44961
8834 2 21.7441 10.1472 2.89921
8868 2 20.2945 11.5969 2.89921
8869 2 21.7441 13.0465 2.89921
118 4 23.1937 10.1472 1.44961
122 4 26.0929 10.1472 1.44961
143 4 24.6433 11.5969 1.44961
144 4 23.1937 13.0465 1.44961
147 4 26.0929 13.0465 1.44961
624 4 24.6433 10.1472 2.89921
654 4 23.1937 11.5969 2.89921
655 4 24.6433 13.0465 2.89921
657 4 26.0929 11.5969 2.89921
8313 2 24.6433 10.1472 0
8347 2 24.6433 13.0465 0
8348 2 23.1937 13.0465 1.44961
8350 2 26.0929 13.0465 1.44961
8836 2 24.6433 10.1472 2.89921
8870 2 24.6433 13.0465 2.89921
120 4 27.5425 10.1472 0
145 4 27.5425 13.0465 0
146 4 27.5425 11.5969 1.44961
148 4 28.9921 11.5969 0
150 4 28.9921 13.0465 1.44961
658 4 27.5425 13.0465 2.89921
8349 2 27.5425 11.5969 1.44961
8352 2 28.9921 13.0465 1.44961
8838 2 27.5425 10.1472 2.89921
8871 2 27.5425 13.0465 2.89921
149 4 30.4417 13.0465 0
629 4 30.4417 10.1472 2.89921
659 4 30.4417 13.0465 2.89921
660 4 31.8913 11.5969 2.89921
8318 2 31.8913 10.1472 1.44961
8351 2 30.4417 13.0465 0
8353 2 31.8913 11.5969 0
8355 2 31.8913 13.0465 1.44961
8840 2 30.4417 10.1472 2.89921
8874 2 30.4417 13.0465 2.89921
127 4 34.7906 10.1472 1.44961
151 4 33.3409 13.0465 0
152 4 34.7906 11.5969 0
154 4 34.7906 13.0465 1.44961
661 4 33.3409 13.0465 2.89921
662 4 34.7906 11.5969 2.89921
8354 2 33.3409 11.5969 1.44961
8356 2 34.7906 11.5969 0
8358 2 34.7906 13.0465 1.44961
8843 2 33.3409 10.1472 2.89921
125 4 36.2402 10.1472 0
153 4 36.2402 13.0465 0
155 4 37.6898 11.5969 0
156 4 39.1394 11.5969 1.44961
157 4 37.6898 13.0465 1.44961
663 4 36.2402 13.0465 2.89921
664 4 37.6898 11.5969 2.89921
8320 2 37.6898 10.1472 1.44961
8357 2 36.2402 11.5969 1.44961
8359 2 39.1394 11.5969 1.44961
8360 2 37.6898 13.0465 1.44961
8878 2 37.6898 11.5969 2.89921
158 4 40.589 11.5969 0
635 4 42.0386 10.1472 2.89921
667 4 40.589 11.5969 2.89921
668 4 42.0386 13.0465 2.89921
8322 2 40.589 10.1472 1.44961
8361 2 42.0386 13.0465 0
8848 2 42.0386 10.1472 2.89921
131 4 44.9378 10.1472 0
159 4 43.4882 13.0465 1.44961
8324 2 44.9378 10.1472 0
8325 2 43.4882 10.1472 1.44961
8362 2 43.4882 11.5969 0
8363 2 44.9378 13.0465 0
8364 2 44.9378 11.5969 1.44961
8365 2 43.4882 13.0465 1.44961
8851 2 44.9378 10.1472 2.89921
160 4 0 14.4961 0
161 4 1.44961 15.9457 0
162 4 1.44961 14.4961 1.44961
163 4 0 15.9457 1.44961
164 4 2.89921 14.4961 0
672 4 0 14.4961 2.89921
675 4 2.89921 14.4961 2.89921
8366 2 0 14.4961 0
8367 2 1.44961 15.9457 0
8368 2 1.44961 14.4961 1.44961
8369 2 0 15.9457 1.44961
8370 2 2.89921 14.4961 0
8373 2 2.89921 15.9457 1.44961
8880 2 0 14.4961 2.89921
8883 2 2.89921 14.4961 2.89921
165 4 4.34882 14.4961 1.44961
168 4 5.79843 15.9457 1.44961
676 4 4.34882 15.9457 2.89921
679 4 5.79843 14.4961 2.89921
8371 2 4.34882 15.9457 0
8372 2 4.34882 14.4961 1.44961
8374 2 5.79843 14.4961 0
8884 2 4.34882 15.9457 2.89921
8886 2 5.79843 14.4961 2.89921
166 4 7.24803 15.9457 0
167 4 7.24803 14.4961 1.44961
170 4 8.69764 15.9457 1.44961
680 4 7.24803 15.9457 2.89921
682 4 8.69764 14.4961 2.89921
8375 2 7.24803 15.9457 0
8887 2 7.24803 15.9457 2.89921
169 4 10.1472 14.4961 1.44961
171 4 11.5969 14.4961 0
172 4 13.0465 15.9457 0
173 4 13.0465 14.4961 1.44961
174 4 11.5969 15.9457 1.44961
683 4 10.1472 15.9457 2.89921
685 4 11.5969 14.4961 2.89921
686 4 13.0465 15.9457 2.89921
8376 2 10.1472 15.9457 0
8377 2 10.1472 14.4961 1.44961
8378 2 11.5969 14.4961 0
8379 2 13.0465 15.9457 0
8380 2 13.0465 14.4961 1.44961
8381 2 11.5969 15.9457 1.44961
8888 2 10.1472 15.9457 2.89921
8890 2 11.5969 14.4961 2.89921
8891 2 13.0465 15.9457 2.89921
175 4 14.4961 14.4961 0
176 4 14.4961 15.9457 1.44961
688 4 14.4961 14.4961 2.89921
689 4 15.9457 15.9457 2.89921
8382 2 15.9457 15.9457 0
8383 2 15.9457 14.4961 1.44961
8892 2 15.9457 15.9457 2.89921
177 4 17.3953 14.4961 0
178 4 18.8449 15.9457 0
691 4 18.8449 15.9457 2.89921
8384 2 18.8449 15.9457 0
8385 2 18.8449 14.4961 1.44961
8894 2 17.3953 14.4961 2.89921
8895 2 18.8449 15.9457 2.89921
179 4 21.7441 15.9457 0
8386 2 20.2945 14.4961 0
8387 2 21.7441 15.9457 0
8897 2 20.2945 14.4961 2.89921
180 4 26.0929 14.4961 0
182 4 26.0929 15.9457 1.44961
8388 2 23.1937 15.9457 1.44961
8898 2 24.6433 15.9457 2.89921
181 4 27.5425 15.9457 0
183 4 28.9921 14.4961 0
8389 2 27.5425 15.9457 0
8390 2 27.5425 14.4961 1.44961
8391 2 28.9921 14.4961 0
8899 2 27.5425 15.9457 2.89921
8902 2 28.9921 14.4961 2.89921
184 4 31.8913 14.4961 0
185 4 31.8913 15.9457 1.44961
698 4 31.8913 14.4961 2.89921
8392 2 30.4417 15.9457 0
8393 2 30.4417 14.4961 1.44961
8394 2 31.8913 15.9457 1.44961
8903 2 30.4417 15.9457 2.89921
699 4 33.3409 15.9457 2.89921
701 4 34.7906 14.4961 2.89921
8395 2 34.7906 14.4961 0
8397 2 34.7906 15.9457 1.44961
8906 2 34.7906 14.4961 2.89921
186 4 36.2402 14.4961 1.44961
187 4 39.1394 15.9457 0
188 4 39.1394 14.4961 1.44961
189 4 37.6898 15.9457 1.44961
702 4 37.6898 14.4961 2.89921
703 4 39.1394 15.9457 2.89921
8396 2 36.2402 14.4961 1.44961
8398 2 37.6898 14.4961 0
8399 2 39.1394 14.4961 1.44961
8400 2 37.6898 15.9457 1.44961
8907 2 36.2402 15.9457 2.89921
8909 2 37.6898 14.4961 2.89921
8910 2 39.1394 15.9457 2.89921
190 4 42.0386 15.9457 0
705 4 40.589 14.4961 2.89921
706 4 42.0386 15.9457 2.89921
8401 2 40.589 14.4961 0
8402 2 42.0386 15.9457 0
8913 2 42.0386 15.9457 2.89921
191 4 44.9378 15.9457 0
192 4 44.9378 14.4961 1.44961
709 4 43.4882 14.4961 2.89921
710 4 44.9378 15.9457 2.89921
8403 2 44.9378 15.9457 0
8916 2 43.4882 14.4961 2.89921
193 4 1.44961 18.8449 0
194 4 1.44961 17.3953 1.44961
195 4 0 18.8449 1.44961
196 4 2.89921 17.3953 0
711 4 0 17.3953 2.89921
712 4 1.44961 18.8449 2.89921
713 4 2.89921 17.3953 2.89921
8404 2 2.89921 17.3953 0
8405 2 2.89921 18.8449 1.44961
8918 2 0 17.3953 2.89921
8919 2 1.44961 18.8449 2.89921
8920 2 2.89921 17.3953 2.89921
197 4 4.34882 18.8449 0
198 4 5.79843 17.3953 0
201 4 5.79843 18.8449 1.44961
8406 2 5.79843 17.3953 0
8921 2 4.34882 18.8449 2.89921
8923 2 5.79843 17.3953 2.89921
199 4 7.24803 18.8449 0
200 4 7.24803 17.3953 1.44961
202 4 8.69764 17.3953 0
715 4 7.24803 18.8449 2.89921
718 4 8.69764 17.3953 2.89921
8407 2 7.24803 18.8449 0
8408 2 8.69764 17.3953 0
8409 2 8.69764 18.8449 1.44961
8924 2 7.24803 18.8449 2.89921
8926 2 8.69764 17.3953 2.89921
203 4 10.1472 18.8449 0
204 4 10.1472 17.3953 1.44961
205 4 13.0465 18.8449 0
206 4 13.0465 17.3953 1.44961
719 4 10.1472 18.8449 2.89921
721 4 11.5969 17.3953 2.89921
8410 2 11.5969 17.3953 0
8411 2 13.0465 18.8449 0
8412 2 11.5969 18.8449 1.44961
8927 2 10.1472 18.8449 2.89921
8928 2 11.5969 17.3953 2.89921
207 4 15.9457 18.8449 0
208 4 14.4961 18.8449 1.44961
723 4 15.9457 18.8449 2.89921
8413 2 14.4961 17.3953 0
8414 2 15.9457 17.3953 1.44961
8930 2 15.9457 18.8449 2.89921
209 4 17.3953 17.3953 0
210 4 18.8449 18.8449 0
8415 2 18.8449 18.8449 0
8416 2 18.8449 17.3953 1.44961
211 4 21.7441 18.8449 0
727 4 21.7441 18.8449 2.89921
8417 2 20.2945 17.3953 0
8418 2 21.7441 17.3953 1.44961
8933 2 20.2945 17.3953 2.89921
8934 2 21.7441 18.8449 2.89921
212 4 23.1937 17.3953 0
213 4 24.6433 18.8449 0
214 4 24.6433 17.3953 1.44961
215 4 23.1937 18.8449 1.44961
728 4 23.1937 17.3953 2.89921
729 4 24.6433 18.8449 2.89921
731 4 26.0929 17.3953 2.89921
8419 2 23.1937 17.3953 0
8420 2 24.6433 17.3953 1.44961
8421 2 26.0929 17.3953 0
8936 2 24.6433 18.8449 2.89921
8937 2 26.0929 17.3953 2.89921
216 4 27.5425 18.8449 0
217 4 27.5425 17.3953 1.44961
218 4 28.9921 17.3953 0
734 4 28.9921 17.3953 2.89921
8422 2 27.5425 18.8449 0
8423 2 27.5425 17.3953 1.44961
8424 2 28.9921 17.3953 0
8938 2 27.5425 18.8449 2.89921
219 4 30.4417 17.3953 1.44961
220 4 31.8913 17.3953 0
735 4 30.4417 18.8449 2.89921
8425 2 30.4417 18.8449 0
8427 2 31.8913 18.8449 1.44961
8941 2 30.4417 18.8449 2.89921
8943 2 31.8913 17.3953 2.89921
221 4 33.3409 18.8449 0
736 4 33.3409 18.8449 2.89921
739 4 34.7906 17.3953 2.89921
8426 2 33.3409 18.8449 0
8428 2 34.7906 18.8449 1.44961
222 4 36.2402 18.8449 0
223 4 36.2402 17.3953 1.44961
224 4 37.6898 17.3953 0
225 4 37.6898 18.8449 1.44961
740 4 36.2402 18.8449 2.89921
8429 2 39.1394 17.3953 1.44961
8944 2 36.2402 18.8449 2.89921
8947 2 37.6898 17.3953 2.89921
226 4 40.589 17.3953 0
227 4 42.0386 18.8449 0
228 4 40.589 18.8449 1.44961
743 4 42.0386 18.8449 2.89921
8430 2 42.0386 18.8449 0
8949 2 40.589 17.3953 2.89921
229 4 44.9378 18.8449 0
745 4 44.9378 18.8449 2.89921
230 4 0 20.2945 0
231 4 1.44961 21.7441 0
232 4 1.44961 20.2945 1.44961
233 4 0 21.7441 1.44961
236 4 2.89921 21.7441 1.44961
747 4 0 20.2945 2.89921
748 4 1.44961 21.7441 2.89921
750 4 2.89921 20.2945 2.89921
8431 2 0 20.2945 0
8432 2 1.44961 21.7441 0
8433 2 1.44961 20.2945 1.44961
8434 2 0 21.7441 1.44961
8952 2 0 20.2945 2.89921
8953 2 1.44961 21.7441 2.89921
234 4 4.34882 21.7441 0
235 4 4.34882 20.2945 1.44961
238 4 5.79843 21.7441 1.44961
8435 2 4.34882 21.7441 0
8436 2 4.34882 20.2945 1.44961
8437 2 5.79843 20.2945 0
8440 2 5.79843 21.7441 1.44961
8954 2 4.34882 21.7441 2.89921
8956 2 5.79843 20.2945 2.89921
237 4 7.24803 20.2945 1.44961
239 4 8.69764 20.2945 0
241 4 8.69764 21.7441 1.44961
752 4 7.24803 21.7441 2.89921
8438 2 7.24803 21.7441 0
8439 2 7.24803 20.2945 1.44961
240 4 10.1472 20.2945 1.44961
242 4 13.0465 21.7441 0
243 4 13.0465 20.2945 1.44961
244 4 11.5969 21.7441 1.44961
753 4 10.1472 21.7441 2.89921
755 4 11.5969 20.2945 2.89921
756 4 13.0465 21.7441 2.89921
8441 2 13.0465 20.2945 1.44961
8958 2 10.1472 21.7441 2.89921
8442 2 15.9457 21.7441 0
8443 2 15.9457 20.2945 1.44961
8962 2 14.4961 20.2945 2.89921
8963 2 15.9457 21.7441 2.89921
245 4 17.3953 20.2945 0
246 4 18.8449 20.2945 1.44961
759 4 17.3953 20.2945 2.89921
8444 2 18.8449 21.7441 0
8445 2 18.8449 20.2945 1.44961
247 4 21.7441 21.7441 0
248 4 21.7441 20.2945 1.44961
249 4 20.2945 21.7441 1.44961
8446 2 20.2945 20.2945 0
8965 2 20.2945 20.2945 2.89921
250 4 23.1937 21.7441 1.44961
251 4 26.0929 20.2945 0
765 4 26.0929 20.2945 2.89921
8447 2 23.1937 20.2945 0
8448 2 24.6433 21.7441 0
8449 2 26.0929 20.2945 0
8966 2 23.1937 20.2945 2.89921
8968 2 26.0929 20.2945 2.89921
252 4 28.9921 20.2945 0
8450 2 27.5425 20.2945 1.44961
8451 2 28.9921 20.2945 0
8969 2 27.5425 21.7441 2.89921
253 4 30.4417 20.2945 1.44961
767 4 30.4417 21.7441 2.89921
769 4 31.8913 20.2945 2.89921
8452 2 30.4417 21.7441 0
8453 2 30.4417 20.2945 1.44961
8454 2 31.8913 20.2945 0
8455 2 31.8913 21.7441 1.44961
8971 2 30.4417 21.7441 2.89921
254 4 33.3409 21.7441 0
8456 2 34.7906 20.2945 0
8458 2 34.7906 21.7441 1.44961
8974 2 33.3409 21.7441 2.89921
255 4 36.2402 21.7441 0
256 4 36.2402 20.2945 1.44961
257 4 37.6898 21.7441 1.44961
772 4 37.6898 20.2945 2.89921
773 4 39.1394 21.7441 2.89921
8457 2 36.2402 21.7441 0
8459 2 39.1394 21.7441 0
8976 2 39.1394 21.7441 2.89921
258 4 42.0386 21.7441 0
8460 2 42.0386 21.7441 0
8461 2 40.589 21.7441 1.44961
259 4 44.9378 20.2945 1.44961
776 4 43.4882 20.2945 2.89921
777 4 44.9378 21.7441 2.89921
8462 2 44.9378 21.7441 0
8980 2 44.9378 21.7441 2.89921
260 4 0 23.1937 0
261 4 1.44961 24.6433 0
262 4 0 24.6433 1.44961
263 4 2.89921 23.1937 0
266 4 2.89921 24.6433 1.44961
295 4 2.89921 26.0929 0
778 4 0 23.1937 2.89921
779 4 1.44961 24.6433 2.89921
781 4 2.89921 23.1937 2.89921
811 4 2.89921 26.0929 2.89921
8463 2 1.44961 24.6433 0
8464 2 1.44961 23.1937 1.44961
8465 2 0 24.6433 1.44961
8466 2 2.89921 23.1937 0
8495 2 0 26.0929 0
8981 2 0 23.1937 2.89921
8984 2 2.89921 23.1937 2.89921
9014 2 0 26.0929 2.89921
264 4 4.34882 24.6433 0
265 4 4.34882 23.1937 1.44961
267 4 5.79843 23.1937 0
814 4 5.79843 26.0929 2.89921
8467 2 5.79843 23.1937 0
8498 2 4.34882 26.0929 1.44961
8499 2 5.79843 26.0929 0
8985 2 4.34882 24.6433 2.89921
8986 2 5.79843 23.1937 2.89921
268 4 7.24803 23.1937 1.44961
269 4 8.69764 23.1937 0
271 4 8.69764 24.6433 1.44961
297 4 7.24803 26.0929 1.44961
817 4 8.69764 26.0929 2.89921
8468 2 7.24803 24.6433 0
8469 2 7.24803 23.1937 1.44961
8470 2 8.69764 23.1937 0
8987 2 7.24803 24.6433 2.89921
270 4 10.1472 24.6433 0
272 4 11.5969 24.6433 1.44961
299 4 10.1472 26.0929 1.44961
301 4 11.5969 26.0929 0
302 4 13.0465 26.0929 1.44961
785 4 11.5969 23.1937 2.89921
786 4 13.0465 24.6433 2.89921
8471 2 13.0465 23.1937 1.44961
8472 2 11.5969 24.6433 1.44961
8502 2 10.1472 26.0929 1.44961
8504 2 11.5969 26.0929 0
8506 2 13.0465 26.0929 1.44961
8990 2 10.1472 24.6433 2.89921
8992 2 11.5969 23.1937 2.89921
9019 2 11.5969 26.0929 2.89921
273 4 15.9457 24.6433 0
274 4 15.9457 23.1937 1.44961
275 4 14.4961 24.6433 1.44961
788 4 14.4961 23.1937 2.89921
819 4 14.4961 26.0929 2.89921
8473 2 15.9457 24.6433 0
8508 2 14.4961 26.0929 0
8994 2 15.9457 24.6433 2.89921
276 4 18.8449 23.1937 1.44961
277 4 17.3953 24.6433 1.44961
306 4 18.8449 26.0929 1.44961
789 4 18.8449 24.6433 2.89921
823 4 17.3953 26.0929 2.89921
8474 2 17.3953 23.1937 0
8510 2 17.3953 26.0929 0
278 4 20.2945 23.1937 0
279 4 20.2945 24.6433 1.44961
792 4 20.2945 23.1937 2.89921
825 4 20.2945 26.0929 2.89921
8513 2 20.2945 26.0929 0
8997 2 20.2945 23.1937 2.89921
8998 2 21.7441 24.6433 2.89921
9023 2 20.2945 26.0929 2.89921
280 4 23.1937 23.1937 0
281 4 24.6433 23.1937 1.44961
282 4 26.0929 23.1937 0
308 4 23.1937 26.0929 0
793 4 23.1937 23.1937 2.89921
828 4 26.0929 26.0929 2.89921
8475 2 23.1937 23.1937 0
8476 2 24.6433 24.6433 0
8477 2 24.6433 23.1937 1.44961
8478 2 26.0929 23.1937 0
8515 2 24.6433 26.0929 1.44961
9000 2 26.0929 23.1937 2.89921
9027 2 23.1937 26.0929 2.89921
283 4 27.5425 24.6433 0
284 4 27.5425 23.1937 1.44961
285 4 28.9921 24.6433 1.44961
797 4 28.9921 23.1937 2.89921
830 4 28.9921 26.0929 2.89921
8479 2 27.5425 24.6433 0
8480 2 28.9921 23.1937 0
8483 2 28.9921 24.6433 1.44961
8519 2 28.9921 26.0929 0
9003 2 28.9921 23.1937 2.89921
9030 2 28.9921 26.0929 2.89921
286 4 31.8913 23.1937 0
311 4 30.4417 26.0929 1.44961
798 4 31.8913 23.1937 2.89921
832 4 31.8913 26.0929 2.89921
8481 2 30.4417 24.6433 0
8482 2 30.4417 23.1937 1.44961
8485 2 31.8913 24.6433 1.44961
8520 2 30.4417 26.0929 1.44961
287 4 33.3409 24.6433 0
290 4 34.7906 24.6433 1.44961
314 4 34.7906 26.0929 0
799 4 33.3409 24.6433 2.89921
8484 2 33.3409 23.1937 1.44961
8523 2 34.7906 26.0929 0
9005 2 33.3409 24.6433 2.89921
9007 2 34.7906 23.1937 2.89921
9035 2 34.7906 26.0929 2.89921
288 4 36.2402 24.6433 0
289 4 36.2402 23.1937 1.44961
316 4 37.6898 26.0929 0
318 4 39.1394 26.0929 1.44961
801 4 36.2402 24.6433 2.89921
803 4 39.1394 24.6433 2.89921
837 4 37.6898 26.0929 2.89921
8486 2 36.2402 24.6433 0
8487 2 36.2402 23.1937 1.44961
8488 2 39.1394 24.6433 0
8489 2 39.1394 23.1937 1.44961
8490 2 37.6898 24.6433 1.44961
9008 2 36.2402 24.6433 2.89921
9009 2 39.1394 24.6433 2.89921
9038 2 37.6898 26.0929 2.89921
291 4 42.0386 23.1937 1.44961
320 4 40.589 26.0929 0
806 4 42.0386 24.6433 2.89921
8491 2 40.589 23.1937 0
8492 2 42.0386 24.6433 0
8525 2 40.589 26.0929 0
8526 2 42.0386 26.0929 1.44961
9011 2 40.589 23.1937 2.89921
292 4 44.9378 23.1937 1.44961
293 4 43.4882 24.6433 1.44961
808 4 43.4882 23.1937 2.89921
809 4 44.9378 24.6433 2.89921
8493 2 44.9378 23.1937 1.44961
8494 2 43.4882 24.6433 1.44961
9042 2 43.4882 26.0929 2.89921
294 4 1.44961 27.5425 0
323 4 1.44961 28.9921 1.44961
324 4 2.89921 28.9921 0
843 4 0 28.9921 2.89921
846 4 2.89921 28.9921 2.89921
8496 2 1.44961 27.5425 0
8528 2 0 28.9921 0
296 4 4.34882 27.5425 0
325 4 4.34882 28.9921 1.44961
812 4 4.34882 27.5425 2.89921
8497 2 4.34882 27.5425 0
8500 2 5.79843 27.5425 1.44961
8532 2 5.79843 28.9921 0
9015 2 4.34882 27.5425 2.89921
9049 2 5.79843 28.9921 2.89921
300 4 8.69764 27.5425 1.44961
326 4 7.24803 28.9921 1.44961
8503 2 8.69764 27.5425 1.44961
9053 2 8.69764 28.9921 2.89921
298 4 10.1472 27.5425 0
328 4 10.1472 28.9921 1.44961
329 4 11.5969 28.9921 0
852 4 11.5969 28.9921 2.89921
8501 2 10.1472 27.5425 0
8505 2 13.0465 27.5425 0
8507 2 11.5969 27.5425 1.44961
8536 2 13.0465 28.9921 1.44961
9018 2 10.1472 27.5425 2.89921
9020 2 13.0465 27.5425 2.89921
9055 2 11.5969 28.9921 2.89921
303 4 15.9457 27.5425 0
304 4 14.4961 27.5425 1.44961
332 4 14.4961 28.9921 0
820 4 15.9457 27.5425 2.89921
856 4 14.4961 28.9921 2.89921
8509 2 15.9457 27.5425 0
8537 2 14.4961 28.9921 0
8538 2 15.9457 28.9921 1.44961
305 4 18.8449 27.5425 0
334 4 17.3953 28.9921 0
8511 2 18.8449 27.5425 0
8512 2 17.3953 27.5425 1.44961
8540 2 17.3953 28.9921 0
8542 2 18.8449 28.9921 1.44961
307 4 21.7441 27.5425 0
338 4 21.7441 28.9921 1.44961
826 4 21.7441 27.5425 2.89921
860 4 20.2945 28.9921 2.89921
8545 2 21.7441 28.9921 1.44961
9024 2 21.7441 27.5425 2.89921
9063 2 20.2945 28.9921 2.89921
309 4 24.6433 27.5425 0
339 4 23.1937 28.9921 0
341 4 24.6433 28.9921 1.44961
343 4 26.0929 28.9921 0
8514 2 24.6433 27.5425 0
8516 2 23.1937 27.5425 1.44961
8518 2 26.0929 27.5425 1.44961
8546 2 23.1937 28.9921 0
8548 2 24.6433 28.9921 1.44961
9028 2 24.6433 27.5425 2.89921
312 4 28.9921 27.5425 1.44961
345 4 27.5425 28.9921 1.44961
346 4 28.9921 28.9921 0
866 4 28.9921 28.9921 2.89921
8517 2 27.5425 27.5425 0
8521 2 28.9921 27.5425 1.44961
8550 2 27.5425 28.9921 1.44961
310 4 30.4417 27.5425 0
347 4 31.8913 28.9921 0
870 4 31.8913 28.9921 2.89921
8552 2 30.4417 28.9921 1.44961
9031 2 30.4417 27.5425 2.89921
9069 2 31.8913 28.9921 2.89921
313 4 33.3409 27.5425 0
348 4 34.7906 28.9921 0
833 4 33.3409 27.5425 2.89921
8522 2 33.3409 27.5425 0
315 4 36.2402 27.5425 0
317 4 39.1394 27.5425 0
319 4 37.6898 27.5425 1.44961
349 4 36.2402 28.9921 1.44961
834 4 36.2402 27.5425 2.89921
838 4 39.1394 27.5425 2.89921
8524 2 39.1394 27.5425 0
8556 2 37.6898 28.9921 0
8557 2 39.1394 28.9921 1.44961
9076 2 37.6898 28.9921 2.89921
352 4 40.589 28.9921 0
354 4 42.0386 28.9921 1.44961
9040 2 42.0386 27.5425 2.89921
321 4 44.9378 27.5425 0
841 4 44.9378 27.5425 2.89921
874 4 43.4882 28.9921 2.89921
8527 2 44.9378 27.5425 0
9043 2 44.9378 27.5425 2.89921
9080 2 43.4882 28.9921 2.89921
322 4 1.44961 30.4417 0
357 4 0 31.8913 0
359 4 1.44961 31.8913 1.44961
361 4 2.89921 31.8913 0
844 4 1.44961 30.4417 2.89921
876 4 0 31.8913 2.89921
879 4 2.89921 31.8913 2.89921
8529 2 0 30.4417 1.44961
8531 2 2.89921 30.4417 1.44961
8561 2 0 31.8913 0
8562 2 1.44961 31.8913 1.44961
8563 2 2.89921 31.8913 0
9045 2 1.44961 30.4417 2.89921
327 4 5.79843 30.4417 1.44961
363 4 5.79843 31.8913 0
8530 2 4.34882 30.4417 0
8564 2 4.34882 31.8913 1.44961
8565 2 5.79843 31.8913 0
9046 2 4.34882 30.4417 2.89921
9085 2 5.79843 31.8913 2.89921
364 4 7.24803 31.8913 1.44961
365 4 8.69764 31.8913 0
849 4 7.24803 30.4417 2.89921
882 4 8.69764 31.8913 2.89921
8533 2 7.24803 30.4417 0
8566 2 7.24803 31.8913 1.44961
9050 2 7.24803 30.4417 2.89921
330 4 13.0465 30.4417 0
331 4 11.5969 30.4417 1.44961
366 4 10.1472 31.8913 1.44961
368 4 13.0465 31.8913 1.44961
851 4 10.1472 30.4417 2.89921
853 4 13.0465 30.4417 2.89921
8534 2 10.1472 30.4417 0
8535 2 13.0465 30.4417 0
8569 2 10.1472 31.8913 1.44961
8570 2 13.0465 31.8913 1.44961
9056 2 13.0465 30.4417 2.89921
333 4 15.9457 30.4417 0
370 4 15.9457 31.8913 1.44961