ITEM: TIMESTEP
0
ITEM: NUMBER OF ATOMS
50688
ITEM: BOX BOUNDS xy xz yz pp pp pp
-40.1340523 57.3048248 17.1707783
-43.8030052 43.8030052 0.0
-43.7915344 43.7915344 0.0
ITEM: ATOMS id type x y z VoronoiIndex1 VoronoiIndex2 VoronoiIndex3 VoronoiIndex4 VoronoiIndex5 VoronoiIndex6 VoronoiIndex7 VoronoiIndex8 VoronoiIndex9 AtomicVolume
2 2 -13.6800003 -18.9500008 -7.987 0 0 0 1 10 2 0 0 0 12.1321116
4 2 -31.2299996 -22.1599999 -18.0200005 0 0 0 1 10 2 0 0 0 12.1879835
15 4 -9.7340002 -25.0699997 -21.2999992 0 0 0 3 6 2 2 0 0 12.1713152
23 2 -18.6900006 -31.7900009 -14.2100001 0 0 0 0 12 0 0 0 0 11.4437409
33 1 -12.7200003 -5.164 -27.0699997 0 0 0 1 10 2 0 0 0 11.9407674
39 4 -25.5900002 -34.1199989 -41.8600006 0 0 0 0 12 2 0 0 0 12.5994444
45 4 -3.9330002 -15.2700005 -15.2200003 0 0 0 0 12 0 0 0 0 11.4274273
46 4 -28.7600003 -12.3500004 -43.4199982 0 0 0 1 10 4 0 0 0 12.4894629
68 4 -12.3699999 -10.4099999 -10.0200005 0 0 0 3 9 2 1 0 0 12.1450625
75 5 -2.296 -29.2299996 -36.1899986 0 0 0 1 10 4 0 0 0 12.3581782
88 5 -34.9700012 -31.5599995 -0.2628 0 0 0 2 8 2 0 0 0 11.5327864
90 4 -15.3100004 -42.9700012 -36.0999985 0 0 0 2 10 3 0 0 0 12.6240273
97 5 -21.8299999 -8.5050001 -0.5215 0 0 0 1 10 2 0 0 0 12.1091662
106 4 -15.1999998 -31.8899994 -2.4930001 0 0 0 1 10 2 0 0 0 12.4702406
109 4 -32.2400017 -10.1099997 -26.3700009 0 0 0 1 10 5 0 0 0 13.4082031
114 2 -12.5299998 -40.0900002 -6.6129999 0 0 1 2 7 3 0 0 0 11.623847
118 2 -6.6529999 -35.5400009 -30.4699993 0 0 0 0 12 0 0 0 0 11.4678135
119 4 -35.3699989 -21.2399998 -18.5300007 0 0 1 2 7 5 0 0 0 13.1233492
120 4 7.6269999 -3.2820001 -38.7000008 0 0 0 4 6 5 0 0 0 13.5966807
122 4 -3.244 -35.3699989 -32.9900018 0 0 0 0 12 3 0 0 0 12.8652544
141 4 -20.2900009 -10.6199999 -40.4700012 0 0 0 3 6 7 0 0 0 13.1559649
162 4 -3.876 -14.54 -34.5800019 0 0 0 2 9 3 1 0 0 13.9880514
164 1 -6.908 -8.4519997 -40.4500008 0 0 1 2 6 3 1 0 0 11.3828154
169 1 -0.7591 -12.5799999 -18.3799992 0 0 0 1 10 2 0 0 0 11.3394041
174 5 0.6301 -9.0220003 -29.3899994 0 0 0 2 7 2 1 0 0 11.9314452
187 4 0.6382 -10.6300001 -21.4899998 0 0 0 1 10 2 0 0 0 12.0048265
199 1 -9.8999996 -31.3199997 -27.3799992 0 0 0 3 6 4 0 0 0 11.6460858
205 4 4.1100001 -2.639 -33.6100006 0 0 1 1 8 3 1 0 0 11.573515
215 2 -34.6699982 -26.6000004 -43.5900002 0 0 0 2 8 2 0 0 0 11.479868
223 2 -6.4730001 -37.5 -22.9899998 0 0 0 1 10 2 0 0 0 12.2367764
227 4 -16.7800007 -6.5300002 -28.4699993 0 0 0 0 12 2 0 0 0 12.3056374
230 2 0.4283 -37.1599999 -10.3500004 0 0 0 0 12 0 0 0 0 11.5190039
237 2 -16.6800003 -38.2099991 -34.0800018 0 0 0 0 12 0 0 0 0 11.2485304
253 5 -2.1110001 -4.6090002 -34.4500008 0 0 0 3 8 3 0 0 0 13.0024242
254 4 -9.7180004 -25.1900005 -4.7199998 0 0 1 3 4 5 1 0 0 12.170207
258 2 -9.849 -37.4199982 -41.9199982 0 0 0 2 10 0 0 0 0 11.9220592
259 5 -6.698 -37.1399994 -34.7799988 0 0 1 0 9 3 0 0 0 12.3519869
286 3 -16.9500008 -33.0800018 -22.8700008 0 0 0 2 9 2 1 0 0 12.4933663
293 5 -19.8799992 -8.4510002 -43.7000008 0 0 0 3 6 2 2 0 0 11.8056278
297 5 -17.1800003 -8.3809996 -19.7800007 0 0 1 2 7 5 0 0 0 12.8160229
306 1 -1.275 -17.9099998 -1.392 0 0 0 3 6 4 0 0 0 11.523304
326 4 -26.3700009 -22.9599992 -9.4949999 0 0 0 0 12 2 0 0 0 12.2753172
330 4 3.3810001 -23.1599999 -25.2600002 0 0 1 3 4 5 1 0 0 12.4693737
338 5 -28.3199997 -33.7200012 -31.1399994 0 0 1 3 6 4 1 0 0 12.5927267
339 4 -5.401 -38.6500016 -10.4399996 0 0 0 3 6 6 0 0 0 13.0783949
349 4 -27.2199993 -42.1599999 -16.5900002 0 0 0 1 12 1 0 0 0 12.856389
350 4 -33.4799996 -14.9300004 -37.3499985 0 0 0 3 8 3 0 0 0 12.2572622
364 4 -7.0760002 -21.8199997 -42.6500016 0 0 0 1 10 2 0 0 0 11.6995888
382 4 3.832 -13.4200001 -17.0599995 0 0 0 2 10 2 0 0 0 13.1606188
387 3 -17.7900009 -23.8600006 -32.6599999 0 0 0 2 8 4 0 0 0 12.6370278
397 1 -10.54 -26.9500008 -24.5900002 0 0 0 1 10 2 0 0 0 11.6341515
403 4 -37.5800019 -33.4500008 -15.1000004 0 0 0 2 10 1 0 0 0 12.4685335
414 4 -11.79 -1.304 -7.8509998 0 0 1 3 7 4 0 0 0 12.1363478
415 4 -13.0900002 -2.684 -27.3899994 0 0 0 1 10 4 0 0 0 12.6521101
423 2 -28.2299996 -13.0600004 -26.3700009 0 0 0 1 10 2 0 0 0 11.8475084
424 3 -25.0699997 -37.6899987 -30.4599991 0 0 0 1 10 2 0 0 0 12.4345818
440 2 -13.3500004 -30.4799996 -36.5699997 0 0 2 2 5 3 1 0 0 12.3954077
444 2 4.665 -17.6700001 -40.2900009 0 0 0 0 12 0 0 0 0 10.9257774
449 4 3.072 -15.79 -39.7700005 0 0 0 1 10 3 0 0 0 12.7732878
454 4 5.3189998 -3.628 -39.7400017 0 0 0 0 12 4 0 0 0 13.5893994
461 2 -20.8099995 -1.337 -6.6290002 0 0 0 2 8 1 0 0 0 11.8879128
469 2 -7.7620001 -15.0299997 -6.4530001 0 0 0 3 6 6 0 0 0 11.5550671
477 2 -17.4400006 -18.8400002 -26.0699997 0 0 0 0 12 0 0 0 0 11.196372
478 5 -12.9499998 -9.7919998 -32.25 0 0 0 0 12 0 0 0 0 11.089674
483 4 -9.8039999 -6.9039998 -31.0300007 0 0 1 0 11 3 0 0 0 13.6622944
485 4 -15.7200003 -16.5200005 -4.3439999 0 0 0 3 6 4 0 0 0 11.6453848
495 4 -35.8600006 -24.6000004 -1.031 0 0 0 1 10 4 0 0 0 12.3858051
497 5 -6.0890002 -38.1300011 -42.5699997 0 0 0 2 8 2 0 0 0 11.954154
508 4 -25.8099995 -23.5599995 -13.8900004 0 0 0 1 10 2 0 0 0 12.1817541
511 4 -21.8899994 -23.0400009 -34.6800003 0 0 0 1 12 2 0 0 0 13.040554
514 2 -16.4400006 -23.2000008 -38.7700005 0 0 0 1 10 2 0 0 0 11.1802292
537 5 -19.0799999 -19.0200005 -14.6400004 0 0 0 5 4 5 0 0 0 11.7338677
544 3 -30.9699994 -12.9099998 -39.2999992 0 0 0 2 10 1 0 0 0 12.2104979
546 2 -16.0599995 -13.5900002 -33.7799988 0 0 0 0 12 0 0 0 0 11.28156
553 4 -35.3499985 -27.9200002 -5.264 0 0 0 0 12 3 0 0 0 13.0119162
554 5 -22.4500008 -39.0499992 -18.5400009 0 0 0 1 10 2 0 0 0 11.6696577
567 2 -12.0100002 -42.7299996 -18.0900002 0 0 1 3 7 3 0 0 0 12.0248709
574 4 -33.2700005 -24.5400009 -15.3999996 0 0 0 3 6 5 0 0 0 12.0163889
579 5 -22.4099999 -26.1700001 -23.8700008 0 0 0 1 12 2 0 0 0 12.7470017
581 5 0.6529 -39.3199997 -30.2199993 0 0 0 0 12 2 0 0 0 12.1045427
595 4 -6.2210002 -23.8199997 -24.6100006 0 0 0 1 10 2 0 0 0 12.0164089
621 2 -31.9799996 -32.8800012 -7.0149999 0 0 0 3 8 2 1 0 0 12.0290966
634 4 1.197 -0.2503 -11.1899996 0 0 0 1 10 4 0 0 0 12.4001522
644 2 -15.3000002 -8.5749998 -21.3299999 0 0 0 0 12 0 0 0 0 11.627039
661 2 0.8845 -26.6599999 -26.7800007 0 0 0 2 8 2 0 0 0 11.5180016
664 4 -6.2230001 -31.7199993 -37.6500016 0 0 0 2 10 2 0 0 0 12.193491
666 4 1.617 -32.3300018 -28.8299999 0 0 0 2 8 2 0 0 0 10.9086944
667 4 0.9699 -25.6000004 -6.777 0 0 0 1 10 2 0 0 0 13.2290774
670 4 -26.6100006 -19.9799996 -40.3300018 0 0 1 2 8 3 1 1 0 12.8469878
672 4 -3.596 -42.5999985 -26.4200001 0 0 0 3 8 3 0 0 0 11.6147957
683 4 1.0599999 -17.2999992 -0.3679 0 0 0 2 8 5 0 0 0 12.8840676
690 2 -22.3999996 -32.3499985 -36.8400002 0 0 0 4 4 5 0 0 0 11.6671286
699 4 -7.0489998 -22.1700001 -28.0499992 0 0 0 3 6 4 0 0 0 11.7221203
701 5 -20.2099991 -31.3099995 -3.1719999 0 0 0 2 8 7 0 0 0 14.1653614
702 5 -10.4300003 -34.3300018 -13.9499998 0 0 0 0 12 0 0 0 0 11.6949311
708 4 0.137 -2.948 -34.1599999 0 0 1 3 4 5 1 0 0 12.0467491
718 4 -20.8500004 -13.4099999 -30.6900006 0 0 0 0 12 2 0 0 0 12.2465449
731 4 -2.975 -20.4899998 -29.2900009 0 0 0 3 6 6 0 0 0 12.8502302
733 4 -18.6499996 -20.4300003 -24.3799992 0 0 1 1 9 3 0 0 0 12.4231377
740 2 -37.7400017 -37.7799988 -42.0699997 0 0 0 0 12 0 0 0 0 11.1484499
759 4 5.7719999 -2.23 -1.435 0 0 0 0 12 2 0 0 0 12.5073185
766 4 -28.7600003 -11.9799996 -12.79 0 0 1 1 9 5 0 0 0 13.1698179
773 2 -16.8700008 -24.9899998 -30.5100003 0 0 0 3 7 3 1 0 0 12.6231051
779 5 -14.9499998 -34.4599991 -18.5400009 0 0 0 4 6 4 0 0 0 12.4002085
782 2 1.17 -19.6100006 -9.0410004 0 0 0 3 6 3 0 0 0 11.7725668
783 5 -2.2920001 -26.3299999 -17.2099991 0 0 0 2 8 5 0 0 0 12.2287359
792 4 -3.559 -32.0 -36.2999992 0 0 1 3 7 5 0 0 0 13.2813187
804 2 -8.6079998 -2.247 -39.0999985 0 0 0 3 6 5 0 0 0 12.1339588
824 5 -29.3700009 -24.8600006 -1.9680002 0 0 0 1 10 3 0 0 0 12.3113556
827 2 -8.5059996 -36.5 -23.1200008 0 0 0 2 10 0 0 0 0 11.851925
839 2 -28.5200005 -41.7000008 -4.1440001 0 0 0 3 6 4 0 0 0 11.8821316
853 4 -31.7800007 -8.6590004 -28.6599999 0 0 0 3 8 3 0 0 0 12.9289312
857 5 -29.1800003 -15.7799998 -17.1499996 0 0 0 1 10 4 0 0 0 13.7772341
858 4 -23.3299999 -10.5200005 -4.2719998 0 0 0 1 11 4 1 0 0 14.4312382
864 4 -0.8246 -11.9700004 -27.4599991 0 0 0 1 10 4 0 0 0 13.0561657
867 1 -2.1259999 -28.2800007 -20.6599999 0 0 0 0 12 0 0 0 0 10.894516
900 2 4.973 -5.823 -43.4700012 0 0 0 0 12 0 0 0 0 10.7210779
912 5 -25.0200005 -43.1899986 -39.4900017 0 0 0 2 8 4 0 0 0 12.0411749
913 1 -11.75 -10.3100004 -24.5100003 0 0 0 3 6 4 0 0 0 11.8861476
918 4 -15.0 -17.8400002 -33.5200005 0 0 1 3 7 4 0 0 0 12.1645184
919 5 -4.329 -14.79 -9.1549997 0 0 0 3 6 4 0 0 0 12.3242026
925 2 7.4320002 -5.5879998 -18.4899998 0 0 0 4 6 3 0 0 0 12.0471077
927 5 -20.2299996 -24.9799996 -29.1100006 0 0 1 3 5 6 0 0 0 12.7485152
934 4 -20.7700005 -8.0419998 -25.6399994 0 0 2 3 4 5 2 0 0 14.1504574
935 2 -26.4599991 -5.6269999 -25.8999996 0 0 0 2 8 1 0 0 0 11.2024899
940 4 -0.9282 -41.25 -9.3240004 0 0 0 0 12 4 0 0 0 13.987507
949 2 -23.7800007 -5.1880002 -32.6599999 0 0 0 3 6 4 0 0 0 11.7859316
959 4 -22.6700001 -25.0400009 -9.3920002 0 0 0 1 10 2 0 0 0 12.1748638
961 2 -19.8199997 -40.3400002 -41.2299996 0 0 1 0 11 1 0 0 0 11.8431912
969 2 -31.3600006 -9.9849998 -12.0299997 0 0 0 2 8 4 0 0 0 12.0130348
979 2 -8.2440004 -14.6599999 -19.7199993 0 0 2 2 6 4 0 0 0 11.6978874
983 2 0.8393 -4.151 -8.5340004 0 0 0 3 6 5 0 0 0 11.61131
990 5 -27.6700001 -27.5 -42.2700005 0 0 0 2 8 4 0 0 0 12.50914
996 2 2.6960001 -21.5499993 -20.4300003 0 0 0 2 8 3 0 0 0 12.1139107
1001 4 -8.7609997 -19.7800007 -24.1599999 0 0 0 4 4 7 0 0 0 12.6462927
1016 2 -7.2410002 -30.1900005 -8.2889996 0 0 0 1 10 2 0 0 0 11.7112122
1033 2 -26.8199997 -34.2599983 -10.9700004 0 0 2 4 3 5 1 0 0 13.1349659
1044 5 6.4159999 -8.941 -32.6699982 0 0 0 3 8 3 0 0 0 12.9617082
1051 4 -15.6099997 -15.8299999 -18.9099998 0 0 0 0 12 0 0 0 0 11.3934345
1052 1 2.524 -13.6400004 -35.5900002 0 0 0 2 8 2 0 0 0 11.4723034
1064 5 -5.1199999 -20.1200008 -30.8700008 0 0 0 2 8 3 0 0 0 11.7183743
1065 2 -11.79 -18.9799996 -9.448 0 0 2 3 5 2 1 0 0 11.2673664
1084 1 2.379 -6.349 -33.5099983 0 0 0 0 12 0 0 0 0 11.4475146
1086 1 -19.1399994 -38.6699982 -23.8299999 0 0 0 2 8 2 0 0 0 11.3964911
1089 3 -30.9200002 -32.9399986 -38.25 0 0 0 1 10 4 0 0 0 12.7142802
1099 2 3.4230001 -2.4070001 -38.9199982 0 0 0 2 9 2 1 0 0 12.0891495
1102 1 -14.8100004 -36.2799988 -37.0600014 0 0 0 0 12 0 0 0 0 11.3527088
1110 2 -24.6599999 -20.9599992 -5.125 0 0 0 0 12 3 0 0 0 12.8300076
1119 5 5.4229999 -8.1140003 -5.5609999 0 0 0 2 9 2 1 0 0 11.980734
1122 4 -23.5599995 -24.6900006 -14.3900004 0 0 0 3 10 1 0 0 0 13.2606945
1131 2 -5.6290002 -2.3469999 -21.3799992 0 0 0 0 12 0 0 0 0 12.492631
1133 2 -13.4899998 -42.1399994 -7.8130002 0 0 1 2 7 4 0 0 0 12.0924215
1138 4 -35.9500008 -29.5499993 -0.9749 0 0 1 2 7 4 0 0 0 13.0955448
1163 2 -35.2299996 -18.9599992 -11.9300004 0 0 0 3 7 2 1 0 0 11.495656
1164 4 -2.553 -24.1399994 -31.2999992 0 0 0 3 6 6 0 0 0 13.888341
1166 5 -27.1599999 -29.6100006 -9.7139998 0 0 0 5 4 2 0 0 0 10.973074
1170 2 -7.895 -3.8440002 -17.4300003 0 0 0 3 5 3 1 0 0 11.594575
1178 1 -27.6599999 -33.8199997 -5.7090001 0 0 1 4 3 3 2 0 0 11.2217169
1195 5 -15.9399996 -38.9900018 -9.2980003 0 0 0 2 7 2 1 0 0 11.2077503
1198 5 -11.5100003 -34.5099983 -38.0400009 0 0 0 1 10 2 0 0 0 11.8106823
1209 2 -12.1099997 -5.8010001 -9.8710004 0 0 0 2 8 2 0 0 0 11.9329882
1211 5 -28.7800007 -23.2700005 -23.2099991 0 0 0 1 10 2 0 0 0 12.3803873
1219 5 -28.8500004 -32.5999985 -39.2000008 0 0 0 0 10 2 0 0 0 11.5639048
1226 2 1.26 -31.7800007 -36.5600014 0 0 0 1 10 2 0 0 0 12.0990887
1239 2 -18.5400009 -10.8000002 -19.9400006 0 0 1 0 9 3 0 0 0 11.5639849
1256 4 -13.96 -6.2649999 -8.474 0 0 1 0 10 4 1 0 0 13.9989252
1262 4 -31.0400009 -21.3600006 -13.6999998 0 0 0 2 8 5 0 0 0 13.3811665
1266 4 -2.579 -22.6000004 -38.0999985 0 0 1 2 6 5 1 0 0 12.699174
1274 4 0.4968 -28.3899994 -0.555 0 0 0 1 10 4 0 0 0 12.6478338
1279 4 0.6317 -22.6499996 -31.7800007 0 0 0 3 8 4 0 0 0 12.5917435
1286 5 -6.1040001 -10.9099998 -36.3100014 0 0 0 1 10 3 0 0 0 12.3590326
1289 2 -7.612 -10.4399996 -22.6700001 0 0 0 2 8 2 0 0 0 11.5728112
1299 2 -7.8509998 -16.2299996 -39.9799996 0 0 0 0 12 0 0 0 0 10.6691771
1303 4 -13.75 -19.3999996 -34.9300004 0 0 0 4 6 3 0 0 0 11.8760892
1304 5 -12.6700001 -18.6499996 -15.0500002 0 0 0 0 12 0 0 0 0 11.5992756
1306 5 -0.7645 -11.1400003 -29.9599992 0 0 0 2 8 3 1 0 0 12.1099186
1319 2 -23.5499993 -28.9500008 -1.847 0 0 0 4 4 6 0 0 0 11.3522053
1322 4 -4.4320002 -27.4300003 -3.645 0 0 0 3 7 5 1 0 0 13.4047775
1336 4 -8.8800002 -4.5029998 -23.4400006 0 0 0 4 4 6 0 0 0 12.3575869
1337 4 -14.6300001 -20.0499992 -37.0699997 0 0 0 2 8 4 0 0 0 12.6775027
1340 2 -31.1200008 -25.0699997 -38.9000016 0 0 0 2 8 2 0 0 0 11.5027704
1343 2 -23.0900002 -4.514 -35.0 0 0 0 3 5 4 1 0 0 11.960538
1347 4 4.1490002 -12.4200001 -37.0 0 0 1 3 5 6 0 0 0 12.4198447
1352 5 -10.75 -15.3699999 -42.9500008 0 0 1 3 5 6 0 0 0 12.4571018
1357 4 4.914 -13.1000004 -29.7600003 0 0 0 1 10 2 0 0 0 11.6991043
1372 2 -20.5300007 -22.5699997 -28.7299996 0 0 0 2 8 4 0 0 0 11.9894238
1385 5 1.082 -10.2600002 -33.7999993 0 0 0 4 6 3 0 0 0 11.3096514
1394 5 -3.3139999 -36.5499993 -25.8600006 0 0 0 2 8 4 0 0 0 11.9740258
1408 1 -24.0699997 -34.6800003 -8.3940001 0 0 1 4 5 3 0 0 0 11.607709
1414 2 -31.5499993 -21.7600003 -31.6800003 0 0 0 1 10 3 0 0 0 12.1030846
1415 2 3.7780001 -16.6700001 -5.9050002 0 0 0 0 12 0 0 0 0 10.7675905
1421 2 -21.75 -36.3899994 -32.8800012 0 0 0 1 10 2 0 0 0 11.5401716
1495 5 -16.1700001 -22.8899994 -6.6830001 0 0 1 1 9 4 0 0 0 12.9023038
1502 4 -5.4990001 -13.5699997 -38.8600006 0 0 1 3 5 5 0 0 0 12.1509113
1505 2 -26.6299992 -19.6399994 -43.1100006 0 0 0 4 5 4 1 0 0 12.2696791
1521 5 -16.7299996 -24.1100006 -2.727 0 0 0 1 10 2 0 0 0 12.1346026
1526 4 -15.75 -9.4280005 -35.4599991 0 0 0 0 12 3 0 0 0 13.4514866
1527 5 -20.4500008 -40.1300011 -35.9799996 0 0 0 4 4 8 0 0 0 13.4656382
1529 2 -17.3899994 -36.6100006 -26.3999996 0 0 0 3 6 3 0 0 0 12.1663599
1539 5 -29.6800003 -1.5670001 -30.2999992 0 0 0 5 6 3 0 0 0 12.3530502
1540 5 -0.639 -9.0799999 -22.9699994 0 0 0 1 10 4 0 0 0 13.9369222
1546 4 -13.3800001 -41.8400002 -38.5099983 0 0 1 3 5 7 0 0 0 13.0438108
1552 4 -37.6699982 -40.7599983 -29.8500004 0 0 0 2 10 2 0 0 0 12.3043375
1555 2 -14.9399996 -18.25 -42.4500008 0 0 0 1 10 2 0 0 0 12.434331
1563 5 -7.4689999 -30.2999992 -16.9200002 0 0 0 1 10 2 0 0 0 11.8328247
1566 5 -5.546 -7.7779999 -18.4500008 0 0 0 3 9 1 0 0 0 11.6216259
1581 4 6.1490002 -4.2969999 -24.7199993 0 0 0 0 12 0 0 0 0 10.9544202
1593 2 -22.8400002 -3.939 -28.9799996 0 0 0 0 12 0 0 0 0 11.1771326
1597 5 -5.2129998 -17.6599999 -9.1940003 0 0 0 1 10 3 0 0 0 12.0945625
1611 5 -14.5699997 -7.7909999 -0.1964 0 0 0 0 12 0 0 0 0 10.7990294
1617 4 -17.9200002 -2.4300001 -38.3600006 0 0 0 1 10 2 0 0 0 11.675292
1626 2 -20.8700008 -35.6699982 -27.7199993 0 0 1 2 6 3 1 0 0 11.4641876
1632 5 -5.3870001 -23.5799999 -33.5200005 0 0 0 2 10 4 0 0 0 12.9246942
1651 2 -2.52 -2.1630001 -6.8309999 0 0 0 2 8 2 0 0 0 11.3308792
1656 4 -9.3170004 -3.2190001 -19.2999992 0 0 0 1 10 2 0 0 0 11.2518511
1660 4 -31.7600003 -5.75 -25.6000004 0 0 0 0 12 2 0 0 0 12.3821697
1670 2 -26.5799999 -23.5900002 -24.7700005 0 0 0 1 10 2 0 0 0 11.6177321
1671 4 -4.1100001 -29.6700001 -34.7200012 0 0 0 1 12 1 0 0 0 12.3620052
1675 4 -3.579 -41.5499993 -28.9300004 0 0 0 3 6 6 0 0 0 12.6697359
1680 5 -4.2800002 -31.2600002 -23.2099991 0 0 0 1 10 2 0 0 0 12.0970182
1683 4 -27.1000004 -16.0699997 -38.5 0 0 0 0 12 2 0 0 0 12.379015
1686 5 -10.1999998 -17.7700005 -26.3400002 0 0 0 4 8 2 0 0 0 12.9532214
1687 2 -24.8400002 -31.0799999 -31.4599991 0 0 0 1 10 2 0 0 0 12.1176586
1700 2 0.2436 -32.1100006 -34.3899994 0 0 0 1 10 3 0 0 0 11.9866038
1707 4 -18.8400002 -29.0599995 -3.6670001 0 0 0 2 8 4 0 0 0 12.9623176
1713 4 4.3660002 -16.3299999 -22.9599992 0 0 1 0 9 3 0 0 0 11.7442284
1727 5 -17.8500004 -10.6999998 -15.75 0 0 0 4 6 5 0 0 0 13.1496477
1733 4 -11.0799999 -26.5799999 -27.0799999 0 0 0 1 12 1 0 0 0 12.422904
1741 3 -25.7199993 -36.3300018 -37.7599983 0 0 2 3 4 3 2 0 0 11.921547
1748 2 0.4309 -9.8459998 -15.5900002 0 0 1 3 5 5 0 0 0 12.2806053
1759 1 -17.7700005 -20.9300004 -6.4930001 0 0 0 0 12 0 0 0 0 11.2898064
1771 5 -16.8299999 -12.4099999 -14.3599997 0 0 0 3 6 4 0 0 0 12.532897
1772 2 -15.6199999 -9.5550003 -4.52 0 0 0 1 10 3 0 0 0 11.8654356
1786 2 -10.4300003 -17.4099999 -0.801 0 0 0 4 6 2 0 0 0 11.2206574
1795 2 -8.6590004 -8.6870003 -11.8000002 0 0 0 0 12 0 0 0 0 10.8088694
1796 4 -25.0 -4.2360001 -36.7000008 0 0 2 1 7 3 1 1 0 12.0241375
1798 5 -29.1700001 -19.8600006 -28.1599999 0 0 0 1 9 2 1 0 0 11.8228674
1804 5 -34.0400009 -15.1099997 -32.8199997 0 0 1 1 9 3 0 0 0 11.912261
1810 2 -28.9899998 -39.9000016 -31.8099995 0 0 0 0 12 0 0 0 0 11.0835047
1811 4 -2.5880001 -26.5599995 -43.1500015 0 0 0 1 10 2 0 0 0 11.7820549
1821 4 1.291 -29.5200005 -41.9799996 0 0 0 3 8 3 0 0 0 11.6001663
1834 1 -14.7700005 -26.8500004 -16.1299992 0 0 1 2 11 0 0 0 0 11.8312083
1835 2 -12.1800003 -2.7349999 -15.3299999 0 0 0 3 6 4 0 0 0 11.8062296
1840 5 -0.322 -38.8899994 -23.3999996 0 0 0 4 6 4 0 0 0 12.1251087
1844 2 -31.6299992 -42.0699997 -29.9500008 0 0 1 0 11 1 0 0 0 12.2510615
1849 5 -10.7200003 -31.7800007 -11.0500002 0 0 0 1 10 2 0 0 0 11.9183742
1850 4 -30.3299999 -28.1299992 -19.4699993 0 0 0 1 10 2 0 0 0 11.87848
1853 4 2.148 -18.1800003 -26.0900002 0 0 0 2 10 2 0 0 0 13.1986198
1855 2 -6.1170001 -36.1399994 -18.2999992 0 0 0 1 10 2 0 0 0 11.8116217
1870 5 -14.5699997 -30.5300007 -25.6100006 0 0 0 0 12 2 0 0 0 11.867941
1873 2 -0.1768 -41.9900018 -18.8700008 0 0 0 0 12 0 0 0 0 11.2758017
1876 4 -35.7799988 -29.3600006 -35.9000016 0 0 0 0 12 4 0 0 0 13.4772167
1893 4 -26.6700001 -7.3779998 -19.9400006 0 0 0 0 12 4 0 0 0 13.2296419
1914 2 -26.9699994 -6.1880002 -36.3199997 0 0 0 0 12 2 0 0 0 12.047102
1919 4 -7.362 -11.4899998 -1.929 0 0 0 1 10 4 0 0 0 12.2132559
1923 4 -7.8369999 -7.5240002 -9.4580002 0 0 0 2 8 3 0 0 0 12.1670351
1928 2 -31.3500004 -12.4499998 -12.1700001 0 0 0 3 6 5 0 0 0 11.9485656
1934 3 -28.6000004 -21.4400006 -21.9300004 0 0 0 3 8 2 0 0 0 12.1695509
1937 4 -37.0299988 -41.6599999 -25.0 0 0 2 1 7 4 1 0 0 12.1447268
1955 5 -20.2900009 -8.2950001 -8.573 0 0 1 3 5 5 0 0 0 12.0757666
1958 5 -28.3400002 -1.314 -10.8800002 0 0 0 0 12 0 0 0 0 10.7412987
1960 4 -30.5200005 -36.7700005 -14.9300004 0 0 1 2 7 2 2 0 0 11.79144
1967 4 -13.8299999 -9.2290001 -30.2900009 0 0 0 0 12 0 0 0 0 11.3164082
1980 2 -9.7200003 -14.7600003 -39.6800003 0 0 0 1 10 2 0 0 0 11.290308
1989 2 0.5097 -19.7399998 -12.7100001 0 0 0 2 8 2 0 0 0 11.431902
1996 5 -12.7799998 -0.0885 -43.6899987 0 0 1 0 9 3 0 0 0 12.1766529
2006 4 -24.0200005 -40.4900017 -38.3300018 0 0 0 1 10 5 0 0 0 14.0287914
2013 4 -13.3400002 -14.1199999 -1.384 0 0 0 2 8 4 0 0 0 12.8626404
2014 4 -14.9200002 -42.2900009 -9.8830004 0 0 0 3 6 3 0 0 0 11.3535147
2030 5 0.2665 -18.5900002 -14.9399996 0 0 0 1 10 2 0 0 0 11.4751807
2034 4 -30.2600002 -30.5 -39.2200012 0 0 0 0 12 2 0 0 0 12.3310385
2038 4 -2.073 -1.9910002 -34.7799988 0 0 0 2 10 4 0 0 0 12.5604286
2055 1 -3.955 -16.7000008 -40.619999 0 0 0 0 12 0 0 0 0 11.0816069
2062 4 -32.6699982 -33.9799996 -21.1399994 0 0 0 3 6 5 0 0 0 12.1862307
2079 4 -5.4270001 -11.54 -30.2099991 0 0 0 2 10 3 0 0 0 13.0052414
2085 4 -17.4899998 -38.5900002 -28.2399998 0 0 0 2 8 6 0 0 0 13.2453079
2090 2 -5.1630001 -20.9599992 -5.2540002 0 0 0 5 2 5 0 0 0 11.4017086
2108 1 -23.0 -16.4200001 -1.1440001 0 0 0 3 8 2 0 0 0 11.4175539
2110 1 -10.3000002 -19.0599995 -32.5800019 0 0 0 2 6 3 0 0 0 11.0122061
2118 5 -7.4130001 -14.4499998 -21.9500008 0 0 0 1 10 2 0 0 0 11.3737116
2131 5 0.607 -37.6100006 -35.1500015 0 0 0 2 8 5 0 0 0 13.2067127
2133 1 -19.1900005 -42.3100014 -42.3100014 0 0 1 0 11 1 0 0 0 11.1640129
2149 4 -17.7199993 -28.2299996 -37.9900018 0 0 0 2 10 2 0 0 0 12.9784576
2161 2 -17.1599999 -33.2999992 -8.4239998 0 0 0 3 6 4 0 0 0 11.5097962
2191 2 -24.1200008 -26.8199997 -1.344 0 0 0 2 10 1 0 0 0 11.6119089
2195 2 -25.8700008 -35.6300011 -15.4200001 0 0 0 0 12 0 0 0 0 11.2280769
2216 5 -16.2999992 -19.9899998 -30.1000004 0 0 1 2 9 2 0 0 0 12.2136488
2229 4 -32.2799988 -36.3400002 -25.4300003 0 0 1 1 9 3 0 0 0 12.0691137
2234 5 -33.0900002 -23.2999992 -32.75 0 0 2 3 4 3 0 1 0 11.3439522
2238 4 -26.6900006 -13.4899998 -14.2100001 0 0 0 0 12 0 0 0 0 11.4951716
2243 2 -19.0599995 -25.4400006 -15.7299996 0 0 0 0 12 0 0 0 0 10.9706584
2246 4 -27.3600006 -7.6170001 -5.0450001 0 0 0 0 12 2 0 0 0 12.3291006
2247 2 -20.7299996 -24.6299992 -19.2299996 0 0 0 1 10 2 0 0 0 11.2954207
2256 4 -15.7200003 -14.3100004 -43.5099983 0 0 0 3 7 3 1 0 0 12.5472374
2265 5 -8.2030001 -34.9000016 -17.25 0 0 0 2 8 3 0 0 0 12.0542908
2266 2 -9.8610002 -3.2190001 -25.0499992 0 0 0 3 6 4 0 0 0 12.0306282
2270 5 -23.7000008 -20.6599999 -34.2299996 0 0 1 2 9 1 0 0 0 11.8520336
2272 4 -23.2299996 -23.6100006 -39.4700012 0 0 0 2 8 3 0 0 0 12.2589331
2277 5 -15.8000002 -28.3099995 -42.4000015 0 0 1 1 9 2 2 0 0 11.9722062
2282 4 -33.2400017 -37.3300018 -6.3140001 0 0 0 3 8 5 0 0 0 13.1483126
2283 4 -4.9310002 -14.5699997 -21.6700001 0 0 0 1 10 2 0 0 0 11.3524284
2287 4 -27.0900002 -7.2420001 -15.6499996 0 0 0 1 10 3 0 0 0 11.8590594
2288 4 -17.7700005 -2.0220001 -22.6100006 0 0 0 0 12 0 0 0 0 11.2392016
2294 4 -28.2099991 -5.368 -38.4599991 0 0 1 3 7 3 0 0 0 12.5642882
2295 5 -24.9099998 -25.5799999 -38.9300004 0 0 0 0 12 2 0 0 0 12.3688574
2298 4 -21.25 -21.1399994 -14.1800003 0 0 0 3 6 5 0 0 0 11.5867586
2309 4 -16.7099991 -12.2299996 -23.1599999 0 0 1 1 8 4 1 0 0 12.5645447
2313 4 -11.0699997 -35.0699997 -4.2620001 0 0 1 4 7 2 0 0 0 12.6262226
2320 4 -1.546 -43.3600006 -36.6699982 0 0 0 2 10 3 0 0 0 13.0510769
2322 1 -24.5200005 -14.54 -10.9399996 0 0 0 1 10 2 0 0 0 11.6273718
2346 5 -13.1099997 -19.5300007 -39.2299996 0 0 0 1 10 2 0 0 0 11.9968806
2347 4 -30.2099991 -2.161 -1.094 0 0 0 1 10 2 0 0 0 12.1494541
2355 4 -1.12 -20.6100006 -37.3400002 0 0 0 3 6 5 0 0 0 12.8564626
2365 2 -3.7330001 -8.3000002 -26.7900009 0 0 0 1 10 2 0 0 0 11.2893686
2388 4 -25.2900009 -30.4899998 -8.3789997 0 0 0 4 8 2 0 0 0 12.8692636
2394 2 -20.7199993 -6.56 -6.9060002 0 0 0 2 8 4 0 0 0 11.5257559
2397 2 3.8210001 -0.07313 -35.2999992 0 0 0 3 6 4 0 0 0 11.7272387
2412 5 -36.3100014 -38.1899986 -9.856 0 0 0 2 8 5 0 0 0 12.9468862
2414 1 -19.0599995 -37.4399987 -7.5060001 0 0 0 0 12 0 0 0 0 11.3476925
2423 5 -4.7709999 -17.8299999 -31.7399998 0 0 1 2 7 3 0 0 0 11.9057408
2427 4 2.6099999 -24.0 -17.2199993 0 0 0 2 10 1 0 0 0 12.0227213
2446 5 -11.3800001 -11.1000004 -18.6299992 0 0 0 3 6 4 0 0 0 11.4954109
2457 1 -38.7099991 -40.9799996 -12.8599998 0 0 1 0 11 1 0 0 0 11.1265965
2464 4 -21.9799996 -34.5999985 -14.6099997 0 0 1 1 9 2 0 0 0 11.6902809
2466 4 4.6030002 -7.3520002 -33.1800003 0 0 0 3 8 4 0 0 0 12.9224348
2469 5 -6.9699998 -6.4089999 -36.8400002 0 0 0 0 12 3 0 0 0 12.7942133
2479 4 -12.4399996 -3.727 -8.4899998 0 0 0 0 12 2 0 0 0 12.4072886
2482 2 0.3923 -26.1000004 -4.4590001 0 0 0 3 8 2 0 0 0 11.8730098
2492 2 -5.2100001 -12.4799996 -27.9300004 0 0 1 1 9 3 0 0 0 11.8674974
2499 4 -14.25 -38.4599991 -0.4778 0 0 1 3 6 4 1 0 0 12.7115059
2506 2 -15.9399996 -36.8899994 -11.1999998 0 0 0 1 9 2 1 0 0 12.087203
2507 2 -30.9200002 -40.2799988 -33.3199997 0 0 1 1 8 3 1 0 0 11.9657022
2509 4 -17.9300004 -11.5100003 -41.3300018 0 0 0 4 6 3 0 0 0 12.3049669
2515 4 -17.2900009 -0.6874 -10.1899996 0 0 1 1 11 2 0 0 0 12.9838344
2536 5 -18.7299996 -3.454 -26.2399998 0 0 0 4 6 3 0 0 0 11.9077892
2537 5 -0.6629 -10.8900004 -25.0799999 0 0 0 0 12 0 0 0 0 11.382762
2542 2 -6.5710001 -19.5499993 -37.7400017 0 0 0 1 10 3 0 0 0 11.9647084
2543 4 3.3169999 -19.9599992 -29.7299996 0 0 1 3 5 5 0 0 0 12.3346834
2545 2 -19.9599992 -20.5599995 -37.4799996 0 0 0 1 10 2 0 0 0 11.4897595
2570 2 -24.3799992 -28.1399994 -38.1800003 0 0 0 0 12 0 0 0 0 12.5486193
2574 4 -28.8099995 -1.3020001 -26.0499992 0 0 0 2 8 4 0 0 0 12.1447926
2585 3 -31.6299992 -5.4299999 -3.4200001 0 0 1 2 7 4 0 0 0 12.1571178
2593 4 -22.0400009 -29.0400009 -38.9900018 0 0 0 0 12 3 0 0 0 13.3498345
2603 5 4.4600001 -17.8700008 -19.2099991 0 0 0 0 12 0 0 0 0 11.4495993
2606 4 -10.8500004 -31.9300004 -8.8690004 0 0 0 3 6 4 0 0 0 11.4615259
2614 4 -28.9300004 -15.9399996 -3.964 0 0 0 2 8 3 0 0 0 12.9781694
2620 4 -7.941 -25.7700005 -6.4710002 0 0 0 3 6 5 0 0 0 11.6406508
2621 2 -0.9652 -2.5350001 -19.2000008 0 0 0 3 6 4 0 0 0 11.0168324
2634 2 -26.7299996 -32.0800018 -9.7659998 0 0 0 4 8 0 0 0 0 11.7717676
2635 2 -30.3799992 -20.8500004 -3.062 0 0 1 2 6 2 1 1 0 11.7622786
2640 4 6.5900002 -7.6129999 -14.8299999 0 0 0 1 10 5 0 0 0 13.3862829
2646 5 -18.4099999 -29.0599995 -10.5299998 0 0 0 0 12 3 0 0 0 13.1062965
2659 2 -30.8899994 -24.0799999 -24.3199997 0 0 0 3 8 2 0 0 0 12.0178661
2665 5 -21.7199993 -19.2700005 -41.6399994 0 0 0 3 6 4 0 0 0 12.6430826
2685 5 3.4560001 -6.7909999 -21.1200008 0 0 0 0 12 5 0 0 0 14.1268473
2690 4 -19.8899994 -2.8310001 -4.8540002 0 0 1 2 8 2 1 0 0 12.4644099
2691 2 1.4220001 -3.4470001 -2.2420001 0 0 0 1 10 2 0 0 0 10.965993
2694 4 -22.0300007 -33.9500008 -33.0299988 0 0 0 1 10 2 0 0 0 12.4122992
2704 5 -6.401 -6.6820002 -39.1500015 0 0 2 4 5 2 1 0 0 11.8686018
2711 5 -8.4600001 -16.4400006 -16.0100002 0 0 0 3 6 4 0 0 0 10.980649
2713 2 -28.1399994 -20.7999993 -41.6800003 0 0 0 2 7 1 1 0 0 10.7059765
2717 2 -28.8899994 -26.6000004 -40.3499985 0 0 0 3 6 6 0 0 0 11.8412294
2721 2 -2.7650001 -15.0600004 -31.2000008 0 0 0 5 3 3 1 0 0 11.5299235
2740 1 -3.4519999 -18.4599991 -2.3110001 0 0 0 1 10 2 0 0 0 11.8248673
2741 4 0.1508 -36.8199997 -22.0100002 0 0 1 2 7 5 0 0 0 13.6298895
2749 4 -11.2799997 -16.9099998 -36.4900017 0 0 0 1 10 2 0 0 0 11.4855337
2764 2 -28.7000008 -35.1599999 -2.132 0 0 0 0 12 0 0 0 0 11.0759907
2765 5 -2.8870002 -15.4700003 -5.5549999 0 0 0 3 5 2 3 0 0 12.2446995
2766 4 -27.1399994 -24.0499992 -27.1800003 0 0 2 3 4 6 0 0 0 12.6417332
2769 4 -24.0699997 -29.5400009 -14.6599999 0 0 0 3 6 4 0 0 0 11.7889986
2778 4 -19.9599992 -29.7900009 -17.6399994 0 0 1 3 4 5 1 0 0 11.8201685
2783 4 -14.7399998 -29.0499992 -21.6599999 0 0 0 3 7 4 1 0 0 12.8119431
2802 5 -34.1800003 -26.6100006 -13.9899998 0 0 0 4 4 7 0 0 0 12.0250244
2818 4 -31.6800003 -15.79 -18.1399994 0 0 0 2 9 3 1 0 0 13.4466334
2823 2 -23.8700008 -29.3999996 -16.9699994 0 0 0 3 6 4 0 0 0 11.4565525
2825 5 -17.2600002 -9.9630004 -21.9699994 0 0 0 0 12 1 1 0 0 12.9527122
2832 4 -25.8700008 -1.916 -1.196 0 0 0 1 10 4 0 0 0 13.2642279
2834 5 -26.2299996 -32.1300011 -12.2600002 0 0 0 1 10 2 0 0 0 11.772852
2836 4 -22.6599999 -13.1700001 -25.7299996 0 0 0 1 10 3 0 0 0 13.3218775
2839 5 -28.7099991 -16.1399994 -1.267 0 0 0 2 8 5 0 0 0 12.6524143
2861 4 -13.9300004 -33.3199997 -31.2000008 0 0 0 2 8 3 1 0 0 12.8537112
2863 5 -29.5499993 -35.25 -38.5600014 0 0 1 1 8 4 1 0 0 11.7463475
2878 2 -14.9799996 -17.8500004 -14.4799996 0 0 0 0 12 2 0 0 0 12.2000256
2884 2 -21.1299992 -32.4799996 -18.9899998 0 0 0 1 10 2 0 0 0 10.7216807
2910 4 -24.9599992 -1.35 -23.6700001 0 0 0 1 10 4 0 0 0 13.1211348
2919 5 3.478 -21.4599991 -42.4399987 0 0 0 0 12 0 0 0 0 11.3579474
2945 5 -7.0819998 -22.7800007 -17.6700001 0 0 0 0 12 0 0 0 0 11.2269888
2954 5 -24.8099995 -34.6500016 -39.3800011 0 0 2 3 6 2 2 0 0 12.3911362
2956 2 -22.25 -32.4500008 -28.5100003 0 0 0 3 6 4 0 0 0 11.9254266
2962 4 0.9223 -11.7700005 -40.0499992 0 0 0 3 7 4 1 0 0 13.1548939
2963 4 -31.5 -7.0609999 -41.1100006 0 0 0 0 12 4 0 0 0 12.874423
2964 2 -5.89 -26.5799999 -5.4689999 0 0 0 3 6 4 0 0 0 11.5839167
2979 4 -30.2399998 -33.0400009 -0.9199 0 0 0 0 12 3 0 0 0 12.6231232
2997 5 0.09035 -18.4899998 -27.4500008 0 0 0 3 6 4 0 0 0 12.2278462
2998 2 -38.619999 -38.1899986 -9.1750002 0 0 0 2 8 2 0 0 0 11.793272
3014 5 -14.3000002 -2.717 -30.2099991 0 0 0 0 12 3 0 0 0 13.3613596
3016 1 -10.7799998 -38.4199982 -38.0200005 0 0 0 0 12 0 0 0 0 10.5677319
3025 5 -13.4499998 -8.8640004 -36.7000008 0 0 0 1 10 3 0 0 0 12.5505257
3049 4 -31.1100006 -14.1499996 -36.5299988 0 0 0 2 9 2 0 0 0 12.0121765
3053 3 -1.997 -37.8499986 -33.5400009 0 0 0 3 10 1 0 0 0 12.0637913
3056 5 -16.6399994 -31.9699994 -12.8000002 0 0 0 0 12 2 0 0 0 12.2247629
3059 4 -29.9099998 -30.3700009 -15.2100001 0 0 0 2 8 4 0 0 0 12.6200571
3069 2 4.204 -2.2160001 -29.1599999 0 0 0 1 10 2 0 0 0 11.8320942
3072 4 -20.5100003 -13.7700005 -33.5699997 0 0 0 0 12 2 0 0 0 12.0327806
3076 2 -30.9200002 -10.8400002 -43.3899994 0 0 0 0 12 3 0 0 0 12.4219313
3078 1 -4.901 -37.4900017 -5.8020001 0 0 0 1 10 2 0 0 0 11.2300568
3093 2 -3.9460002 -13.8000002 -29.6299992 0 0 0 1 10 2 0 0 0 11.0643158
3095 4 -27.1700001 -16.6599999 -20.8700008 0 0 0 3 6 4 0 0 0 11.9794416
3099 5 -4.2090001 -26.5100003 -12.3699999 0 0 0 3 6 2 0 0 0 11.5704499
3100 2 -22.4200001 -42.8499986 -17.5699997 0 0 0 0 12 2 0 0 0 12.1175356
3104 1 -19.9500008 -9.665 -37.7900009 0 0 2 1 8 1 2 0 0 11.4231301
3117 2 -26.5200005 -3.342 -17.9200002 0 0 0 1 10 3 0 0 0 12.4811116
3134 5 -33.619999 -17.2900009 -41.4700012 0 0 1 0 9 3 0 0 0 11.5025397
3135 4 -1.643 -22.2900009 -20.3299999 0 0 0 2 8 4 0 0 0 12.2732258
3138 5 -8.9700004 -8.7519999 -21.5799999 0 0 1 2 6 5 1 0 0 12.4676085
3146 4 -14.5500002 -20.3600006 -14.4099999 0 0 0 1 12 2 0 0 0 13.5478821
3159 5 -37.1199989 -33.8199997 -22.3500004 0 0 0 1 10 2 0 0 0 11.6429539
3182 4 -10.2700005 -37.9900018 -29.3700009 0 0 0 3 6 6 0 0 0 12.5955115
3188 5 -16.9099998 -22.0799999 -20.8799992 0 0 0 5 4 5 0 0 0 12.550045
3193 5 -36.5499993 -35.8899994 -3.955 0 0 1 1 8 2 1 0 0 11.8570242
3200 2 -11.5799999 -2.2590001 -29.5799999 0 0 0 0 12 0 0 0 0 10.8093024
3201 4 -16.9099998 -29.3700009 -26.1499996 0 0 0 1 10 2 0 0 0 11.2827902
3202 5 -26.9500008 -35.9199982 -13.0600004 0 0 1 0 9 3 0 0 0 12.1369677
3218 2 -27.7700005 -3.3599999 -9.8509998 0 0 0 2 8 3 0 0 0 11.525836
3219 5 -6.7620001 -36.7999993 -38.6300011 0 0 2 2 5 3 1 0 0 12.2644062
3224 4 -18.7800007 -29.9300004 -0.9635 0 0 0 2 8 5 0 0 0 13.2189541
3234 4 -25.1399994 -24.8299999 -0.952 0 0 0 2 8 2 0 0 0 11.5823756
3240 5 -28.3899994 -21.2600002 -38.8499986 0 0 1 3 5 4 2 0 0 13.0086327