ITEM: TIMESTEP
0
ITEM: NUMBER OF ATOMS
16384
ITEM: BOX BOUNDS pp pp pp
0.0000000000000000e+00 3.7972633038420398e+01
0.0000000000000000e+00 3.7972633038420398e+01
0.0000000000000000e+00 3.7972633038420398e+01
ITEM: ATOMS id type x y z
1 4 0 0 0
2 4 1.19606 1.19606 0
5 4 2.39213 1.19606 1.19606
32 4 1.19606 2.39213 1.19606
8193 2 0 0 0
8194 2 1.19606 1.19606 0
8195 2 1.19606 0 1.19606
8196 2 0 1.19606 1.19606
8226 2 0 2.39213 0
8730 2 1.19606 1.19606 2.39213
8760 2 2.39213 2.39213 2.39213
3 4 3.58819 1.19606 0
4 4 3.58819 0 1.19606
6 4 5.98031 0 1.19606
7 4 4.78425 1.19606 1.19606
34 4 3.58819 2.39213 1.19606
36 4 4.78425 2.39213 0
38 4 5.98031 2.39213 1.19606
558 4 4.78425 2.39213 2.39213
8197 2 3.58819 0 1.19606
8198 2 4.78425 0 0
8199 2 5.98031 1.19606 0
8228 2 3.58819 2.39213 1.19606
8229 2 4.78425 2.39213 0
8732 2 3.58819 1.19606 2.39213
8735 2 4.78425 0 2.39213
8 4 8.37244 1.19606 0
9 4 8.37244 0 1.19606
10 4 7.17638 1.19606 1.19606
11 4 9.5685 0 0
12 4 9.5685 1.19606 1.19606
41 4 8.37244 2.39213 1.19606
43 4 9.5685 2.39213 0
525 4 8.37244 1.19606 2.39213
528 4 9.5685 0 2.39213
561 4 7.17638 2.39213 2.39213
8200 2 8.37244 1.19606 0
8231 2 9.5685 2.39213 0
8740 2 9.5685 0 2.39213
46 4 13.1567 2.39213 1.19606
565 4 11.9606 2.39213 2.39213
8201 2 10.7646 0 1.19606
8202 2 13.1567 0 1.19606
8203 2 11.9606 1.19606 1.19606
8232 2 10.7646 2.39213 1.19606
13 4 14.3528 0 0
14 4 16.7449 0 0
16 4 16.7449 1.19606 1.19606
48 4 14.3528 2.39213 0
50 4 15.5488 2.39213 1.19606
532 4 15.5488 1.19606 2.39213
534 4 16.7449 0 2.39213
568 4 14.3528 2.39213 2.39213
8204 2 14.3528 0 0
8205 2 15.5488 1.19606 0
8206 2 14.3528 1.19606 1.19606
8207 2 16.7449 0 0
8235 2 15.5488 2.39213 1.19606
8236 2 16.7449 2.39213 0
8743 2 14.3528 0 2.39213
8744 2 15.5488 1.19606 2.39213
8746 2 16.7449 0 2.39213
8770 2 14.3528 2.39213 2.39213
8773 2 16.7449 2.39213 2.39213
15 4 17.9409 0 1.19606
17 4 19.137 0 0
18 4 20.3331 1.19606 0
19 4 20.3331 0 1.19606
53 4 19.137 2.39213 0
55 4 20.3331 2.39213 1.19606
536 4 19.137 0 2.39213
537 4 20.3331 1.19606 2.39213
571 4 19.137 2.39213 2.39213
8208 2 17.9409 0 1.19606
8209 2 20.3331 1.19606 0
8238 2 19.137 2.39213 0
8748 2 19.137 0 2.39213
20 4 22.7252 1.19606 0
21 4 22.7252 0 1.19606
57 4 21.5291 2.39213 0
540 4 23.9213 0 2.39213
575 4 21.5291 2.39213 2.39213
8210 2 22.7252 1.19606 0
8211 2 22.7252 0 1.19606
8212 2 21.5291 1.19606 1.19606
8213 2 23.9213 0 0
8215 2 23.9213 1.19606 1.19606
8240 2 22.7252 2.39213 1.19606
8750 2 22.7252 1.19606 2.39213
8778 2 21.5291 2.39213 2.39213
22 4 25.1173 1.19606 0
23 4 26.3134 0 0
24 4 27.5094 1.19606 0
60 4 25.1173 2.39213 1.19606
62 4 27.5094 2.39213 1.19606
541 4 26.3134 0 2.39213
542 4 27.5094 1.19606 2.39213
8214 2 25.1173 0 1.19606
8216 2 27.5094 1.19606 0
8217 2 26.3134 1.19606 1.19606
8242 2 25.1173 2.39213 1.19606
8243 2 26.3134 2.39213 0
8754 2 27.5094 1.19606 2.39213
25 4 29.9016 1.19606 0
63 4 28.7055 2.39213 0
65 4 29.9016 2.39213 1.19606
543 4 29.9016 1.19606 2.39213
8218 2 28.7055 0 0
8219 2 29.9016 1.19606 0
8220 2 28.7055 1.19606 1.19606
8245 2 28.7055 2.39213 0
8246 2 29.9016 2.39213 1.19606
8783 2 28.7055 2.39213 2.39213
26 4 32.2937 1.19606 0
27 4 33.4898 0 0
29 4 33.4898 1.19606 1.19606
67 4 32.2937 2.39213 1.19606
68 4 33.4898 2.39213 0
546 4 31.0976 0 2.39213
547 4 32.2937 1.19606 2.39213
583 4 31.0976 2.39213 2.39213
8221 2 31.0976 0 0
8222 2 32.2937 0 1.19606
8223 2 31.0976 1.19606 1.19606
8247 2 31.0976 2.39213 0
8249 2 32.2937 2.39213 1.19606
8251 2 33.4898 2.39213 0
8757 2 31.0976 0 2.39213
8787 2 33.4898 2.39213 2.39213
28 4 34.6858 0 1.19606
30 4 35.8819 0 0
31 4 37.078 1.19606 0
70 4 35.8819 2.39213 0
551 4 35.8819 0 2.39213
8224 2 34.6858 0 1.19606
8225 2 35.8819 0 0
8252 2 35.8819 2.39213 0
8254 2 37.078 2.39213 1.19606
8759 2 37.078 1.19606 2.39213
33 4 0 3.58819 1.19606
35 4 2.39213 3.58819 1.19606
73 4 1.19606 4.78425 1.19606
75 4 2.39213 5.98031 1.19606
553 4 1.19606 3.58819 2.39213
587 4 0 4.78425 2.39213
588 4 1.19606 5.98031 2.39213
8227 2 1.19606 3.58819 0
8256 2 1.19606 4.78425 1.19606
8257 2 0 5.98031 1.19606
8258 2 2.39213 4.78425 0
8790 2 0 4.78425 2.39213
8793 2 2.39213 4.78425 2.39213
37 4 5.98031 3.58819 0
39 4 4.78425 3.58819 1.19606
74 4 3.58819 4.78425 1.19606
555 4 3.58819 3.58819 2.39213
590 4 3.58819 5.98031 2.39213
8230 2 5.98031 3.58819 0
8259 2 3.58819 5.98031 0
8260 2 4.78425 4.78425 0
8261 2 5.98031 4.78425 1.19606
8262 2 4.78425 5.98031 1.19606
8761 2 3.58819 3.58819 2.39213
8762 2 5.98031 3.58819 2.39213
8794 2 3.58819 5.98031 2.39213
40 4 8.37244 3.58819 0
42 4 7.17638 3.58819 1.19606
45 4 9.5685 3.58819 1.19606
76 4 7.17638 4.78425 0
77 4 8.37244 4.78425 1.19606
562 4 8.37244 3.58819 2.39213
592 4 9.5685 4.78425 2.39213
8263 2 7.17638 4.78425 0
8264 2 7.17638 5.98031 1.19606
8265 2 9.5685 4.78425 0
8798 2 8.37244 5.98031 2.39213
44 4 10.7646 3.58819 0
47 4 11.9606 3.58819 1.19606
78 4 10.7646 4.78425 1.19606
79 4 13.1567 5.98031 0
80 4 13.1567 4.78425 1.19606
563 4 10.7646 3.58819 2.39213
566 4 13.1567 3.58819 2.39213
594 4 11.9606 4.78425 2.39213
595 4 13.1567 5.98031 2.39213
8233 2 13.1567 3.58819 0
8266 2 10.7646 5.98031 0
8267 2 10.7646 4.78425 1.19606
8268 2 11.9606 4.78425 0
8269 2 13.1567 5.98031 0
8270 2 13.1567 4.78425 1.19606
8765 2 10.7646 3.58819 2.39213
8768 2 13.1567 3.58819 2.39213
8801 2 13.1567 5.98031 2.39213
49 4 15.5488 3.58819 0
51 4 14.3528 3.58819 1.19606
52 4 16.7449 3.58819 1.19606
81 4 14.3528 4.78425 0
82 4 15.5488 4.78425 1.19606
83 4 16.7449 5.98031 1.19606
569 4 15.5488 3.58819 2.39213
596 4 14.3528 4.78425 2.39213
598 4 16.7449 4.78425 2.39213
8234 2 15.5488 3.58819 0
8237 2 16.7449 3.58819 1.19606
8271 2 15.5488 5.98031 0
8272 2 14.3528 5.98031 1.19606
8273 2 16.7449 5.98031 1.19606
8771 2 15.5488 3.58819 2.39213
8804 2 16.7449 4.78425 2.39213
54 4 20.3331 3.58819 0
56 4 19.137 3.58819 1.19606
84 4 20.3331 4.78425 1.19606
572 4 20.3331 3.58819 2.39213
599 4 17.9409 5.98031 2.39213
601 4 20.3331 5.98031 2.39213
8239 2 20.3331 3.58819 0
8274 2 19.137 4.78425 0
8275 2 20.3331 5.98031 0
8276 2 19.137 5.98031 1.19606
8776 2 20.3331 3.58819 2.39213
8805 2 20.3331 5.98031 2.39213
58 4 22.7252 3.58819 0
59 4 21.5291 3.58819 1.19606
61 4 23.9213 3.58819 1.19606
85 4 22.7252 5.98031 0
86 4 21.5291 5.98031 1.19606
88 4 23.9213 5.98031 1.19606
576 4 22.7252 3.58819 2.39213
603 4 21.5291 4.78425 2.39213
8241 2 21.5291 3.58819 1.19606
8277 2 21.5291 4.78425 0
8278 2 22.7252 5.98031 0
8279 2 22.7252 4.78425 1.19606
8280 2 21.5291 5.98031 1.19606
8281 2 23.9213 4.78425 0
87 4 25.1173 4.78425 1.19606
89 4 27.5094 4.78425 1.19606
90 4 26.3134 5.98031 1.19606
579 4 27.5094 3.58819 2.39213
604 4 26.3134 4.78425 2.39213
8244 2 27.5094 3.58819 0
8282 2 25.1173 5.98031 0
8283 2 25.1173 4.78425 1.19606
8284 2 27.5094 5.98031 0
8809 2 25.1173 5.98031 2.39213
8812 2 26.3134 4.78425 2.39213
8813 2 27.5094 5.98031 2.39213
64 4 29.9016 3.58819 0
91 4 29.9016 5.98031 0
92 4 28.7055 5.98031 1.19606
582 4 29.9016 3.58819 2.39213
8285 2 28.7055 4.78425 0
8784 2 29.9016 3.58819 2.39213
8816 2 28.7055 4.78425 2.39213
8817 2 29.9016 5.98031 2.39213
66 4 32.2937 3.58819 0
93 4 31.0976 5.98031 1.19606
94 4 33.4898 4.78425 0
584 4 32.2937 3.58819 2.39213
8248 2 32.2937 3.58819 0
8250 2 31.0976 3.58819 1.19606
8286 2 32.2937 5.98031 0
8287 2 32.2937 4.78425 1.19606
8288 2 31.0976 5.98031 1.19606
8289 2 33.4898 4.78425 0
8291 2 33.4898 5.98031 1.19606
69 4 34.6858 3.58819 0
71 4 37.078 3.58819 0
72 4 35.8819 3.58819 1.19606
95 4 35.8819 4.78425 0
96 4 37.078 5.98031 0
97 4 35.8819 5.98031 1.19606
586 4 37.078 3.58819 2.39213
609 4 35.8819 4.78425 2.39213
610 4 37.078 5.98031 2.39213
8253 2 37.078 3.58819 0
8255 2 35.8819 3.58819 1.19606
8290 2 34.6858 5.98031 0
8292 2 35.8819 4.78425 0
8293 2 37.078 5.98031 0
8294 2 35.8819 5.98031 1.19606
8789 2 37.078 3.58819 2.39213
8822 2 37.078 5.98031 2.39213
98 4 1.19606 8.37244 0
99 4 1.19606 7.17638 1.19606
100 4 0 8.37244 1.19606
101 4 2.39213 7.17638 0
8295 2 0 7.17638 0
8296 2 2.39213 7.17638 0
8327 2 1.19606 9.5685 1.19606
8329 2 2.39213 9.5685 0
8824 2 0 7.17638 2.39213
8825 2 1.19606 8.37244 2.39213
8826 2 2.39213 7.17638 2.39213
8852 2 0 9.5685 2.39213
8856 2 2.39213 9.5685 2.39213
102 4 3.58819 8.37244 0
103 4 3.58819 7.17638 1.19606
104 4 4.78425 7.17638 0
105 4 5.98031 7.17638 1.19606
134 4 5.98031 9.5685 1.19606
612 4 3.58819 8.37244 2.39213
613 4 4.78425 7.17638 2.39213
614 4 5.98031 8.37244 2.39213
8297 2 3.58819 8.37244 0
8298 2 3.58819 7.17638 1.19606
8299 2 4.78425 7.17638 0
8300 2 5.98031 8.37244 0
8331 2 3.58819 9.5685 1.19606
8333 2 4.78425 9.5685 0
8827 2 4.78425 7.17638 2.39213
8828 2 5.98031 8.37244 2.39213
106 4 8.37244 8.37244 0
107 4 8.37244 7.17638 1.19606
616 4 8.37244 8.37244 2.39213
8301 2 7.17638 7.17638 0
8302 2 8.37244 8.37244 0
8303 2 7.17638 8.37244 1.19606
8829 2 8.37244 8.37244 2.39213
8831 2 9.5685 7.17638 2.39213
108 4 11.9606 7.17638 0
109 4 13.1567 8.37244 0
110 4 13.1567 7.17638 1.19606
137 4 11.9606 9.5685 0
618 4 11.9606 7.17638 2.39213
8304 2 10.7646 8.37244 0
8305 2 10.7646 7.17638 1.19606
8306 2 13.1567 8.37244 0
8338 2 10.7646 9.5685 1.19606
8340 2 11.9606 9.5685 0
8341 2 13.1567 9.5685 1.19606
8864 2 11.9606 9.5685 2.39213
111 4 14.3528 7.17638 0
112 4 15.5488 7.17638 1.19606
113 4 14.3528 8.37244 1.19606
114 4 16.7449 7.17638 0
117 4 16.7449 8.37244 1.19606
139 4 14.3528 9.5685 0
620 4 15.5488 8.37244 2.39213
8307 2 15.5488 8.37244 0
8308 2 14.3528 8.37244 1.19606
8309 2 16.7449 7.17638 0
8311 2 16.7449 8.37244 1.19606
8344 2 15.5488 9.5685 1.19606
8833 2 15.5488 8.37244 2.39213
8866 2 14.3528 9.5685 2.39213
8868 2 16.7449 9.5685 2.39213
115 4 17.9409 8.37244 0
116 4 17.9409 7.17638 1.19606
118 4 19.137 8.37244 1.19606
143 4 20.3331 9.5685 1.19606
621 4 17.9409 8.37244 2.39213
623 4 19.137 7.17638 2.39213
624 4 20.3331 8.37244 2.39213
654 4 19.137 9.5685 2.39213
8310 2 17.9409 7.17638 1.19606
8312 2 19.137 7.17638 0
8313 2 20.3331 8.37244 0
8834 2 17.9409 8.37244 2.39213
8835 2 19.137 7.17638 2.39213
8836 2 20.3331 8.37244 2.39213
119 4 21.5291 7.17638 0
120 4 22.7252 8.37244 0
121 4 22.7252 7.17638 1.19606
122 4 21.5291 8.37244 1.19606
123 4 23.9213 7.17638 0
146 4 22.7252 9.5685 1.19606
148 4 23.9213 9.5685 0
626 4 21.5291 7.17638 2.39213
628 4 23.9213 7.17638 2.39213
657 4 21.5291 9.5685 2.39213
8314 2 21.5291 7.17638 0
8315 2 22.7252 7.17638 1.19606
8316 2 23.9213 7.17638 0
8349 2 22.7252 9.5685 1.19606
8838 2 22.7252 8.37244 2.39213
8839 2 23.9213 7.17638 2.39213
124 4 25.1173 7.17638 1.19606
629 4 25.1173 8.37244 2.39213
660 4 26.3134 9.5685 2.39213
8317 2 26.3134 7.17638 0
8318 2 26.3134 8.37244 1.19606
8353 2 26.3134 9.5685 0
8354 2 27.5094 9.5685 1.19606
8840 2 25.1173 8.37244 2.39213
8843 2 27.5094 8.37244 2.39213
125 4 29.9016 8.37244 0
126 4 29.9016 7.17638 1.19606
127 4 28.7055 8.37244 1.19606
152 4 28.7055 9.5685 0
633 4 28.7055 7.17638 2.39213
662 4 28.7055 9.5685 2.39213
8356 2 28.7055 9.5685 0
8357 2 29.9016 9.5685 1.19606
128 4 31.0976 7.17638 0
129 4 32.2937 7.17638 1.19606
130 4 33.4898 7.17638 0
155 4 31.0976 9.5685 0
156 4 32.2937 9.5685 1.19606
158 4 33.4898 9.5685 0
664 4 31.0976 9.5685 2.39213
667 4 33.4898 9.5685 2.39213
8319 2 32.2937 7.17638 1.19606
8320 2 31.0976 8.37244 1.19606
8321 2 33.4898 7.17638 0
8322 2 33.4898 8.37244 1.19606
8359 2 32.2937 9.5685 1.19606
8847 2 33.4898 7.17638 2.39213
8878 2 31.0976 9.5685 2.39213
131 4 37.078 8.37244 0
635 4 34.6858 8.37244 2.39213
637 4 35.8819 7.17638 2.39213
8323 2 35.8819 7.17638 0
8324 2 37.078 8.37244 0
8325 2 35.8819 8.37244 1.19606
8362 2 35.8819 9.5685 0
8364 2 37.078 9.5685 1.19606
8848 2 34.6858 8.37244 2.39213
8851 2 37.078 8.37244 2.39213
132 4 1.19606 10.7646 0
160 4 0 11.9606 0
161 4 1.19606 13.1567 0
162 4 1.19606 11.9606 1.19606
163 4 0 13.1567 1.19606
164 4 2.39213 11.9606 0
640 4 1.19606 10.7646 2.39213
672 4 0 11.9606 2.39213
675 4 2.39213 11.9606 2.39213
8326 2 1.19606 10.7646 0
8328 2 0 10.7646 1.19606
8332 2 2.39213 10.7646 1.19606
8366 2 0 11.9606 0
8367 2 1.19606 13.1567 0
8368 2 1.19606 11.9606 1.19606
8369 2 0 13.1567 1.19606
8370 2 2.39213 11.9606 0
8373 2 2.39213 13.1567 1.19606
8853 2 1.19606 10.7646 2.39213
8880 2 0 11.9606 2.39213
8883 2 2.39213 11.9606 2.39213
133 4 3.58819 10.7646 0
165 4 3.58819 11.9606 1.19606
166 4 5.98031 13.1567 0
167 4 5.98031 11.9606 1.19606
168 4 4.78425 13.1567 1.19606
676 4 3.58819 13.1567 2.39213
679 4 4.78425 11.9606 2.39213
680 4 5.98031 13.1567 2.39213
8330 2 3.58819 10.7646 0
8334 2 5.98031 10.7646 0
8335 2 4.78425 10.7646 1.19606
8371 2 3.58819 13.1567 0
8372 2 3.58819 11.9606 1.19606
8374 2 4.78425 11.9606 0
8375 2 5.98031 13.1567 0
8857 2 3.58819 10.7646 2.39213
8860 2 5.98031 10.7646 2.39213
8884 2 3.58819 13.1567 2.39213
8886 2 4.78425 11.9606 2.39213
8887 2 5.98031 13.1567 2.39213
135 4 7.17638 10.7646 1.19606
136 4 9.5685 10.7646 1.19606
169 4 8.37244 11.9606 1.19606
170 4 7.17638 13.1567 1.19606
171 4 9.5685 11.9606 0
174 4 9.5685 13.1567 1.19606
682 4 7.17638 11.9606 2.39213
683 4 8.37244 13.1567 2.39213
685 4 9.5685 11.9606 2.39213
8336 2 8.37244 10.7646 0
8339 2 9.5685 10.7646 1.19606
8376 2 8.37244 13.1567 0
8377 2 8.37244 11.9606 1.19606
8378 2 9.5685 11.9606 0
8381 2 9.5685 13.1567 1.19606
8888 2 8.37244 13.1567 2.39213
8890 2 9.5685 11.9606 2.39213
138 4 13.1567 10.7646 0
172 4 10.7646 13.1567 0
173 4 10.7646 11.9606 1.19606
175 4 11.9606 11.9606 0
176 4 11.9606 13.1567 1.19606
686 4 10.7646 13.1567 2.39213
688 4 11.9606 11.9606 2.39213
689 4 13.1567 13.1567 2.39213
8337 2 10.7646 10.7646 0
8342 2 11.9606 10.7646 1.19606
8379 2 10.7646 13.1567 0
8380 2 10.7646 11.9606 1.19606
8382 2 13.1567 13.1567 0
8383 2 13.1567 11.9606 1.19606
8863 2 10.7646 10.7646 2.39213
8891 2 10.7646 13.1567 2.39213
8892 2 13.1567 13.1567 2.39213
140 4 15.5488 10.7646 0
142 4 16.7449 10.7646 1.19606
177 4 14.3528 11.9606 0
178 4 15.5488 13.1567 0
691 4 15.5488 13.1567 2.39213
8343 2 15.5488 10.7646 0
8345 2 14.3528 10.7646 1.19606
8346 2 16.7449 10.7646 1.19606
8384 2 15.5488 13.1567 0
8385 2 15.5488 11.9606 1.19606
8386 2 16.7449 11.9606 0
8867 2 15.5488 10.7646 2.39213
8894 2 14.3528 11.9606 2.39213
8895 2 15.5488 13.1567 2.39213
8897 2 16.7449 11.9606 2.39213
141 4 17.9409 10.7646 0
144 4 19.137 10.7646 1.19606
179 4 17.9409 13.1567 0
652 4 17.9409 10.7646 2.39213
655 4 20.3331 10.7646 2.39213
8347 2 20.3331 10.7646 0
8348 2 19.137 10.7646 1.19606
8387 2 17.9409 13.1567 0
8388 2 19.137 13.1567 1.19606
8869 2 17.9409 10.7646 2.39213
8870 2 20.3331 10.7646 2.39213
8898 2 20.3331 13.1567 2.39213
145 4 22.7252 10.7646 0
147 4 21.5291 10.7646 1.19606
150 4 23.9213 10.7646 1.19606
180 4 21.5291 11.9606 0
181 4 22.7252 13.1567 0
182 4 21.5291 13.1567 1.19606
183 4 23.9213 11.9606 0
658 4 22.7252 10.7646 2.39213
8350 2 21.5291 10.7646 1.19606
8352 2 23.9213 10.7646 1.19606
8389 2 22.7252 13.1567 0
8390 2 22.7252 11.9606 1.19606
8391 2 23.9213 11.9606 0
8871 2 22.7252 10.7646 2.39213
8899 2 22.7252 13.1567 2.39213
8902 2 23.9213 11.9606 2.39213
149 4 25.1173 10.7646 0
151 4 27.5094 10.7646 0
184 4 26.3134 11.9606 0
185 4 26.3134 13.1567 1.19606
659 4 25.1173 10.7646 2.39213
661 4 27.5094 10.7646 2.39213
698 4 26.3134 11.9606 2.39213
699 4 27.5094 13.1567 2.39213
8351 2 25.1173 10.7646 0
8355 2 26.3134 10.7646 1.19606
8392 2 25.1173 13.1567 0
8393 2 25.1173 11.9606 1.19606
8394 2 26.3134 13.1567 1.19606
8874 2 25.1173 10.7646 2.39213
8903 2 25.1173 13.1567 2.39213
153 4 29.9016 10.7646 0
154 4 28.7055 10.7646 1.19606
186 4 29.9016 11.9606 1.19606
663 4 29.9016 10.7646 2.39213
701 4 28.7055 11.9606 2.39213
8358 2 28.7055 10.7646 1.19606
8395 2 28.7055 11.9606 0
8396 2 29.9016 11.9606 1.19606
8397 2 28.7055 13.1567 1.19606
8906 2 28.7055 11.9606 2.39213
8907 2 29.9016 13.1567 2.39213
157 4 31.0976 10.7646 1.19606
187 4 32.2937 13.1567 0
188 4 32.2937 11.9606 1.19606
189 4 31.0976 13.1567 1.19606
702 4 31.0976 11.9606 2.39213
703 4 32.2937 13.1567 2.39213
705 4 33.4898 11.9606 2.39213
8360 2 31.0976 10.7646 1.19606
8398 2 31.0976 11.9606 0
8399 2 32.2937 11.9606 1.19606
8400 2 31.0976 13.1567 1.19606
8401 2 33.4898 11.9606 0
8909 2 31.0976 11.9606 2.39213
8910 2 32.2937 13.1567 2.39213
159 4 35.8819 10.7646 1.19606
190 4 34.6858 13.1567 0
191 4 37.078 13.1567 0
192 4 37.078 11.9606 1.19606
668 4 34.6858 10.7646 2.39213
706 4 34.6858 13.1567 2.39213
709 4 35.8819 11.9606 2.39213
710 4 37.078 13.1567 2.39213
8361 2 34.6858 10.7646 0
8363 2 37.078 10.7646 0
8365 2 35.8819 10.7646 1.19606
8402 2 34.6858 13.1567 0
8403 2 37.078 13.1567 0
8913 2 34.6858 13.1567 2.39213
8916 2 35.8819 11.9606 2.39213
193 4 1.19606 15.5488 0
194 4 1.19606 14.3528 1.19606
195 4 0 15.5488 1.19606
196 4 2.39213 14.3528 0
230 4 0 16.7449 0
232 4 1.19606 16.7449 1.19606
711 4 0 14.3528 2.39213
712 4 1.19606 15.5488 2.39213
713 4 2.39213 14.3528 2.39213
747 4 0 16.7449 2.39213
750 4 2.39213 16.7449 2.39213
8404 2 2.39213 14.3528 0
8405 2 2.39213 15.5488 1.19606
8431 2 0 16.7449 0
8433 2 1.19606 16.7449 1.19606
8918 2 0 14.3528 2.39213
8919 2 1.19606 15.5488 2.39213
8920 2 2.39213 14.3528 2.39213
8952 2 0 16.7449 2.39213
197 4 3.58819 15.5488 0
198 4 4.78425 14.3528 0
199 4 5.98031 15.5488 0
200 4 5.98031 14.3528 1.19606
201 4 4.78425 15.5488 1.19606
235 4 3.58819 16.7449 1.19606
237 4 5.98031 16.7449 1.19606
715 4 5.98031 15.5488 2.39213
8406 2 4.78425 14.3528 0
8407 2 5.98031 15.5488 0
8436 2 3.58819 16.7449 1.19606
8437 2 4.78425 16.7449 0
8439 2 5.98031 16.7449 1.19606
8921 2 3.58819 15.5488 2.39213
8923 2 4.78425 14.3528 2.39213
8924 2 5.98031 15.5488 2.39213
8956 2 4.78425 16.7449 2.39213
202 4 7.17638 14.3528 0
203 4 8.37244 15.5488 0
204 4 8.37244 14.3528 1.19606
239 4 7.17638 16.7449 0
240 4 8.37244 16.7449 1.19606
718 4 7.17638 14.3528 2.39213
719 4 8.37244 15.5488 2.39213
721 4 9.5685 14.3528 2.39213
755 4 9.5685 16.7449 2.39213
8408 2 7.17638 14.3528 0
8409 2 7.17638 15.5488 1.19606
8410 2 9.5685 14.3528 0
8412 2 9.5685 15.5488 1.19606
8926 2 7.17638 14.3528 2.39213
8927 2 8.37244 15.5488 2.39213
8928 2 9.5685 14.3528 2.39213
205 4 10.7646 15.5488 0
206 4 10.7646 14.3528 1.19606
207 4 13.1567 15.5488 0
208 4 11.9606 15.5488 1.19606
243 4 10.7646 16.7449 1.19606
723 4 13.1567 15.5488 2.39213
8411 2 10.7646 15.5488 0
8413 2 11.9606 14.3528 0
8414 2 13.1567 14.3528 1.19606
8441 2 10.7646 16.7449 1.19606
8443 2 13.1567 16.7449 1.19606
8930 2 13.1567 15.5488 2.39213
8962 2 11.9606 16.7449 2.39213
209 4 14.3528 14.3528 0
210 4 15.5488 15.5488 0
245 4 14.3528 16.7449 0
246 4 15.5488 16.7449 1.19606
759 4 14.3528 16.7449 2.39213
8415 2 15.5488 15.5488 0
8416 2 15.5488 14.3528 1.19606
8417 2 16.7449 14.3528 0
8445 2 15.5488 16.7449 1.19606
8446 2 16.7449 16.7449 0
8933 2 16.7449 14.3528 2.39213
8965 2 16.7449 16.7449 2.39213
211 4 17.9409 15.5488 0
212 4 19.137 14.3528 0
213 4 20.3331 15.5488 0
214 4 20.3331 14.3528 1.19606
215 4 19.137 15.5488 1.19606
248 4 17.9409 16.7449 1.19606
727 4 17.9409 15.5488 2.39213
728 4 19.137 14.3528 2.39213
729 4 20.3331 15.5488 2.39213
8418 2 17.9409 14.3528 1.19606
8419 2 19.137 14.3528 0
8420 2 20.3331 14.3528 1.19606
8447 2 19.137 16.7449 0
8934 2 17.9409 15.5488 2.39213
8936 2 20.3331 15.5488 2.39213
8966 2 19.137 16.7449 2.39213
216 4 22.7252 15.5488 0
217 4 22.7252 14.3528 1.19606
218 4 23.9213 14.3528 0
251 4 21.5291 16.7449 0
252 4 23.9213 16.7449 0
731 4 21.5291 14.3528 2.39213
734 4 23.9213 14.3528 2.39213
765 4 21.5291 16.7449 2.39213
8421 2 21.5291 14.3528 0
8422 2 22.7252 15.5488 0
8423 2 22.7252 14.3528 1.19606
8424 2 23.9213 14.3528 0
8449 2 21.5291 16.7449 0
8450 2 22.7252 16.7449 1.19606
8451 2 23.9213 16.7449 0
8937 2 21.5291 14.3528 2.39213
8938 2 22.7252 15.5488 2.39213
8968 2 21.5291 16.7449 2.39213
219 4 25.1173 14.3528 1.19606
220 4 26.3134 14.3528 0
221 4 27.5094 15.5488 0
253 4 25.1173 16.7449 1.19606
735 4 25.1173 15.5488 2.39213
736 4 27.5094 15.5488 2.39213
769 4 26.3134 16.7449 2.39213
8425 2 25.1173 15.5488 0
8426 2 27.5094 15.5488 0
8427 2 26.3134 15.5488 1.19606
8453 2 25.1173 16.7449 1.19606
8454 2 26.3134 16.7449 0
8941 2 25.1173 15.5488 2.39213
8943 2 26.3134 14.3528 2.39213
222 4 29.9016 15.5488 0
223 4 29.9016 14.3528 1.19606
256 4 29.9016 16.7449 1.19606
739 4 28.7055 14.3528 2.39213
740 4 29.9016 15.5488 2.39213
8428 2 28.7055 15.5488 1.19606
8456 2 28.7055 16.7449 0
8944 2 29.9016 15.5488 2.39213
224 4 31.0976 14.3528 0
225 4 31.0976 15.5488 1.19606
226 4 33.4898 14.3528 0
228 4 33.4898 15.5488 1.19606
772 4 31.0976 16.7449 2.39213
8429 2 32.2937 14.3528 1.19606
8947 2 31.0976 14.3528 2.39213
8949 2 33.4898 14.3528 2.39213
227 4 34.6858 15.5488 0
229 4 37.078 15.5488 0
259 4 37.078 16.7449 1.19606
743 4 34.6858 15.5488 2.39213
745 4 37.078 15.5488 2.39213
776 4 35.8819 16.7449 2.39213
8430 2 34.6858 15.5488 0
231 4 1.19606 17.9409 0
233 4 0 17.9409 1.19606
236 4 2.39213 17.9409 1.19606
260 4 0 19.137 0
261 4 1.19606 20.3331 0
262 4 0 20.3331 1.19606
263 4 2.39213 19.137 0
266 4 2.39213 20.3331 1.19606
748 4 1.19606 17.9409 2.39213
778 4 0 19.137 2.39213
779 4 1.19606 20.3331 2.39213
781 4 2.39213 19.137 2.39213
8432 2 1.19606 17.9409 0
8434 2 0 17.9409 1.19606
8463 2 1.19606 20.3331 0
8464 2 1.19606 19.137 1.19606
8465 2 0 20.3331 1.19606
8466 2 2.39213 19.137 0
8953 2 1.19606 17.9409 2.39213
8981 2 0 19.137 2.39213
8984 2 2.39213 19.137 2.39213
234 4 3.58819 17.9409 0
238 4 4.78425 17.9409 1.19606
264 4 3.58819 20.3331 0
265 4 3.58819 19.137 1.19606
267 4 4.78425 19.137 0
268 4 5.98031 19.137 1.19606
752 4 5.98031 17.9409 2.39213
8435 2 3.58819 17.9409 0
8438 2 5.98031 17.9409 0
8440 2 4.78425 17.9409 1.19606
8467 2 4.78425 19.137 0
8468 2 5.98031 20.3331 0
8469 2 5.98031 19.137 1.19606
8954 2 3.58819 17.9409 2.39213
8985 2 3.58819 20.3331 2.39213
8986 2 4.78425 19.137 2.39213
8987 2 5.98031 20.3331 2.39213
241 4 7.17638 17.9409 1.19606
244 4 9.5685 17.9409 1.19606
269 4 7.17638 19.137 0
270 4 8.37244 20.3331 0
271 4 7.17638 20.3331 1.19606
272 4 9.5685 20.3331 1.19606
753 4 8.37244 17.9409 2.39213
785 4 9.5685 19.137 2.39213
8470 2 7.17638 19.137 0
8472 2 9.5685 20.3331 1.19606
8958 2 8.37244 17.9409 2.39213
8990 2 8.37244 20.3331 2.39213
8992 2 9.5685 19.137 2.39213
242 4 10.7646 17.9409 0
273 4 13.1567 20.3331 0
274 4 13.1567 19.137 1.19606
275 4 11.9606 20.3331 1.19606
756 4 10.7646 17.9409 2.39213
786 4 10.7646 20.3331 2.39213
788 4 11.9606 19.137 2.39213
8442 2 13.1567 17.9409 0
8471 2 10.7646 19.137 1.19606
8473 2 13.1567 20.3331 0
8963 2 13.1567 17.9409 2.39213
8994 2 13.1567 20.3331 2.39213
249 4 16.7449 17.9409 1.19606
276 4 15.5488 19.137 1.19606
277 4 14.3528 20.3331 1.19606
278 4 16.7449 19.137 0
279 4 16.7449 20.3331 1.19606
789 4 15.5488 20.3331 2.39213
792 4 16.7449 19.137 2.39213
8444 2 15.5488 17.9409 0
8474 2 14.3528 19.137 0
8997 2 16.7449 19.137 2.39213
247 4 17.9409 17.9409 0
250 4 19.137 17.9409 1.19606
280 4 19.137 19.137 0
281 4 20.3331 19.137 1.19606
793 4 19.137 19.137 2.39213
8448 2 20.3331 17.9409 0
8475 2 19.137 19.137 0
8476 2 20.3331 20.3331 0
8477 2 20.3331 19.137 1.19606
8998 2 17.9409 20.3331 2.39213
282 4 21.5291 19.137 0
283 4 22.7252 20.3331 0
284 4 22.7252 19.137 1.19606
285 4 23.9213 20.3331 1.19606
797 4 23.9213 19.137 2.39213
8478 2 21.5291 19.137 0
8479 2 22.7252 20.3331 0
8480 2 23.9213 19.137 0
8483 2 23.9213 20.3331 1.19606
8969 2 22.7252 17.9409 2.39213
9000 2 21.5291 19.137 2.39213
9003 2 23.9213 19.137 2.39213
254 4 27.5094 17.9409 0
286 4 26.3134 19.137 0
287 4 27.5094 20.3331 0
767 4 25.1173 17.9409 2.39213
798 4 26.3134 19.137 2.39213
799 4 27.5094 20.3331 2.39213
8452 2 25.1173 17.9409 0
8455 2 26.3134 17.9409 1.19606
8481 2 25.1173 20.3331 0
8482 2 25.1173 19.137 1.19606
8484 2 27.5094 19.137 1.19606
8485 2 26.3134 20.3331 1.19606
8971 2 25.1173 17.9409 2.39213
8974 2 27.5094 17.9409 2.39213
9005 2 27.5094 20.3331 2.39213
255 4 29.9016 17.9409 0
288 4 29.9016 20.3331 0
289 4 29.9016 19.137 1.19606
290 4 28.7055 20.3331 1.19606
801 4 29.9016 20.3331 2.39213
8457 2 29.9016 17.9409 0
8458 2 28.7055 17.9409 1.19606
8486 2 29.9016 20.3331 0
8487 2 29.9016 19.137 1.19606
9007 2 28.7055 19.137 2.39213
9008 2 29.9016 20.3331 2.39213
257 4 31.0976 17.9409 1.19606
773 4 32.2937 17.9409 2.39213
803 4 32.2937 20.3331 2.39213
8459 2 32.2937 17.9409 0
8461 2 33.4898 17.9409 1.19606
8488 2 32.2937 20.3331 0
8489 2 32.2937 19.137 1.19606
8490 2 31.0976 20.3331 1.19606
8491 2 33.4898 19.137 0
8976 2 32.2937 17.9409 2.39213
9009 2 32.2937 20.3331 2.39213
9011 2 33.4898 19.137 2.39213
258 4 34.6858 17.9409 0
291 4 34.6858 19.137 1.19606
292 4 37.078 19.137 1.19606
293 4 35.8819 20.3331 1.19606
777 4 37.078 17.9409 2.39213
806 4 34.6858 20.3331 2.39213
808 4 35.8819 19.137 2.39213
809 4 37.078 20.3331 2.39213
8460 2 34.6858 17.9409 0
8462 2 37.078 17.9409 0
8492 2 34.6858 20.3331 0
8493 2 37.078 19.137 1.19606
8494 2 35.8819 20.3331 1.19606
8980 2 37.078 17.9409 2.39213
294 4 1.19606 22.7252 0
295 4 2.39213 21.5291 0
323 4 1.19606 23.9213 1.19606
324 4 2.39213 23.9213 0
811 4 2.39213 21.5291 2.39213
843 4 0 23.9213 2.39213
846 4 2.39213 23.9213 2.39213
8495 2 0 21.5291 0
8496 2 1.19606 22.7252 0
8528 2 0 23.9213 0
9014 2 0 21.5291 2.39213
296 4 3.58819 22.7252 0
297 4 5.98031 21.5291 1.19606
325 4 3.58819 23.9213 1.19606
326 4 5.98031 23.9213 1.19606
812 4 3.58819 22.7252 2.39213
814 4 4.78425 21.5291 2.39213
8497 2 3.58819 22.7252 0
8498 2 3.58819 21.5291 1.19606
8499 2 4.78425 21.5291 0
8500 2 4.78425 22.7252 1.19606
8532 2 4.78425 23.9213 0
9015 2 3.58819 22.7252 2.39213
9049 2 4.78425 23.9213 2.39213
298 4 8.37244 22.7252 0
299 4 8.37244 21.5291 1.19606
300 4 7.17638 22.7252 1.19606
301 4 9.5685 21.5291 0
328 4 8.37244 23.9213 1.19606
329 4 9.5685 23.9213 0
817 4 7.17638 21.5291 2.39213
852 4 9.5685 23.9213 2.39213
8501 2 8.37244 22.7252 0
8502 2 8.37244 21.5291 1.19606
8503 2 7.17638 22.7252 1.19606
8504 2 9.5685 21.5291 0
8507 2 9.5685 22.7252 1.19606
9018 2 8.37244 22.7252 2.39213
9019 2 9.5685 21.5291 2.39213
9053 2 7.17638 23.9213 2.39213
9055 2 9.5685 23.9213 2.39213
302 4 10.7646 21.5291 1.19606
303 4 13.1567 22.7252 0
304 4 11.9606 22.7252 1.19606
332 4 11.9606 23.9213 0
819 4 11.9606 21.5291 2.39213
820 4 13.1567 22.7252 2.39213
856 4 11.9606 23.9213 2.39213
8505 2 10.7646 22.7252 0
8506 2 10.7646 21.5291 1.19606
8508 2 11.9606 21.5291 0
8509 2 13.1567 22.7252 0
8536 2 10.7646 23.9213 1.19606
8537 2 11.9606 23.9213 0
8538 2 13.1567 23.9213 1.19606
9020 2 10.7646 22.7252 2.39213
305 4 15.5488 22.7252 0
306 4 15.5488 21.5291 1.19606
334 4 14.3528 23.9213 0
823 4 14.3528 21.5291 2.39213
825 4 16.7449 21.5291 2.39213
860 4 16.7449 23.9213 2.39213
8510 2 14.3528 21.5291 0
8511 2 15.5488 22.7252 0
8512 2 14.3528 22.7252 1.19606
8513 2 16.7449 21.5291 0
8540 2 14.3528 23.9213 0
8542 2 15.5488 23.9213 1.19606
9023 2 16.7449 21.5291 2.39213
9063 2 16.7449 23.9213 2.39213
307 4 17.9409 22.7252 0
308 4 19.137 21.5291 0
309 4 20.3331 22.7252 0
338 4 17.9409 23.9213 1.19606
339 4 19.137 23.9213 0
341 4 20.3331 23.9213 1.19606
826 4 17.9409 22.7252 2.39213
8514 2 20.3331 22.7252 0
8515 2 20.3331 21.5291 1.19606
8516 2 19.137 22.7252 1.19606
8545 2 17.9409 23.9213 1.19606
8546 2 19.137 23.9213 0
8548 2 20.3331 23.9213 1.19606
9024 2 17.9409 22.7252 2.39213
9027 2 19.137 21.5291 2.39213
9028 2 20.3331 22.7252 2.39213
312 4 23.9213 22.7252 1.19606
343 4 21.5291 23.9213 0
345 4 22.7252 23.9213 1.19606
346 4 23.9213 23.9213 0
828 4 21.5291 21.5291 2.39213
830 4 23.9213 21.5291 2.39213
866 4 23.9213 23.9213 2.39213
8517 2 22.7252 22.7252 0
8518 2 21.5291 22.7252 1.19606
8519 2 23.9213 21.5291 0
8521 2 23.9213 22.7252 1.19606
8550 2 22.7252 23.9213 1.19606
9030 2 23.9213 21.5291 2.39213
310 4 25.1173 22.7252 0
311 4 25.1173 21.5291 1.19606
313 4 27.5094 22.7252 0
347 4 26.3134 23.9213 0
832 4 26.3134 21.5291 2.39213
833 4 27.5094 22.7252 2.39213
870 4 26.3134 23.9213 2.39213
8520 2 25.1173 21.5291 1.19606
8522 2 27.5094 22.7252 0
8552 2 25.1173 23.9213 1.19606
9031 2 25.1173 22.7252 2.39213
9069 2 26.3134 23.9213 2.39213
314 4 28.7055 21.5291 0
315 4 29.9016 22.7252 0
348 4 28.7055 23.9213 0
349 4 29.9016 23.9213 1.19606
834 4 29.9016 22.7252 2.39213
8523 2 28.7055 21.5291 0
9035 2 28.7055 21.5291 2.39213
316 4 31.0976 21.5291 0
317 4 32.2937 22.7252 0
318 4 32.2937 21.5291 1.19606
319 4 31.0976 22.7252 1.19606
320 4 33.4898 21.5291 0
352 4 33.4898 23.9213 0
837 4 31.0976 21.5291 2.39213
838 4 32.2937 22.7252 2.39213
8524 2 32.2937 22.7252 0
8525 2 33.4898 21.5291 0
8556 2 31.0976 23.9213 0
8557 2 32.2937 23.9213 1.19606
9038 2 31.0976 21.5291 2.39213
9076 2 31.0976 23.9213 2.39213
321 4 37.078 22.7252 0
354 4 34.6858 23.9213 1.19606
841 4 37.078 22.7252 2.39213
874 4 35.8819 23.9213 2.39213
8526 2 34.6858 21.5291 1.19606
8527 2 37.078 22.7252 0
9040 2 34.6858 22.7252 2.39213
9042 2 35.8819 21.5291 2.39213
9043 2 37.078 22.7252 2.39213
9080 2 35.8819 23.9213 2.39213
322 4 1.19606 25.1173 0
357 4 0 26.3134 0
358 4 1.19606 27.5094 0
359 4 1.19606 26.3134 1.19606
360 4 0 27.5094 1.19606
361 4 2.39213 26.3134 0
362 4 2.39213 27.5094 1.19606
844 4 1.19606 25.1173 2.39213
876 4 0 26.3134 2.39213
879 4 2.39213 26.3134 2.39213
8529 2 0 25.1173 1.19606
8531 2 2.39213 25.1173 1.19606
8561 2 0 26.3134 0
8562 2 1.19606 26.3134 1.19606
8563 2 2.39213 26.3134 0
9045 2 1.19606 25.1173 2.39213
9082 2 1.19606 27.5094 2.39213
327 4 4.78425 25.1173 1.19606
363 4 4.78425 26.3134 0
364 4 5.98031 26.3134 1.19606
849 4 5.98031 25.1173 2.39213
8530 2 3.58819 25.1173 0
8533 2 5.98031 25.1173 0
8564 2 3.58819 26.3134 1.19606
8565 2 4.78425 26.3134 0
8566 2 5.98031 26.3134 1.19606
8567 2 4.78425 27.5094 1.19606
9046 2 3.58819 25.1173 2.39213
9050 2 5.98031 25.1173 2.39213
9084 2 3.58819 27.5094 2.39213
9085 2 4.78425 26.3134 2.39213
9086 2 5.98031 27.5094 2.39213
331 4 9.5685 25.1173 1.19606
365 4 7.17638 26.3134 0
366 4 8.37244 26.3134 1.19606
367 4 7.17638 27.5094 1.19606
851 4 8.37244 25.1173 2.39213
882 4 7.17638 26.3134 2.39213
883 4 8.37244 27.5094 2.39213
8534 2 8.37244 25.1173 0
8568 2 8.37244 27.5094 0
8569 2 8.37244 26.3134 1.19606
9088 2 8.37244 27.5094 2.39213
330 4 10.7646 25.1173 0
333 4 13.1567 25.1173 0
368 4 10.7646 26.3134 1.19606