ITEM: TIMESTEP
0
ITEM: NUMBER OF ATOMS
50688
ITEM: BOX BOUNDS xy xz yz pp pp pp
-20.3673 66.3933716 6.4810682
-22.2210007 65.3610001 0.0
-22.2210007 65.3610001 0.0
ITEM: ATOMS id type x y z VoronoiIndex1 VoronoiIndex2 VoronoiIndex3 VoronoiIndex4 VoronoiIndex5 VoronoiIndex6 VoronoiIndex7 VoronoiIndex8 VoronoiIndex9 AtomicVolume
7 2 -10.7600003 -13.7700005 -3.412 0 0 0 1 10 2 0 0 0 11.9092446
21 2 -13.3299999 1.897 14.25 0 0 0 0 12 0 0 0 0 11.9742232
26 5 -15.1599999 -17.2000008 -9.0959997 0 0 0 1 10 4 0 0 0 13.2203179
28 2 5.2820001 4.9530002 -10.0600004 0 0 0 0 12 0 0 0 0 10.965683
36 2 13.7100001 -15.1599999 -20.9099998 0 0 0 2 8 2 0 0 0 10.7619305
38 5 8.6990004 -11.1400003 17.2999992 0 0 1 1 8 3 1 0 0 12.6883421
42 2 11.5699997 -3.5850001 -21.4099999 0 0 0 0 12 0 0 0 0 10.9455662
43 5 0.8212 12.7399998 9.5880003 0 0 0 2 10 2 0 0 0 11.9175806
50 2 13.8000002 -3.2709999 -21.9500008 0 0 0 0 12 0 0 0 0 11.0850277
61 4 -11.1999998 -8.5539999 -3.326 0 0 1 2 9 2 0 0 0 12.4040127
66 4 -16.8500004 -5.5060001 -2.3759999 0 0 0 2 8 4 0 0 0 12.7030125
68 1 -16.5799999 -0.5486 2.8540002 0 0 1 4 5 2 0 0 0 11.1002808
98 2 3.033 -8.3529997 18.9099998 0 0 0 0 12 0 0 0 0 10.9489728
128 5 -11.04 6.3439999 -10.8299999 0 0 0 2 10 2 0 0 0 12.6904307
145 4 -4.7290001 -22.1900005 -19.5 0 0 0 0 12 2 0 0 0 12.3917542
146 4 3.0090001 9.4230004 -11.29 0 0 0 1 10 4 0 0 0 13.4028988
150 2 -13.0600004 7.9310002 8.967 0 0 0 3 6 4 0 0 0 11.641511
171 2 6.6220002 -0.6057 -2.998 0 0 0 1 10 2 0 0 0 11.6817303
176 5 11.1300001 -20.4699993 11.7700005 0 0 1 2 7 4 0 0 0 11.6779938
177 5 13.9799996 14.6199999 -19.8899994 0 0 1 1 9 2 0 0 0 11.9494276
181 5 -6.6760001 -11.0200005 5.8060003 0 0 0 0 12 0 0 0 0 10.7483006
191 5 -11.1300001 5.5960002 -13.4600001 0 0 0 1 12 3 0 0 0 12.7450466
200 4 -16.1299992 -11.25 12.25 0 0 1 3 7 4 0 0 0 12.1768112
216 2 13.8900004 16.7099991 11.7799998 0 0 0 0 12 0 0 0 0 11.0984802
219 4 11.3400002 -2.5940001 16.1499996 0 0 1 2 7 5 0 0 0 12.4510203
220 2 -5.264 17.6000004 -5.362 0 0 0 0 12 0 0 0 0 11.8519402
231 4 -14.29 3.7130001 6.9060002 0 0 0 1 10 2 0 0 0 11.2886133
240 2 2.898 10.3900004 5.9260002 0 0 0 3 6 4 0 0 0 11.6806803
241 2 22.3099995 12.6300001 -1.68 0 0 0 1 10 3 0 0 0 12.1766863
243 4 7.895 17.9500008 -1.883 0 0 0 2 8 4 0 0 0 13.2531204
244 5 -6.969 -12.75 -20.4699993 0 0 1 1 9 3 0 0 0 12.4356909
245 1 17.7700005 -17.3799992 5.6180001 0 0 0 4 4 5 0 0 0 12.0835476
249 4 -5.7150002 -6.0749998 18.9099998 0 0 0 0 12 3 0 0 0 12.5970812
260 2 -16.8400002 6.5770002 -15.8100004 0 0 0 0 12 0 0 0 0 11.7179871
262 2 2.069 2.8080001 9.4930001 0 0 0 2 8 3 0 0 0 12.0802279
263 1 -7.1269999 -2.7950001 -16.4599991 0 0 0 0 12 0 0 0 0 10.7186318
266 5 18.8099995 -17.9200002 16.4500008 0 0 0 2 8 4 0 0 0 12.0500422
272 4 -19.2000008 -8.9729996 -18.4699993 0 0 0 1 12 1 0 0 0 12.4951649
277 4 -14.1599999 -0.4163 -6.5209999 0 0 0 2 10 2 0 0 0 12.4618769
283 5 -1.913 10.8599998 -11.2399998 0 0 2 1 8 2 2 0 0 12.0669909
298 4 -5.2729998 17.5200005 3.464 0 0 0 3 10 2 0 0 0 12.9331018
301 1 -12.4399996 18.6399994 20.3199997 0 0 0 2 8 2 0 0 0 11.6585274
311 5 -10.3699999 14.1400003 -4.6690002 0 0 0 2 10 4 0 0 0 13.7587786
318 5 -2.105 -14.4200001 -6.2969999 0 0 0 5 2 6 0 0 0 11.6319094
322 4 -8.8610002 -8.4259997 3.0569999 0 0 0 0 12 2 0 0 0 12.3856859
335 1 -16.8299999 -18.2700005 -5.8220001 0 0 0 2 8 3 0 0 0 12.3210335
336 4 -10.4399996 -16.3099995 -2.421 0 0 0 2 8 5 0 0 0 12.6657868
362 5 -8.8730002 -9.6780005 -4.198 0 0 0 1 10 4 0 0 0 13.0790987
370 5 -15.25 -17.1499996 -11.6499996 0 0 0 1 12 1 0 0 0 12.3844156
372 5 10.4899998 -19.8299999 3.8050001 0 0 0 2 6 4 0 0 0 11.4305401
377 5 -4.4970002 15.8599998 -0.5069 0 0 1 1 11 3 0 0 0 13.8519888
398 1 -1.864 0.5291 -1.141 0 0 0 2 10 1 0 0 0 11.8135243
416 2 -8.4860001 -21.2299996 -11.4799996 0 0 0 4 4 6 0 0 0 11.5794029
431 2 -4.1589999 19.7999993 -19.5499993 0 0 0 1 10 2 0 0 0 11.7338782
439 4 -15.8000002 -8.1800003 15.6099997 0 0 0 3 8 3 0 0 0 12.1513901
442 4 2.8080001 -20.7399998 -12.3199997 0 0 0 0 12 3 0 0 0 13.2134438
452 4 -12.9099998 -22.0699997 -20.4699993 0 0 0 0 12 0 0 0 0 11.3832874
482 4 6.7849999 -0.2343 -19.5900002 0 0 0 4 7 1 1 0 0 12.5459337
506 4 -2.865 -0.01078 16.2999992 0 0 0 1 10 4 0 0 0 12.6897154
527 5 10.8299999 -5.0809999 4.704 0 0 0 2 8 4 0 0 0 12.201416
531 5 20.9400006 6.4580002 12.6899996 0 0 0 3 10 1 0 0 0 12.4964733
537 2 2.175 17.75 4.8740002 0 0 2 1 7 1 1 1 0 11.6233225
539 2 0.906 -21.6399994 -16.1900005 0 0 0 4 6 3 0 0 0 12.4701443
548 4 0.4128 -8.2019997 1.6 0 0 1 2 7 3 2 0 0 13.2032433
549 5 -14.4799996 12.6800003 -17.2299996 0 0 0 1 10 3 0 0 0 12.4503727
553 4 9.7910004 4.7560001 -21.5200005 0 0 0 0 12 0 0 0 0 11.2664957
559 4 16.2199993 5.6690002 -21.7000008 0 0 1 0 9 3 0 0 0 11.7917977
561 4 5.3260002 15.5600004 -5.6290002 0 0 0 2 8 3 0 0 0 12.1010056
564 4 -2.7939999 4.316 -11.6899996 0 0 0 1 10 3 0 0 0 12.7115431
569 2 9.2489996 -3.23 4.4520002 0 0 1 3 7 2 0 0 0 11.8822814
570 4 -15.9200002 -20.4200001 -6.0640001 0 0 0 3 6 4 0 0 0 11.6393328
571 5 -13.4300003 5.8109999 7.929 0 0 0 1 10 2 0 0 0 12.0996962
587 5 19.5300007 17.1700001 16.5200005 0 0 0 3 8 2 0 0 0 12.0439034
597 2 -0.4537 -17.2800007 -13.5200005 0 0 2 3 4 5 0 0 0 10.8681784
613 5 16.8799992 -5.145 -1.652 0 0 0 6 3 4 1 0 0 12.0783806
618 2 0.4168 6.7529998 -12.6999998 0 0 0 0 12 0 0 0 0 11.2141876
623 4 18.0499992 17.1299992 4.7389999 0 0 0 1 10 3 0 0 0 11.8964444
638 5 -11.6300001 -8.9020004 9.0620003 0 0 0 1 10 2 0 0 0 11.4037876
643 5 -10.7299996 4.1599999 2.049 0 0 0 2 8 2 0 0 0 11.2932358
645 5 -11.3299999 16.5400009 5.9829998 0 0 0 4 4 4 0 0 0 11.5190869
649 4 19.9899998 -18.6700001 8.9239998 0 0 0 1 10 4 0 0 0 12.9186984
654 4 4.4380002 -16.9099998 1.104 0 0 2 3 5 5 1 0 0 12.7718611
671 2 3.602 -9.8649998 9.3310003 0 0 0 0 12 0 0 0 0 10.6236315
672 2 22.2800007 21.0499992 -17.3199997 0 0 0 2 10 2 0 0 0 11.6987887
681 2 -14.2200003 20.2700005 -8.1289997 0 0 2 2 5 5 1 0 0 11.7287779
699 5 19.1700001 3.378 3.0829999 0 0 0 2 8 4 0 0 0 12.4676924
718 2 -20.2000008 -20.0 -17.9799996 0 0 0 2 8 2 0 0 0 11.0721874
726 5 20.3700009 -7.7820001 8.6020003 0 0 0 0 12 2 0 0 0 12.1572104
727 5 -5.4070001 -20.6299992 21.25 0 0 0 4 5 4 1 0 0 12.7838755
729 1 1.569 -22.0300007 8.948 0 0 0 2 8 3 0 0 0 11.9063884
741 4 4.9050002 15.6099997 1.957 0 0 0 3 8 4 0 0 0 12.4648638
742 4 13.5900002 2.8139999 9.7799998 0 0 0 3 6 4 0 0 0 12.7821245
745 4 3.747 21.5499993 -20.9899998 0 0 0 1 10 2 0 0 0 12.0815516
755 5 15.3800001 -14.1400003 -17.5 0 0 0 2 8 4 0 0 0 11.6195956
758 2 7.191 11.5200005 14.87 0 0 0 0 12 0 0 0 0 11.8539076
760 1 8.9639998 8.8850002 -17.4400006 0 0 0 0 12 0 0 0 0 11.0115976
762 5 19.9099998 -5.546 -7.8850002 0 0 1 3 6 3 3 0 0 13.2289734
765 1 -1.896 12.0699997 -21.4200001 0 0 0 0 12 0 0 0 0 10.8394814
818 5 7.671 10.0299997 5.3899999 0 0 2 1 8 4 0 0 0 12.5892344
842 5 11.7600003 1.18 -6.6160002 0 0 0 3 8 2 0 0 0 12.4594536
849 4 -2.0320001 3.8380001 12.0100002 0 0 0 4 8 2 0 0 0 12.0178881
850 5 5.2979999 18.1200008 -18.0200005 0 0 0 0 12 0 0 0 0 11.0987806
882 3 -7.7540002 17.0499992 15.7100001 0 0 0 1 10 2 0 0 0 12.0692263
899 4 -0.7233 -9.4759999 -0.578 0 0 0 0 12 2 0 0 0 12.4341574
901 4 1.1770001 19.1900005 -1.446 0 0 0 0 12 2 0 0 0 12.4767208
915 5 -4.7020002 -22.1800003 -4.0120001 0 0 1 2 7 6 0 0 0 12.497695
926 5 0.003675 7.6329999 8.934 0 0 0 2 12 1 0 0 0 13.3320294
936 1 2.3 13.3000002 -14.7200003 0 0 0 0 12 0 0 0 0 11.1790295
941 5 2.1540001 5.132 14.29 0 0 0 1 10 3 0 0 0 12.4538613
946 4 -1.5800001 -13.5100003 21.0300007 0 0 0 0 12 2 0 0 0 12.1820755
950 3 -1.419 -1.7640001 6.1370001 0 0 1 1 9 5 0 0 0 13.0119619
951 5 10.0799999 16.7299996 -1.37 0 0 0 2 10 3 0 0 0 13.1386423
958 5 14.0699997 8.2720003 -2.422 0 0 2 4 2 6 0 0 0 11.7529373
961 2 -1.5140001 18.6599999 -17.4799996 0 0 0 2 8 3 0 0 0 12.343441
962 4 -6.0760002 -14.6300001 -11.5200005 0 0 0 1 10 1 2 0 0 12.4161835
963 5 -8.3830004 -12.7399998 -15.0500002 0 0 0 4 4 6 0 0 0 11.602211
978 4 -17.8999996 -19.2800007 13.25 0 0 0 1 10 2 0 0 0 11.6868868
990 4 12.7399998 16.7099991 -1.248 0 0 1 1 8 5 1 0 0 13.2363587
995 1 1.706 -17.1700001 13.0799999 0 0 0 0 12 2 0 0 0 11.9496146
1007 2 3.7950001 -4.8330002 -2.523 0 0 0 0 12 0 0 0 0 11.2836218
1010 4 -15.75 3.602 -20.7800007 0 0 0 1 10 4 0 0 0 12.8460064
1025 1 2.6080001 -12.8400002 11.8299999 0 0 2 3 4 6 0 0 0 11.8963872
1027 4 18.6700001 -9.4630003 8.3260002 0 0 0 1 12 2 0 0 0 13.1243305
1047 4 -8.559 20.8600006 2.73 0 0 0 3 6 6 0 0 0 11.5208512
1050 1 1.556 -10.1899996 18.5599995 0 0 0 2 8 2 0 0 0 10.7333403
1051 4 6.3249998 16.8899994 -19.5799999 0 0 0 0 12 0 0 0 0 10.4637642
1055 2 10.8100004 5.3639999 -8.1169996 0 0 1 3 5 4 0 0 0 10.827569
1057 4 13.8000002 -8.3210001 -12.0799999 0 0 0 1 10 2 0 0 0 12.0587254
1059 4 -5.027 12.9200002 2.599 0 0 0 4 6 4 0 0 0 11.861886
1063 5 -10.2100001 9.672 9.3039999 0 0 0 1 10 3 0 0 0 12.2811117
1072 4 -11.4700003 21.5699997 9.4139996 0 0 1 2 7 5 0 0 0 12.6696148
1089 4 13.4799996 -20.3099995 -16.5 0 0 0 0 12 3 0 0 0 12.9543514
1094 5 -17.9099998 0.6984 11.1700001 0 0 1 3 7 3 0 0 0 12.740778
1102 5 19.5499993 -19.3999996 -15.96 0 0 0 0 12 0 0 0 0 10.980072
1110 5 3.0999999 -2.474 18.8199997 0 0 2 3 6 4 0 0 0 12.0035954
1118 1 15.0500002 -13.9499998 1.046 0 0 0 0 12 0 0 0 0 11.7971506
1128 2 3.937 -19.1700001 0.6839 0 0 0 0 12 0 0 0 0 11.0630388
1153 5 6.6090002 -15.25 19.2199993 0 0 0 2 10 1 0 0 0 12.4762831
1159 4 4.5510001 -9.8690004 15.2600002 0 0 0 2 8 4 0 0 0 12.424675
1167 4 -5.7280002 20.9099998 -12.4899998 0 0 0 1 10 2 0 0 0 12.6015311
1169 2 17.5200005 2.0699999 -19.7600003 0 0 0 0 12 0 0 0 0 11.1800871
1178 2 8.8330002 5.8270002 10.0900002 0 0 1 2 7 2 0 0 0 11.4106016
1187 5 -2.3570001 18.6299992 -13.7700005 0 0 0 1 9 3 1 0 0 11.9671316
1188 4 13.0299997 16.1100006 7.994 0 0 0 0 12 2 0 0 0 12.1278954
1190 2 6.632 -17.8299999 -17.0200005 0 0 1 2 7 3 0 0 0 11.2203894
1194 5 -16.6000004 12.5500002 17.5499993 0 0 0 2 8 4 0 0 0 12.1895046
1199 4 -14.1199999 -10.0299997 -15.1400003 0 0 1 0 11 3 0 0 0 12.8449306
1214 5 -8.3339996 8.7919998 -21.7399998 0 0 0 3 5 3 1 0 0 12.4069786
1222 1 -6.9650002 16.7000008 -1.808 0 0 0 2 10 1 0 0 0 12.2952376
1244 3 -7.6919999 -10.8100004 -9.3520002 0 0 0 0 12 0 0 0 0 11.3408508
1247 1 13.7700005 0.879 -20.0300007 0 0 1 2 5 3 2 0 0 11.6485043
1261 4 7.1830001 18.8700008 20.5200005 0 0 2 3 4 3 2 0 0 11.7560702
1264 2 12.0 17.2600002 10.25 0 0 0 1 10 2 0 0 0 12.0318069
1272 4 19.2800007 18.5 -9.2910004 0 0 0 3 6 5 0 0 0 12.3564091
1276 4 -18.2900009 -20.7999993 9.2370005 0 0 0 3 6 5 0 0 0 11.7797499
1280 5 -6.8169999 1.234 -11.5 0 0 0 1 10 2 0 0 0 12.0898047
1283 4 20.6599999 2.7679999 12.9099998 0 0 0 2 10 2 0 0 0 12.8673038
1288 5 -9.1289997 -9.3260002 15.8400002 0 0 0 5 5 2 1 0 0 12.6456967
1299 4 -2.3499999 -10.9799996 6.1630001 0 0 0 2 8 6 0 0 0 12.7305708
1302 4 8.7349997 -1.629 -18.8999996 0 0 1 1 11 2 0 0 0 12.9878236
1303 2 -2.79 5.4169998 -0.2268 0 0 0 2 10 0 0 0 0 11.8095761
1305 5 10.3800001 14.04 4.6620002 0 0 0 0 12 2 0 0 0 12.3207207
1320 2 -10.4399996 12.8299999 12.0200005 0 0 0 0 12 0 0 0 0 11.5701428
1338 2 -6.3260002 20.8500004 -19.1599999 0 0 1 2 7 2 0 0 0 11.2397347
1339 5 7.612 2.4500001 3.6819999 0 0 1 2 7 6 0 0 0 13.2627754
1342 4 -8.1450005 18.4799996 18.0300007 0 0 0 1 10 4 0 0 0 13.0932121
1363 2 -6.6139999 -4.4510002 2.326 0 0 0 0 12 2 0 0 0 12.0887032
1365 4 17.4400006 -10.04 -16.7700005 0 0 0 1 12 2 0 0 0 12.2344589
1370 4 -17.4899998 -20.0499992 15.7700005 0 0 0 2 9 3 1 0 0 13.4312239
1377 4 -4.1399999 -3.944 -12.5 0 0 1 2 7 5 0 0 0 12.4676867
1387 3 -12.9099998 -22.0400009 6.4470001 0 0 0 1 12 2 0 0 0 12.7624045
1391 4 7.7430001 21.3899994 -13.3100004 0 0 0 4 8 2 0 0 0 12.1697197
1398 4 -18.8099995 -6.3860002 -17.2299996 0 0 1 2 9 3 0 0 0 13.0145082
1434 5 -9.2959995 9.3450003 -11.3299999 0 0 0 4 4 6 0 0 0 13.0090427
1435 4 -19.0599995 -11.8400002 -3.168 0 0 0 2 8 4 0 0 0 12.012372
1445 2 5.6659999 3.072 8.526 0 0 0 2 8 2 0 0 0 11.9380512
1456 4 -7.0079999 -10.29 -19.8099995 0 0 0 2 8 5 0 0 0 12.8680068
1457 4 -5.6079998 2.7650001 3.714 0 0 0 1 10 2 0 0 0 11.6565562
1463 4 6.7810002 17.3899994 0.417 0 0 0 3 7 1 1 0 0 12.2382698
1477 2 -1.777 -6.5430002 -19.4400006 0 0 0 3 6 4 0 0 0 11.5768242
1478 2 20.0900002 17.6399994 6.1040001 0 0 1 2 6 3 1 0 0 11.5643482
1492 5 -1.252 20.2199993 9.8050003 0 0 1 2 7 4 0 0 0 11.7805281
1502 5 4.086 6.4590001 -4.5949998 0 0 0 0 12 0 0 0 0 11.7943583
1505 4 -5.4720001 19.9699994 21.4099999 0 0 1 1 9 3 2 0 0 13.2831125
1509 5 6.3530002 -19.4799996 16.6900006 0 0 0 4 6 4 0 0 0 12.2844191
1515 5 -7.4860001 0.8541 -19.4200001 0 0 0 0 12 0 0 0 0 11.3598461
1523 2 -7.954 13.3199997 -21.3299999 0 0 0 2 8 2 0 0 0 10.892295
1545 4 6.204 -8.974 -16.3099995 0 0 1 2 7 3 0 0 0 11.1951704
1556 5 15.5100003 -6.974 -7.8600002 0 0 0 1 10 4 0 0 0 12.7391596
1565 2 -18.7999993 -7.5479999 -5.6370001 0 0 0 0 12 0 0 0 0 10.5748701
1583 2 -3.5950001 -7.3740001 2.53 0 0 1 3 5 5 0 0 0 12.108017
1587 5 -15.7200003 -0.1154 -14.5 0 0 0 1 10 2 0 0 0 11.5673132
1599 4 15.4300003 18.5900002 -20.8299999 0 0 1 2 6 5 1 0 0 12.8136473
1605 5 13.7399998 12.54 -2.883 0 0 0 2 8 5 0 0 0 13.1515169
1607 4 0.5546 11.0200005 18.4599991 0 0 0 0 12 0 0 0 0 11.3733101
1615 4 13.25 20.7199993 0.2643 0 0 0 4 6 3 0 0 0 11.6372948
1620 4 -11.6199999 -1.283 19.6900006 0 0 0 2 8 4 0 0 0 13.1475172
1627 4 -18.5400009 -20.0100002 -9.2840004 0 0 0 0 12 0 0 0 0 10.5065861
1634 5 13.8900004 18.1200008 -6.2509999 0 0 0 2 10 1 0 0 0 12.2175875
1642 4 9.7110005 -19.5 6.0139999 0 0 0 2 8 5 0 0 0 11.9764596
1657 5 -7.7919998 15.5799999 13.79 0 0 0 0 12 2 0 0 0 12.9616462
1663 2 -5.9980002 -3.2590001 11.0500002 0 0 0 0 12 0 0 0 0 11.4448576
1669 4 -8.0710001 -20.3299999 -5.3899999 0 0 0 0 12 3 0 0 0 13.3286591
1692 5 -16.5100003 -20.9500008 11.6400004 0 0 0 2 8 3 0 0 0 12.0504389
1694 2 10.4399996 -17.6200009 -3.7060001 0 0 0 2 9 2 0 0 0 11.6973057
1698 4 -5.3150001 -1.5440001 20.9799996 0 0 0 1 10 2 0 0 0 11.5626612
1702 2 6.908 -10.3000002 14.5799999 0 0 2 1 6 3 0 0 0 11.0058413
1706 4 6.6149998 0.05377 -9.4429999 0 0 0 3 6 4 0 0 0 11.8135758
1722 5 -1.653 -1.75 -1.9220002 0 0 0 4 7 3 1 0 0 12.7679444
1726 5 3.428 -8.0740004 -6.0539999 0 0 0 1 10 2 0 0 0 11.7470265
1730 5 15.25 19.9500008 9.2539997 0 0 1 3 4 5 1 0 0 12.261034
1766 4 -6.7249999 -18.6100006 -3.412 0 0 0 0 12 2 0 0 0 12.6849566
1774 4 -0.1477 1.553 -12.5100003 0 0 0 2 10 3 0 0 0 13.5374508
1795 4 -0.6874 20.5499993 -13.3900004 0 0 0 0 12 0 0 0 0 10.9523916
1805 4 -14.54 17.7999993 9.3579998 0 0 0 1 10 4 0 0 0 12.5804386
1807 4 18.5599995 -8.1099997 14.4600001 0 0 0 1 10 3 0 0 0 12.0029078
1812 4 11.4700003 -8.2770004 15.3900004 0 0 1 2 7 7 0 0 0 12.6477003
1818 4 -5.408 0.5074 17.1299992 0 0 0 2 8 4 0 0 0 12.2494192
1829 5 -9.2869997 16.6399994 -19.3899994 0 0 0 0 12 0 0 0 0 10.9039898
1847 4 4.5999999 -21.6200009 -10.6899996 0 0 0 0 12 0 0 0 0 11.0915976
1851 1 -2.398 20.4500008 16.1700001 0 0 0 0 12 0 0 0 0 10.8627416
1865 2 12.4499998 -6.73 5.9840002 0 0 0 2 9 3 1 0 0 12.9971342
1873 4 2.997 -19.8099995 5.5999999 0 0 0 1 10 3 0 0 0 13.7753563
1882 2 11.6199999 12.1499996 15.5299998 0 0 0 2 8 4 0 0 0 12.5201454
1897 4 20.3099995 -0.2923 15.6899996 0 0 0 3 6 5 0 0 0 12.0267239
1905 4 -9.5459996 -5.7430001 12.0799999 0 0 0 2 10 3 0 0 0 13.2392826
1906 2 -5.7870002 17.3600006 0.909 0 0 0 2 8 2 0 0 0 10.9475356
1920 5 11.2200003 -5.0500002 7.5180002 0 0 0 1 10 4 0 0 0 13.1846132
1942 5 4.4489999 -19.5300007 15.1800003 0 0 0 5 5 3 0 0 0 11.7535525
1947 5 3.2939999 6.211 10.4899998 0 0 0 3 6 4 0 0 0 12.3833456
1951 4 8.0970001 21.2299996 17.2399998 0 0 0 0 12 2 0 0 0 12.6931114
1965 2 -5.5520001 1.285 -20.8899994 0 0 0 1 10 2 0 0 0 12.1763687
1970 2 18.6000004 19.5300007 -19.0499992 0 0 0 0 12 0 0 0 0 11.7975903
1975 4 -5.665 2.4549999 -18.8099995 0 0 0 1 9 3 1 0 0 12.6025925
1990 5 7.4310003 -8.7869997 -5.3130002 0 0 0 0 12 0 0 0 0 10.9692288
2013 5 1.086 12.4399996 -5.7740002 0 0 0 2 8 3 0 0 0 11.6426144
2016 4 -19.4200001 -13.5299998 13.7399998 0 0 0 3 8 2 0 0 0 12.2083874
2020 2 -3.569e-04 -9.0950003 -17.3700009 0 0 0 0 12 0 0 0 0 10.6632519
2029 4 2.846 3.4430001 15.9399996 0 0 0 3 8 3 0 0 0 12.1804409
2041 5 18.0300007 1.301 16.2600002 0 0 0 0 12 2 0 0 0 13.0113201
2046 2 -15.0200005 -9.7340002 4.553 0 0 1 3 5 3 0 0 0 12.1132374
2053 2 -14.6800003 6.48 -1.5390001 0 0 0 1 12 1 0 0 0 12.8770972
2054 4 15.1700001 -3.128 6.8039999 0 0 0 1 10 4 0 0 0 13.2698002
2066 5 -6.356 -17.3600006 10.2799997 0 0 0 1 10 4 0 0 0 13.182353
2082 2 -14.54 -14.2399998 -12.4499998 0 0 0 3 8 3 0 0 0 12.3179722
2085 5 22.2700005 18.6900006 -17.8600006 0 0 0 0 12 0 0 0 0 11.1177988
2089 1 -11.8100004 -5.04 12.1400003 0 0 0 3 6 3 0 0 0 11.6052046
2097 5 0.4527 -7.2719998 -1.146 0 0 0 1 12 2 0 0 0 13.4764796
2104 2 17.1200008 -18.7299996 -15.8000002 0 0 0 0 12 0 0 0 0 10.7932148
2116 5 13.2299996 -14.9399996 -11.2299996 0 0 0 4 4 4 0 0 0 11.7653942
2119 2 -13.0900002 14.5100003 -4.1420002 0 0 0 0 12 0 0 0 0 11.5883932
2124 5 16.2999992 -15.4799996 13.6599999 0 0 0 1 10 2 0 0 0 11.7865515
2126 5 14.7200003 -6.6900001 -13.4700003 0 0 0 2 8 3 0 0 0 12.4126225
2144 4 12.5699997 7.349 4.5619998 0 0 0 0 12 2 0 0 0 11.838934
2147 1 13.1800003 -14.1999998 -16.1399994 0 0 0 0 12 0 0 0 0 11.128643
2148 2 13.6300001 9.9130002 -6.855 0 0 1 2 9 1 0 0 0 11.2367401
2151 2 -8.3809996 6.843 21.2600002 0 0 0 0 12 0 0 0 0 11.6518917
2163 2 -2.076 15.7399998 10.4200001 0 0 1 0 9 3 0 0 0 11.4988976
2169 1 -20.3099995 -21.4799996 -7.7670002 0 0 0 1 10 3 0 0 0 11.7699003
2180 5 1.906 1.651 -9.9510002 0 0 1 4 6 3 1 0 0 13.0591812
2183 2 19.0300007 6.6570001 -12.8900004 0 0 0 0 12 0 0 0 0 11.3233605
2202 4 -12.3599997 11.8800002 18.8899994 0 0 0 1 10 4 0 0 0 12.4844494
2208 2 8.7849999 12.1300001 3.434 0 0 0 1 10 2 0 0 0 11.957409
2213 2 -18.3700009 -9.6160002 12.96 0 0 0 4 6 2 0 0 0 11.7708264
2214 2 4.547 -0.05537 -4.3249998 0 0 0 4 8 0 0 0 0 11.8005495
2219 5 19.7900009 -18.0499992 11.5299998 0 0 0 3 8 1 0 0 0 11.4643755
2224 5 -9.0539999 -18.4500008 -17.5200005 0 0 1 1 9 0 2 0 0 11.7555781
2228 5 -9.3369999 16.3500004 -14.2600002 0 0 1 0 9 3 0 0 0 11.748003
2232 3 4.4099999 -17.5900002 -9.5760002 0 0 0 2 8 5 0 0 0 12.4841099
2256 2 -14.2299996 3.424 -16.3199997 0 0 2 2 6 4 0 0 0 11.4869156
2265 2 20.9099998 0.1923 -13.0600004 0 0 0 0 12 0 0 0 0 11.1754828
2273 5 11.6300001 -20.7199993 9.4350004 0 0 0 0 12 2 0 0 0 12.2483397
2274 1 20.4400006 6.4310003 7.289 0 0 0 2 10 2 0 0 0 12.0983019
2284 5 14.4600001 14.3900004 -14.8100004 0 0 0 1 10 4 0 0 0 13.0715466
2285 4 -7.0440002 -8.1309996 -21.8299999 0 0 1 1 9 3 0 0 0 12.353715
2295 1 -13.4600001 12.0 5.981 0 0 0 0 12 0 0 0 0 11.1463203
2296 4 -16.3299999 2.7890001 8.4910002 0 0 0 2 8 4 0 0 0 12.7268057
2298 5 13.7799998 21.0599995 -6.5830002 0 0 0 1 10 4 0 0 0 12.7979546
2304 4 13.8800002 -8.1160002 10.8500004 0 0 0 1 10 4 0 0 0 12.4739504
2314 4 -2.744 21.4300003 -20.8600006 0 0 2 3 5 4 1 0 0 12.6161843
2317 4 -1.29 1.962 19.7000008 0 0 0 0 12 0 0 0 0 11.3837776
2322 4 6.7800002 -7.711 -9.2299996 0 0 0 3 6 1 2 0 0 11.3622112
2337 5 18.5300007 -9.3529997 -14.7600003 0 0 0 4 5 4 1 0 0 11.9994698
2341 4 18.9500008 -6.033 -14.54 0 0 1 1 9 3 0 0 0 12.3143683
2354 2 -16.2299996 19.4500008 -9.3039999 0 0 0 3 6 4 0 0 0 11.5677796
2368 2 2.892 -15.3800001 -15.3599997 0 0 0 1 10 2 0 0 0 11.9089452
2369 5 1.064 14.2600002 -10.1000004 0 0 0 1 10 5 0 0 0 12.9817772
2380 4 -18.8700008 -14.29 11.4499998 0 0 0 2 8 1 2 0 0 11.9533272
2385 4 -8.3690004 3.0139999 14.1899996 0 0 0 1 12 3 0 0 0 13.2522669
2386 2 20.7399998 20.9400006 -21.8299999 0 0 0 4 8 0 0 0 0 11.6902142
2407 2 2.082 8.0150003 1.966 0 0 0 4 6 2 0 0 0 10.7952252
2414 1 18.3400002 -12.5900002 -17.1200008 0 0 0 3 8 2 0 0 0 11.0560989
2418 4 -16.5 20.0300007 4.9970002 0 0 0 3 8 2 0 0 0 11.9046154
2427 4 -7.4169998 1.14 -16.7299996 0 0 0 1 10 3 0 0 0 12.254345
2429 5 19.2399998 -17.3099995 20.75 0 0 0 1 9 2 1 0 0 12.1103325
2430 2 -17.8099995 1.356 -14.0500002 0 0 0 1 10 2 0 0 0 12.1544714
2441 2 -8.04 -17.1299992 8.2700005 0 0 0 3 8 2 0 0 0 12.5730906
2442 4 20.3500004 2.1129999 -20.5799999 0 0 0 0 12 3 0 0 0 13.3334217
2443 5 21.5699997 20.5799999 2.8640002 0 0 0 3 6 5 0 0 0 12.5632
2446 2 7.829 -9.8760004 -12.7399998 0 0 0 2 8 2 0 0 0 11.5039912
2451 2 -10.87 -4.1960001 1.187 0 0 0 1 10 2 0 0 0 11.2895041
2457 4 14.1599999 3.658 7.2909999 0 0 1 2 9 3 0 0 0 13.0103321
2466 2 -18.1399994 4.2189999 7.6939998 0 0 0 0 12 0 0 0 0 11.0090227
2482 5 -7.8070002 0.6427 -21.6700001 0 0 1 1 9 2 0 0 0 11.8359509
2489 2 5.863 -5.8130002 -8.2650004 0 0 0 3 6 4 0 0 0 11.4002285
2494 2 -12.0799999 -4.4470001 -8.5699997 0 0 0 0 12 0 0 0 0 11.7547417
2496 4 7.231 8.2259998 7.2870002 0 0 0 2 9 3 0 0 0 12.5632019
2506 2 -8.2180004 20.3400002 0.3616 0 0 0 1 10 3 0 0 0 11.9321508
2513 5 17.5799999 17.3700009 -20.0200005 0 0 0 1 10 3 0 0 0 12.5150118
2520 4 -16.5400009 -11.7200003 18.7900009 0 0 0 2 10 2 0 0 0 12.5476885
2521 2 1.855 14.9700004 9.9180002 0 0 0 0 12 0 0 0 0 11.0836763
2523 4 15.5299998 12.1499996 21.0900002 0 0 1 1 9 4 0 0 0 12.7434263
2527 1 -8.757 -11.0699997 -13.4700003 0 0 0 2 8 3 0 0 0 11.5923977
2541 2 -6.0190001 13.8900004 19.9200002 0 0 0 4 8 1 0 0 0 11.7156544
2543 5 -12.5799999 1.535 -1.293 0 0 0 1 10 3 0 0 0 12.0726337
2545 5 -11.9899998 3.836 10.79 0 0 1 4 3 5 2 0 0 12.2322855
2548 2 -5.3509998 -6.389 -16.3899994 0 0 2 2 4 5 0 0 0 11.375063
2553 2 -5.4980002 3.4530001 -12.3900004 0 0 0 2 8 4 0 0 0 12.3013659
2557 4 1.355 16.9799996 -14.54 0 0 0 2 8 4 0 0 0 12.4846268
2562 5 -2.0079999 18.5900002 -20.2399998 0 0 0 2 10 2 0 0 0 13.1105051
2564 4 9.6280003 9.7049999 -12.1000004 0 0 0 3 6 6 0 0 0 12.4983759
2573 5 15.1400003 -3.87 13.9099998 0 0 0 3 6 5 0 0 0 12.6115599
2574 2 -5.5819998 -21.2099991 4.0149999 0 0 0 0 12 0 0 0 0 11.0407696
2594 2 9.5080004 -2.2650001 -7.995 0 0 1 1 9 2 2 0 0 12.1104755
2596 4 18.8199997 15.2399998 19.9899998 0 0 0 2 8 4 0 0 0 11.8242874
2600 1 20.8199997 -6.9390002 -1.6870001 0 0 0 0 12 0 0 0 0 10.8822966
2619 5 -5.2280002 -7.257 21.0200005 0 0 0 0 12 2 0 0 0 12.0006752
2627 4 0.8526 -14.8800002 -16.5799999 0 0 1 2 7 4 0 0 0 12.3128376
2632 4 4.8449998 0.8614 -20.6700001 0 0 0 4 8 1 0 0 0 12.6815424
2644 2 7.422 17.6100006 10.0600004 0 0 0 1 10 3 0 0 0 12.3700247
2647 4 17.6700001 -5.843 -18.6100006 0 0 1 1 9 2 2 0 0 12.0865421
2657 4 -9.599 18.8700008 -14.8900004 0 0 0 1 9 3 1 0 0 12.8959894
2664 5 -15.9700004 -4.961 -18.2099991 0 0 0 3 7 2 1 0 0 11.7990608
2673 4 -18.0 -4.395 14.2600002 0 0 0 3 8 4 0 0 0 13.0644989
2675 4 -8.9090004 4.87 10.0100002 0 0 0 2 8 4 0 0 0 12.1225452
2680 4 -14.5699997 12.96 -2.3800001 0 0 0 0 12 3 0 0 0 12.4059296
2695 4 -0.7814 -7.0349998 21.1800003 0 0 0 1 10 3 0 0 0 12.006361
2719 4 -17.1000004 -16.0400009 8.5609999 0 0 0 0 12 0 0 0 0 10.960146
2722 5 -13.9200002 20.8700008 0.8536 0 0 3 1 6 4 1 0 0 12.9689226
2752 2 20.0300007 16.2000008 -4.6479998 0 0 2 2 6 3 4 0 0 13.1742544
2754 5 -14.5500002 9.2189999 15.87 0 0 0 1 10 2 0 0 0 12.0382938
2760 5 -1.2330001 0.5103 -20.1299992 0 0 0 1 10 4 0 0 0 13.6798067
2768 2 11.2299996 5.8870002 -5.7350002 0 0 0 4 4 6 0 0 0 11.8210793
2774 4 13.6800003 1.169 6.776 0 0 0 1 10 4 0 0 0 13.3459816
2778 4 7.6339998 12.2100001 17.4799996 0 0 0 0 12 4 0 0 0 13.4856673
2782 4 -10.2299996 -21.0499992 13.1499996 0 0 0 1 10 4 0 0 0 13.4927273
2787 4 -18.3700009 2.095 6.5060001 0 0 1 3 4 6 1 0 0 12.5932837
2790 4 0.01934 17.9599992 3.165 0 0 0 1 10 3 0 0 0 12.8516284
2799 4 4.2649999 -12.0500002 -21.8199997 0 0 0 1 10 5 0 0 0 14.1923437
2800 4 -11.1000004 16.6700001 -20.7999993 0 0 0 3 6 4 0 0 0 11.4103022
2802 5 -1.1109999 11.6999998 10.8199997 0 0 0 3 8 3 0 0 0 12.101059
2814 4 -18.2900009 -7.7519999 8.1809998 0 0 0 2 8 5 0 0 0 12.7073078
2820 4 16.3600006 -11.0699997 9.0760002 0 0 0 4 7 3 0 0 0 12.4558172
2823 4 -9.7110005 12.3500004 18.6800003 0 0 0 2 8 5 0 0 0 13.1327047
2824 4 18.6900006 7.1090002 5.5710001 0 0 0 1 10 3 0 0 0 12.3589106
2830 4 -16.0799999 -21.6700001 -16.3400002 0 0 0 2 10 2 0 0 0 12.7352352
2848 4 16.9799996 -17.2600002 1.057 0 0 0 3 6 5 0 0 0 11.413743
2851 3 -12.2299996 2.1860001 -15.8900004 0 0 0 2 8 4 0 0 0 12.3745995
2857 4 -0.3409 20.9300004 -2.764 0 0 0 1 10 3 0 0 0 12.4136648
2885 2 18.2700005 17.4500008 -17.5799999 0 0 0 0 12 3 0 0 0 13.0964165
2895 4 6.936 -19.7700005 -4.9569998 0 0 0 2 8 4 0 0 0 12.3817406
2899 5 19.3600006 -12.1999998 -1.4730001 0 0 1 0 9 3 0 0 0 11.249157
2906 4 17.6299992 9.6680002 1.992 0 0 0 1 10 3 0 0 0 12.0549412
2908 5 -0.1851 8.5439997 0.6506 0 0 1 2 9 1 0 0 0 11.6321039
2914 2 1.087 -1.76 -6.2950001 0 0 0 0 12 0 0 0 0 10.719472
2932 4 -9.1440001 -14.29 -1.4910001 0 0 0 1 10 3 0 0 0 12.5342388
2955 4 -5.4569998 8.5649996 -13.7600003 0 0 0 3 8 4 0 0 0 12.7798214
2966 5 -17.5599995 10.2299996 11.8199997 0 0 0 3 8 3 0 0 0 12.3176155
2975 5 9.5500002 -4.949 -6.651 0 0 0 3 7 4 0 0 0 12.2620077
2985 4 -0.7936 3.7130001 -16.5499993 0 0 0 1 10 3 0 0 0 12.6700773
2993 4 16.0499992 -0.3643 10.0699997 0 0 0 3 8 3 0 0 0 12.3174963
2994 4 -9.54 -14.96 -14.5500002 0 0 0 1 10 4 0 0 0 11.7969589
3004 5 13.6700001 -2.4319999 -9.264 0 0 0 1 12 3 0 0 0 13.7218743
3009 4 9.7119999 -10.29 -7.8350001 0 0 0 3 10 1 0 0 0 12.5048018
3020 5 10.8800002 20.2700005 -9.5629998 0 0 0 3 8 2 0 0 0 12.1688824
3025 2 -15.4399996 -9.2510004 -3.5810001 0 0 0 2 10 2 0 0 0 11.8187952
3038 2 -15.6800003 6.4759999 20.0200005 0 0 0 0 12 0 0 0 0 11.3512135
3060 4 -8.4180002 20.9400006 -15.6599999 0 0 0 0 12 0 0 0 0 11.7038546
3068 2 7.5939999 3.655 6.4710002 0 0 0 1 10 4 0 0 0 13.2618256
3100 4 -0.3358 2.2379999 0.3063 0 0 0 1 10 3 0 0 0 12.5820465
3113 2 -18.4799996 -19.2299996 -14.79 0 0 0 1 10 2 0 0 0 12.3257542
3115 4 0.9988 8.2950001 -2.6310001 0 0 1 4 4 5 1 0 0 12.7998667
3118 4 4.8140002 -2.4719999 -3.1470001 0 0 0 1 10 4 0 0 0 12.8346892
3134 2 6.2420001 7.7519999 -14.8000002 0 0 0 2 8 3 0 0 0 11.670682
3150 2 19.4599991 19.1399994 8.0710001 0 0 0 0 12 2 0 0 0 12.7526284
3151 4 -13.9399996 16.3799992 20.3799992 0 0 0 2 8 4 0 0 0 11.5770426
3152 4 1.145 -17.0799999 -15.4399996 0 0 1 2 7 3 0 0 0 11.4974938
3158 2 14.3699999 -7.3660002 4.0929999 0 0 0 1 10 2 0 0 0 11.8025637
3159 5 -4.257 15.3900004 -5.5760002 0 0 1 2 7 2 2 0 0 11.2179108
3165 5 14.6899996 -15.25 18.5400009 0 0 0 2 8 4 0 0 0 12.6680641
3167 2 0.7795 2.5899999 20.7700005 0 0 0 3 8 3 0 0 0 12.2860508
3174 4 -2.6559999 -0.1312 -5.2560001 0 0 0 2 10 3 0 0 0 12.6700421
3180 2 19.9699994 19.7900009 -6.8400002 0 0 0 3 6 4 0 0 0 12.0027561
3182 4 18.2800007 -18.6900006 -18.2399998 0 0 0 1 10 5 0 0 0 13.1734791
3185 5 2.737 5.3340001 6.5960002 0 0 0 2 9 3 1 0 0 12.7089052
3186 5 8.8760004 -1.351 -1.953 0 0 1 1 8 3 1 0 0 12.1561165
3189 5 -18.6000004 -13.7299996 19.0300007 0 0 0 2 8 5 0 0 0 12.2868109
3199 5 11.5500002 18.6399994 0.3599 0 0 0 2 10 1 0 0 0 12.8004685
3201 5 -13.1300001 19.6700001 -12.7600003 0 0 0 3 6 4 0 0 0 11.5199204
3220 4 -6.8299999 19.4400006 -14.4300003 0 0 0 1 10 2 0 0 0 12.9447184
3222 4 16.2199993 -2.468 -9.8179999 0 0 0 3 6 5 0 0 0 12.5930214
3230 5 -17.1800003 7.006 -7.2940002 0 0 0 2 10 2 0 0 0 12.3057394
3234 4 -4.8210001 -7.2470002 5.1170001 0 0 0 0 12 3 0 0 0 13.077343
3240 1 5.0450001 8.3789997 -12.6199999 0 0 0 4 6 4 0 0 0 12.4250279
3241 4 -10.8000002 21.2999992 -14.4899998 0 0 0 1 10 5 0 0 0 13.8517742
3246 5 1.113 -21.2900009 4.0739999 0 0 0 5 4 7 0 0 0 13.9813108
3267 5 6.5650001 -13.9499998 -7.7049999 0 0 0 2 10 4 0 0 0 12.4271679
3286 5 13.8199997 -7.915 15.0500002 0 0 0 2 8 2 0 0 0 11.3587847
3287 5 12.4300003 15.3299999 -16.4099999 0 0 0 0 12 0 0 0 0 11.3738699
3295 4 -17.9799996 -1.814 -19.9500008 0 0 0 4 8 2 0 0 0 12.5687933
3298 5 6.2839999 -20.9400006 14.4300003 0 0 1 1 9 0 2 0 0 11.9533224
3301 5 20.75 16.0200005 -7.198 0 0 0 1 10 2 0 0 0 11.6485691
3315 4 5.7839999 -10.3500004 10.0 0 0 1 1 9 2 0 0 0 11.897751
3323 5 -15.3900004 1.122 12.3999996 0 0 0 1 10 4 0 0 0 14.146924
3337 5 -6.868 -16.8700008 1.012 0 0 0 2 10 3 0 0 0 12.5311547
3343 5 -9.7329998 19.3400002 -6.48 0 0 1 0 9 3 0 0 0 11.7730503
3346 2 -16.1900005 -15.8400002 -4.243 0 0 0 1 10 2 0 0 0 11.6403694
3357 4 -10.8100004 12.54 -6.5560003 0 0 0 2 8 4 0 0 0 12.3599987
3362 1 -16.9099998 -5.6939998 -20.6499996 0 0 0 3 6 5 0 0 0 11.4591208
3365 5 -14.9799996 -2.8310001 -0.5384 0 0 0 4 6 3 0 0 0 12.8279639
3387 5 20.2700005 17.7099991 -19.3299999 0 0 0 0 12 2 0 0 0 12.080699
3406 5 -8.7819996 6.6609998 -0.5477 0 0 0 0 12 0 0 0 0 11.2224188
3408 5 -14.0600004 4.434 -13.8500004 0 0 0 0 12 2 0 0 0 11.6993695
3414 2 20.4599991 20.9400006 -4.8369999 0 0 0 3 6 3 0 0 0 11.392231
3433 4 0.03719 18.1399994 -12.3199997 0 0 0 0 12 3 0 0 0 12.5595598
3444 5 14.7299996 -13.1499996 3.392 0 0 0 2 9 2 1 0 0 12.4323282
3446 4 12.6800003 -10.0600004 6.8470002 0 0 0 3 7 5 1 0 0 13.3035803
3454 2 11.7700005 14.5799999 2.5209999 0 0 0 1 10 2 0 0 0 11.1068611
3456 5 -17.1800003 -19.6599999 6.935 0 0 2 2 5 5 1 0 0 12.026248
3465 5 -10.75 0.5443 -9.066 0 0 0 0 12 0 0 0 0 11.3998232
3467 4 5.066 -6.6009999 -10.54 0 0 0 2 8 3 0 0 0 11.9003458
3471 2 -15.2100001 -20.9400006 16.6900006 0 0 0 0 12 0 0 0 0 11.1308918
3481 4 3.198 -14.6000004 -17.6499996 0 0 0 2 10 0 0 0 0 11.3700314
3482 3 -13.8199997 8.4840002 4.2709999 0 0 0 2 8 4 0 0 0 11.98141
3489 2 -3.7920001 -7.5890003 -19.4799996 0 0 0 1 10 2 0 0 0 11.5898609
3497 2 20.1299992 11.0500002 7.7069998 0 0 1 2 5 5 0 0 0 11.6499796
3501 4 10.4399996 -6.2490001 9.776 0 0 1 2 7 3 0 0 0 11.9075174
3507 5 -18.7600003 -11.6599999 17.7399998 0 0 1 3 7 3 0 0 0 11.9319468
3516 4 19.9899998 -9.2060003 2.523 0 0 0 1 10 3 0 0 0 12.3509817
3529 5 14.6999998 -8.7480002 -1.8890002 0 0 0 1 10 2 0 0 0 11.8747722
3536 5 -16.7199993 -22.2099991 1.301 0 0 0 2 10 2 0 0 0 12.4674101
3540 4 4.579 3.244 -8.1079998 0 0 1 2 7 4 0 0 0 12.287674
3544 4 -8.96 3.112 21.4599991 0 0 0 2 8 4 0 0 0 12.3081236
3561 5 -1.92 14.2100001 6.1440001 0 0 0 2 10 2 0 0 0 12.5235825
3563 2 -9.2720003 -7.2059999 -22.0900002 0 0 0 1 10 2 0 0 0 11.6627941
3569 2 -15.6300001 -6.56 -13.5100003 0 0 0 0 12 0 0 0 0 11.2942104
3571 4 1.031 10.1499996 -0.9655 0 0 0 4 6 5 0 0 0 12.9070884