ITEM: TIMESTEP
0
ITEM: NUMBER OF ATOMS
50688
ITEM: BOX BOUNDS xy xz yz pp pp pp
-40.1340523 49.7707138 9.6366616
-43.8030052 43.8030052 0.0
-43.7915344 43.7915344 0.0
ITEM: ATOMS id type x y z VoronoiIndex1 VoronoiIndex2 VoronoiIndex3 VoronoiIndex4 VoronoiIndex5 VoronoiIndex6 VoronoiIndex7 VoronoiIndex8 VoronoiIndex9 AtomicVolume
2 2 -13.5799999 -19.1200008 -8.3830004 0 0 0 2 8 2 0 0 0 11.1854763
4 2 -29.6100006 -20.8700008 -19.4400006 0 0 0 3 8 2 0 0 0 11.4571381
15 4 -8.0290003 -25.7600003 -21.2000008 0 0 0 1 8 4 0 0 0 12.8171988
23 2 -16.0900002 -31.8199997 -14.2299996 0 0 1 1 9 4 0 0 0 12.3729983
32 5 -37.4199982 -21.8899994 -35.8499986 0 0 2 2 4 3 2 0 0 12.7406168
33 1 -12.6300001 -5.4879999 -26.8899994 0 0 1 1 8 3 1 0 0 11.870122
39 4 -22.8299999 -34.2099991 -41.6899987 0 0 0 1 12 2 0 0 0 12.8896046
45 4 -3.264 -14.9799996 -15.5 0 0 0 0 12 0 0 0 0 10.4138537
46 4 -28.6200009 -12.0500002 -43.0 0 0 0 1 9 2 1 0 0 12.1298256
68 4 -12.8299999 -9.797 -9.8190003 0 0 0 2 8 4 0 0 0 11.8984098
75 5 0.4911 -29.25 -36.3699989 0 0 0 2 8 6 0 0 0 13.0622091
88 5 -31.9099998 -31.1399994 -0.5201 0 0 2 3 3 3 1 0 0 11.6206055
90 4 -12.7299996 -43.2099991 -36.1399994 0 0 0 4 6 5 0 0 0 12.7972059
93 2 -34.3899994 -19.6200009 -25.6700001 0 0 0 4 4 4 0 0 0 11.9549904
97 5 -21.8199997 -9.026 -0.454 0 0 1 1 9 4 0 0 0 13.0199814
106 4 -11.79 -32.5999985 -2.7330001 0 0 0 1 10 2 0 0 0 11.0152941
109 4 -32.5 -10.1199999 -26.3600006 0 0 0 1 12 3 0 0 0 13.3921175
114 2 -9.7100001 -40.4700012 -6.7670002 0 0 0 3 6 4 0 0 0 11.5137615
118 2 -3.74 -35.5600014 -30.3899994 0 0 0 2 8 2 0 0 0 11.0565777
119 4 -33.8199997 -22.1100006 -19.3899994 0 0 0 1 10 5 0 0 0 13.4883747
122 4 -0.5244 -35.5400009 -33.0699997 0 0 0 1 10 4 0 0 0 12.8851214
141 4 -20.1000004 -11.0900002 -40.2200012 0 0 0 1 10 4 0 0 0 12.8015967
162 4 -3.3250001 -14.1700001 -34.4500008 0 0 0 0 12 2 0 0 0 12.0326405
164 1 -6.1690002 -8.1049995 -40.2099991 0 0 0 2 10 1 0 0 0 11.4723377
169 1 -0.6149 -12.7799998 -19.0200005 0 0 1 1 9 3 0 0 0 11.4386187
174 5 1.159 -8.2449999 -29.8500004 0 0 0 3 6 7 0 0 0 13.6752358
187 4 0.8897 -11.0600004 -21.8700008 0 0 0 2 8 2 0 0 0 11.7509327
199 1 -7.026 -31.6200009 -27.1800003 0 0 0 4 5 4 1 0 0 12.0466824
205 4 4.4250002 -2.9430002 -33.4099999 0 0 1 1 9 4 0 0 0 11.8123169
211 2 -36.619999 -24.8099995 -37.4599991 0 0 1 0 9 3 0 0 0 10.8959646
223 2 -3.6040001 -37.5600014 -23.0499992 0 0 1 2 7 4 0 0 0 11.7833672
227 4 -16.4500008 -6.816 -28.7099991 0 0 0 3 8 3 0 0 0 13.0297108
237 2 -13.79 -38.4000015 -34.1399994 0 0 0 0 12 0 0 0 0 11.2233305
253 5 -2.2449999 -4.4180002 -34.6100006 0 0 0 5 4 5 0 0 0 12.6671629
254 4 -6.6560002 -25.8099995 -4.0819998 0 0 0 2 8 3 0 0 0 11.2752504
258 2 -6.988 -37.3899994 -41.9500008 0 0 0 2 8 2 0 0 0 11.6477471
259 5 -3.868 -37.0900002 -34.6800003 0 0 0 0 10 2 0 0 0 12.4364739
265 5 -34.5800019 -22.0400009 -25.7000008 0 0 1 3 7 2 0 0 0 12.65409
275 5 -35.1300011 -21.2099991 -32.2599983 0 0 0 2 8 5 0 0 0 12.160389
281 4 -32.1300011 -43.7200012 -41.6500016 0 0 1 2 6 5 1 0 0 12.4130097
286 3 -14.1000004 -33.3300018 -23.3400002 0 0 0 2 10 3 0 0 0 12.6674967
290 4 -39.6599999 -42.7799988 -3.1440001 0 0 1 1 9 3 0 0 0 12.6062155
293 5 -19.2999992 -8.4790001 -43.4799996 0 0 0 4 8 1 0 0 0 12.9281102
297 5 -18.8700008 -8.3719998 -20.3299999 0 0 0 3 6 4 0 0 0 11.9322072
306 1 -0.6246 -17.5300007 -1.001 0 0 0 0 12 0 0 0 0 10.7675734
326 4 -24.4300003 -23.5400009 -10.4399996 0 0 0 1 10 2 0 0 0 12.4462643
338 5 -25.5900002 -33.9599992 -30.4500008 0 0 0 1 10 2 0 0 0 11.602046
339 4 -2.569 -38.9500008 -10.4300003 0 0 0 2 8 5 0 0 0 13.5082703
349 4 -24.3299999 -42.3899994 -16.5799999 0 0 0 0 12 2 0 0 0 12.9126388
350 4 -33.4500008 -14.6000004 -37.2700005 0 0 0 1 10 3 0 0 0 12.2892323
364 4 -5.474 -21.8299999 -41.869999 0 0 0 4 6 6 0 0 0 13.3642941
378 1 -5.5720001 -43.7999993 -17.4799996 0 0 0 2 8 2 0 0 0 11.4972782
387 3 -16.7199993 -23.7600003 -32.3699989 0 0 1 2 7 5 0 0 0 12.0626326
397 1 -7.3480001 -27.3799992 -25.1299992 0 0 0 3 6 4 0 0 0 11.4626141
403 4 -34.6500016 -33.1100006 -14.9300004 0 0 0 3 6 4 0 0 0 12.0661707
414 4 -11.4099999 -1.058 -7.6420002 0 0 0 2 10 3 0 0 0 12.4177075
415 4 -13.1199999 -3.0179999 -27.2299996 0 0 0 1 10 4 0 0 0 13.1626005
423 2 -28.6800003 -13.4200001 -26.1700001 0 0 0 0 12 0 0 0 0 11.6444903
424 3 -21.8999996 -37.4900017 -30.5200005 0 0 1 1 9 4 0 0 0 12.6587019
440 2 -10.5900002 -30.7800007 -36.8199997 0 0 1 1 8 2 1 0 0 12.3283453
458 1 -35.8400002 -28.3099995 -39.1100006 0 0 0 0 12 0 0 0 0 10.7415409
461 2 -20.6100006 -0.9578 -6.2659998 0 0 1 2 7 3 0 0 0 11.6958418
469 2 -7.322 -15.2700005 -7.073 0 0 1 3 7 2 0 0 0 11.8773518
477 2 -17.5900002 -18.6700001 -26.3899994 0 0 0 3 6 5 0 0 0 12.7199717
478 5 -12.1899996 -9.6009999 -32.5 0 0 1 2 7 3 2 0 0 12.6998616
483 4 -9.6639996 -6.4959998 -30.9099998 0 0 0 1 10 2 0 0 0 11.9200926
485 4 -15.4600001 -17.2099991 -4.2560001 0 0 0 2 10 2 0 0 0 12.5886441
495 4 -33.3400002 -25.6499996 -1.599 0 0 0 1 10 3 0 0 0 11.7743874
497 5 -3.2920001 -38.1899986 -42.6100006 0 0 0 2 10 0 0 0 0 11.5010243
508 4 -22.2000008 -23.4599991 -14.1300001 0 0 0 0 12 4 0 0 0 13.5871897
511 4 -20.6100006 -22.6200009 -35.6599999 0 0 0 3 6 6 0 0 0 12.4212122
514 2 -15.2299996 -24.2299996 -39.9099998 0 0 0 3 8 2 0 0 0 11.7925129
537 5 -19.5200005 -19.6599999 -14.1199999 0 0 0 2 8 5 0 0 0 13.094451
544 3 -30.7299996 -12.8299999 -39.1899986 0 0 0 2 8 3 0 0 0 12.1351328
546 2 -15.9099998 -13.1300001 -33.619999 0 0 0 2 10 2 0 0 0 11.8750038
553 4 -32.5900002 -27.9699994 -5.401 0 0 1 1 9 3 0 0 0 11.5431452
554 5 -19.4599991 -39.2900009 -18.5599995 0 0 0 1 10 2 0 0 0 11.479085
567 2 -9.2939997 -42.9599992 -18.2099991 0 0 0 3 8 3 0 0 0 12.2207604
574 4 -30.9200002 -23.7000008 -16.1800003 0 0 0 1 10 4 0 0 0 12.8814354
579 5 -19.7800007 -26.4500008 -25.5100003 0 0 2 2 6 4 0 0 0 12.7917099
595 4 -4.6680002 -24.0200005 -23.9599992 0 0 0 4 8 1 0 0 0 12.2612114
621 2 -28.6499996 -32.7999993 -7.1550002 0 0 0 1 10 2 0 0 0 11.970376
634 4 1.034 -0.252 -11.2299996 0 0 0 1 10 4 0 0 0 12.99747
644 2 -14.2600002 -8.6529999 -20.8099995 0 0 0 0 12 0 0 0 0 11.1803227
664 4 -3.2620001 -32.1399994 -37.7799988 0 0 0 0 12 0 0 0 0 10.9397298
670 4 -25.6200009 -19.7700005 -40.8600006 0 0 0 2 8 5 0 0 0 12.4022017
672 4 -0.7311 -42.6699982 -26.3299999 0 0 0 1 12 1 0 0 0 12.2806044
690 2 -19.1800003 -32.6800003 -36.5900002 0 0 0 2 8 2 0 0 0 11.4756499
699 4 -6.2589998 -22.0200005 -27.0799999 0 0 0 3 6 6 0 0 0 14.4550114
701 5 -17.5100003 -32.2299996 -2.889 0 0 0 3 8 2 0 0 0 12.0222731
702 5 -7.8779998 -34.5699997 -13.87 0 0 0 0 12 0 0 0 0 11.400734
708 4 0.3461 -3.1110001 -34.2099991 0 0 0 2 6 4 0 0 0 12.1309843
718 4 -20.6100006 -13.8800002 -30.7000008 0 0 0 0 12 2 0 0 0 12.4228163
731 4 -2.8510002 -20.1599999 -29.2999992 0 0 0 1 10 2 0 0 0 12.0940304
733 4 -16.3700009 -20.5900002 -25.0900002 0 0 0 2 8 5 0 0 0 12.99288
740 2 -34.6899987 -37.5800019 -41.9500008 0 0 0 0 12 0 0 0 0 10.7439184
766 4 -28.8400002 -12.1300001 -12.6499996 0 0 0 3 8 3 0 0 0 12.0644684
773 2 -14.1899996 -26.2199993 -30.3700009 0 0 0 2 8 4 0 0 0 11.84513
779 5 -12.2200003 -34.6399994 -18.7199993 0 0 0 3 7 4 0 0 0 13.4230871
782 2 1.0599999 -20.25 -9.0970001 0 0 1 0 9 3 0 0 0 11.7986079
783 5 -0.2599 -26.3299999 -16.8600006 0 0 0 1 10 2 0 0 0 11.6806355
792 4 -0.9662 -31.5599995 -36.4300003 0 0 1 0 10 3 1 0 0 13.4019194
800 2 -37.2299996 -37.3300018 -19.6599999 0 0 0 0 12 0 0 0 0 11.8470908
804 2 -8.1739998 -1.3430001 -39.4399987 0 0 0 2 10 3 0 0 0 13.1069098
824 5 -26.8299999 -23.2900009 -1.731 0 0 0 1 10 3 0 0 0 11.607462
827 2 -5.889 -36.7599983 -23.0599995 0 0 0 6 6 0 0 0 0 12.0492878
839 2 -25.2099991 -41.1899986 -2.3410001 0 0 0 2 8 5 0 0 0 12.3627157
853 4 -31.7000008 -8.6099997 -28.8199997 0 0 0 3 8 2 0 0 0 11.7899323
857 5 -28.4300003 -14.8900004 -17.6499996 0 0 0 3 8 2 0 0 0 11.5513649
858 4 -23.9500008 -10.3000002 -4.224 0 0 0 1 10 4 0 0 0 13.2228766
864 4 -0.2526 -12.3599997 -27.6399994 0 0 0 1 10 2 0 0 0 11.9000522
867 1 0.2293 -28.4699993 -20.5200005 0 0 0 2 8 2 0 0 0 10.9404306
907 5 -24.4599991 -27.7299996 -43.2299996 0 0 0 3 8 3 0 0 0 12.40693
912 5 -22.2000008 -42.7599983 -39.5 0 0 0 0 12 0 0 0 0 11.1561785
913 1 -11.87 -10.4700003 -23.9500008 0 0 1 2 9 1 0 0 0 11.7045393
918 4 -14.3000002 -18.7600003 -33.7999993 0 0 2 2 6 5 0 0 0 11.894187
919 5 -3.665 -14.8900004 -9.4510002 0 0 0 4 6 5 0 0 0 13.2062235
927 5 -17.2000008 -24.9699994 -29.5400009 0 0 0 2 8 5 0 0 0 12.740326
934 4 -21.3299999 -8.1219997 -26.8700008 0 0 0 1 10 2 0 0 0 12.1784134
935 2 -26.6000004 -5.949 -26.0799999 0 0 0 3 8 0 0 0 0 11.0713244
939 2 -39.2400017 -36.5099983 -31.0 0 0 0 2 10 1 0 0 0 11.3869133
949 2 -23.6299992 -5.428 -32.3300018 0 0 0 3 7 4 1 0 0 12.9649058
959 4 -20.5300007 -25.0499992 -9.007 0 0 1 0 13 1 0 0 0 12.8049908
961 2 -16.7900009 -40.2599983 -41.0600014 0 0 0 4 6 4 0 0 0 12.4279442
969 2 -31.8600006 -9.7480002 -12.1999998 0 0 0 3 6 3 0 0 0 11.8077498
979 2 -8.1190004 -14.3500004 -19.7299996 0 0 0 1 10 2 0 0 0 11.6488257
983 2 0.5416 -4.9000002 -8.6929999 0 0 0 3 6 5 0 0 0 12.0678272
990 5 -24.8400002 -25.5200005 -42.4199982 0 0 0 0 12 2 0 0 0 12.3422442
1001 4 -8.3570004 -19.4799996 -23.2800007 0 0 0 0 12 0 0 0 0 11.5455532
1015 5 -39.4099999 -39.7700005 -14.4499998 0 0 0 1 10 3 0 0 0 12.7125578
1016 2 -4.4120002 -30.4699993 -8.0039997 0 0 0 0 12 0 0 0 0 11.6390848
1033 2 -23.8600006 -34.2299996 -11.0299997 0 0 0 1 10 2 0 0 0 12.2613506
1051 4 -15.2200003 -15.3500004 -18.9599992 0 0 0 2 8 4 0 0 0 12.5217695
1064 5 -4.7909999 -20.1200008 -31.1200008 0 0 0 2 10 2 0 0 0 12.079257
1065 2 -10.6800003 -19.3600006 -8.2840004 0 0 1 4 3 6 0 0 0 10.65553
1075 4 -34.2799988 -1.847 -34.7900009 0 0 0 4 6 3 0 0 0 11.4917536
1084 1 2.365 -6.6199999 -33.6300011 0 0 0 1 10 2 0 0 0 11.7923012
1086 1 -16.3299999 -38.9399986 -23.9699994 0 0 0 1 10 2 0 0 0 11.6007967
1089 3 -28.0499992 -33.0800018 -38.0200005 0 0 0 1 10 4 0 0 0 12.233841
1099 2 3.5969999 -2.6170001 -39.0499992 0 0 0 2 10 2 0 0 0 12.1565065
1102 1 -11.9700004 -36.2000008 -37.4000015 0 0 0 0 12 0 0 0 0 12.1712179
1110 2 -23.8199997 -22.0300007 -5.7210002 0 0 0 5 2 5 0 0 0 11.5659724
1111 5 -34.5499993 -5.8020001 -5.9850002 0 0 0 1 10 2 0 0 0 12.3295908
1122 4 -19.5900002 -24.1700001 -15.3400002 0 0 0 0 12 0 0 0 0 11.1457939
1131 2 -5.6090002 -2.7809999 -21.2299996 0 0 0 1 10 2 0 0 0 12.3352575
1133 2 -10.4899998 -42.5400009 -7.848 0 0 0 5 4 5 0 0 0 12.1994906
1138 4 -33.5499993 -29.5599995 -0.4114 0 0 0 2 10 2 0 0 0 12.2738352
1163 2 -33.6500016 -19.2399998 -12.3400002 0 0 0 0 12 0 0 0 0 12.0870342
1164 4 0.5209 -24.8199997 -31.4300003 0 0 0 3 6 2 2 0 0 12.2586966
1166 5 -23.9099998 -28.9200002 -9.5290003 0 0 0 1 10 2 0 0 0 12.5030775
1170 2 -7.77 -4.204 -16.5499993 0 0 0 2 8 1 0 0 0 11.4046259
1178 1 -24.7199993 -33.7400017 -5.8280001 0 0 0 3 6 5 0 0 0 11.1992035
1195 5 -12.9899998 -39.25 -9.4230004 0 0 0 2 8 2 0 0 0 11.0036945
1198 5 -8.547 -34.6899987 -38.1800003 0 0 0 2 10 1 0 0 0 11.6422911
1209 2 -11.9700004 -5.4650002 -9.2939997 0 0 0 3 6 4 0 0 0 12.3709192
1211 5 -26.3500004 -23.1499996 -21.1399994 0 0 1 1 9 2 2 0 0 12.7000313
1219 5 -26.3500004 -32.9700012 -39.5200005 0 0 0 1 10 2 0 0 0 12.1751928
1238 4 -37.3199997 -32.3499985 -39.0200005 0 0 1 1 9 6 0 0 0 13.7719507
1239 2 -18.6299992 -10.7799998 -19.3099995 0 0 0 2 8 2 0 0 0 11.3849526
1251 4 -38.1300011 -31.8899994 -7.5479999 0 0 0 0 12 3 0 0 0 13.2440224
1256 4 -14.0699997 -5.8130002 -8.2819996 0 0 0 1 12 2 0 0 0 13.3759079
1262 4 -29.3700009 -21.9400006 -14.8000002 0 0 0 3 6 3 1 0 0 12.4600563
1266 4 -1.146 -22.7099991 -37.2799988 0 0 0 2 8 6 0 0 0 13.0049448
1280 4 -36.8499986 -27.7700005 -32.1599999 0 0 0 1 10 2 0 0 0 12.0404625
1286 5 -5.8200002 -11.1700001 -36.3899994 0 0 1 2 7 3 2 0 0 12.5412493
1289 2 -7.0749998 -10.6499996 -22.9599992 0 0 1 3 6 3 1 0 0 11.4693051
1299 2 -6.987 -15.7100001 -40.3100014 0 0 0 2 8 2 0 0 0 11.251976
1303 4 -12.7399998 -19.7399998 -35.3600006 0 0 0 3 6 5 0 0 0 11.7687607
1304 5 -11.4399996 -18.8199997 -14.8400002 0 0 0 1 10 5 0 0 0 14.5272255
1306 5 -1.0039999 -10.8299999 -29.4799996 0 0 0 3 6 4 0 0 0 11.9791508
1315 2 -37.9900018 -34.4000015 -42.8499986 0 0 0 0 12 0 0 0 0 10.941413
1319 2 -20.6599999 -28.5799999 -1.354 0 0 0 3 6 5 0 0 0 11.0772896
1322 4 -1.015 -27.8799992 -3.422 0 0 0 2 10 2 0 0 0 12.856063
1336 4 -8.7349997 -4.923 -23.2299996 0 0 0 2 10 3 0 0 0 13.2663336
1337 4 -14.4399996 -20.3999996 -37.2299996 0 0 1 3 6 3 1 0 0 12.3054028
1340 2 -28.5100003 -24.4899998 -39.1800003 0 0 0 2 8 4 0 0 0 12.3339691
1342 2 -37.6100006 -32.0400009 -32.6899987 0 0 0 3 6 6 0 0 0 12.7714091
1343 2 -22.9799996 -4.9569998 -34.9300004 0 0 0 2 8 4 0 0 0 11.805275
1352 5 -11.0699997 -15.1400003 -42.7400017 0 0 0 0 12 0 0 0 0 11.0366755
1372 2 -18.4400006 -23.1499996 -28.5799999 0 0 0 0 12 0 0 0 0 12.2356615
1385 5 1.615 -10.5799999 -33.6500016 0 0 0 1 10 2 0 0 0 11.8359595
1394 5 -0.6838 -36.4000015 -26.2399998 0 0 0 2 10 1 0 0 0 12.1646299
1399 4 -36.8499986 -17.5200005 -2.039 0 0 0 5 4 6 0 0 0 11.9994136
1407 5 -34.2099991 -6.8740002 -24.8600006 0 0 1 0 9 3 0 0 0 11.0864162
1408 1 -20.8199997 -34.7200012 -7.9120002 0 0 0 1 10 2 0 0 0 11.3132086
1414 2 -30.3600006 -20.8099995 -32.1399994 0 0 0 2 10 1 0 0 0 12.2140236
1421 2 -18.0300007 -36.4700012 -33.3499985 0 0 0 3 6 4 0 0 0 11.5979357
1495 5 -14.87 -23.3799992 -6.507 0 0 0 1 10 2 0 0 0 12.1838694
1502 4 -4.7160001 -13.0600004 -38.3699989 0 0 0 3 6 5 0 0 0 12.0272427
1505 2 -25.1399994 -19.2700005 -43.4199982 0 0 0 2 8 2 0 0 0 11.0958815
1521 5 -15.6000004 -24.6399994 -3.2360001 0 0 0 2 10 1 0 0 0 11.7465801
1526 4 -15.6899996 -9.2489996 -35.5 0 0 0 1 10 3 0 0 0 11.8889742
1527 5 -17.5499993 -40.7799988 -35.6899987 0 0 1 0 9 3 0 0 0 11.631485
1529 2 -14.4700003 -36.8100014 -26.5799999 0 0 0 3 6 3 0 0 0 11.6069727
1539 5 -29.5499993 -1.502 -30.5599995 0 0 1 4 7 2 0 0 0 12.3166037
1540 5 -0.2256 -9.5439997 -23.2299996 0 0 0 2 8 6 0 0 0 12.2572022
1546 4 -10.75 -41.9199982 -38.4399987 0 0 0 4 6 6 0 0 0 13.3582201
1552 4 -34.7900009 -40.7299996 -29.6100006 0 0 0 1 10 3 0 0 0 11.9350196
1555 2 -13.25 -18.8899994 -42.3300018 0 0 0 0 12 0 0 0 0 11.4255286
1563 5 -5.0689998 -30.5 -16.5799999 0 0 0 2 8 3 0 0 0 11.920127
1566 5 -5.6110001 -7.993 -18.4099999 0 0 0 2 10 2 0 0 0 12.3717928
1585 4 -35.0 -27.9799996 -6.3649998 0 0 0 2 10 2 0 0 0 12.1769829
1593 2 -22.6900006 -4.0630002 -29.2600002 0 0 0 1 10 2 0 0 0 11.2732477
1595 4 -36.7700005 -17.0499992 -28.2000008 0 0 1 1 8 4 1 0 0 12.7580605
1597 5 -5.0669999 -17.5699997 -5.914 0 0 0 3 6 5 0 0 0 12.1755848
1611 5 -15.2200003 -7.9530002 -0.5816 0 0 0 3 6 5 0 0 0 12.8009119
1617 4 -17.5599995 -2.751 -38.1800003 0 0 0 1 10 2 0 0 0 11.6508522
1625 2 -37.9900018 -35.1599999 -29.2299996 0 0 0 2 8 2 0 0 0 11.2767658
1626 2 -18.1800003 -35.7799988 -27.8099995 0 0 0 1 10 2 0 0 0 11.2207222
1632 5 -3.4879999 -23.3500004 -33.4199982 0 0 0 3 6 4 0 0 0 12.4876175
1651 2 -2.4949999 -1.994 -6.678 0 0 1 4 3 6 0 0 0 11.843049
1656 4 -9.0290003 -3.8180001 -18.9099998 0 0 0 0 12 3 0 0 0 13.063015
1658 4 -36.3300018 -15.0200005 -6.2480002 0 0 0 0 12 2 0 0 0 12.2935104
1660 4 -31.7999993 -5.8200002 -25.6700001 0 0 0 0 12 2 0 0 0 12.3279534
1670 2 -23.9599992 -23.4799996 -24.5300007 0 0 0 5 2 6 0 0 0 11.7351103
1671 4 -1.421 -29.4500008 -34.8899994 0 0 0 0 12 2 0 0 0 12.7135382
1675 4 -0.8747 -41.5400009 -28.9699994 0 0 0 4 8 2 0 0 0 13.3244619
1680 5 -1.51 -31.3199997 -23.0699997 0 0 0 1 10 2 0 0 0 12.017539
1683 4 -26.6100006 -15.6999998 -38.4500008 0 0 0 3 6 5 0 0 0 12.860694
1686 5 -9.4940005 -16.9599992 -26.2099991 0 0 0 3 8 3 0 0 0 12.3788872
1687 2 -22.2399998 -30.2099991 -31.2399998 0 0 0 4 6 3 0 0 0 11.5628786
1707 4 -15.9899998 -30.3400002 -3.303 0 0 0 2 10 1 0 0 0 12.0701485
1727 5 -18.0900002 -10.04 -15.6499996 0 0 1 0 9 3 0 0 0 11.9236384
1733 4 -7.7220001 -26.0799999 -29.0499992 0 0 0 2 8 4 0 0 0 13.0156527
1741 3 -23.0699997 -36.7099991 -37.0099983 0 0 0 3 10 1 0 0 0 12.3828354
1748 2 0.1647 -9.2600002 -16.0 0 0 1 2 7 5 0 0 0 12.1907215
1749 5 -35.1399994 -24.5100003 -29.8299999 0 0 1 1 9 4 0 0 0 13.0653496
1755 2 -35.6599999 -9.3350001 -20.8999996 0 0 0 4 4 5 0 0 0 12.3512631
1759 1 -16.3799992 -21.0 -6.625 0 0 0 2 8 4 0 0 0 11.9785968
1771 5 -17.1599999 -13.6300001 -14.25 0 0 0 0 12 0 0 0 0 10.8529664
1772 2 -16.6200009 -10.6099997 -4.903 0 0 1 2 6 2 1 0 0 11.8089047
1786 2 -10.1899996 -18.7199993 -1.829 0 0 0 0 12 0 0 0 0 11.3003216
1795 2 -8.6920004 -8.6040001 -11.8299999 0 0 0 1 10 2 0 0 0 11.5900288
1796 4 -25.1100006 -4.5120001 -36.5400009 0 0 0 1 10 3 0 0 0 11.9440918
1798 5 -27.6900006 -20.2800007 -29.1399994 0 0 0 4 4 1 2 0 0 11.8557882
1804 5 -34.0900002 -14.6499996 -32.75 0 0 0 1 10 5 0 0 0 12.7518807
1810 2 -26.0900002 -39.8400002 -31.6499996 0 0 0 0 12 0 0 0 0 11.6669274
1811 4 0.2956 -26.5400009 -43.2200012 0 0 0 1 10 5 0 0 0 12.9136724
1834 1 -11.4499998 -26.9500008 -15.6199999 0 0 1 5 4 3 1 0 0 12.1581326
1835 2 -12.1400003 -3.355 -15.2399998 0 0 1 2 7 5 0 0 0 12.3550367
1844 2 -28.6399994 -41.9199982 -29.6100006 0 0 1 2 7 2 0 0 0 11.5632706
1849 5 -7.665 -32.2099991 -9.4639998 0 0 0 2 8 3 0 0 0 12.2236719
1850 4 -27.5400009 -27.5799999 -19.5200005 0 0 0 2 10 2 0 0 0 12.606822
1855 2 -3.619 -36.2999992 -18.1499996 0 0 0 0 12 0 0 0 0 11.44837
1870 5 -11.6800003 -30.4200001 -25.75 0 0 0 2 8 4 0 0 0 12.5610962
1876 4 -32.8300019 -28.9799996 -35.6500016 0 0 0 0 12 3 0 0 0 12.5675335
1893 4 -26.8600006 -7.4829998 -19.9799996 0 0 0 0 12 4 0 0 0 13.2527485
1908 2 -34.3899994 -9.2089996 -25.0799999 0 0 0 0 12 0 0 0 0 11.0801125
1914 2 -26.6399994 -6.5900002 -36.0699997 0 0 1 0 9 3 0 0 0 11.3825979
1919 4 -8.2939997 -11.8299999 -2.2149999 0 0 0 1 10 2 0 0 0 12.0988026
1923 4 -7.5609999 -7.612 -9.7349997 0 0 0 3 6 5 0 0 0 12.2901831
1927 2 -37.2200012 -28.0 -34.8300019 0 0 0 2 8 5 0 0 0 11.8522512
1928 2 -31.2600002 -12.0699997 -12.0200005 0 0 2 4 2 7 0 0 0 11.857625
1934 3 -26.8999996 -20.7099991 -21.9300004 0 0 1 2 7 2 2 0 0 12.4618702
1937 4 -34.4900017 -41.5400009 -24.8400002 0 0 0 1 10 2 0 0 0 11.6357908
1955 5 -20.1200008 -7.658 -8.6160002 0 0 1 1 9 3 0 0 0 12.4176417
1958 5 -28.4300003 -1.3 -10.9799996 0 0 0 0 12 0 0 0 0 11.3466959
1960 4 -26.8600006 -35.5499993 -16.1499996 0 0 0 3 9 1 0 0 0 12.4572859
1967 4 -13.5 -9.962 -30.3799992 0 0 0 0 12 3 0 0 0 12.912756
1980 2 -10.75 -13.9799996 -39.2999992 0 0 0 2 8 2 0 0 0 11.4166517
1989 2 1.219 -20.0400009 -13.2299996 0 0 1 2 7 4 0 1 0 13.0506754
2006 4 -21.2000008 -40.3899994 -38.4000015 0 0 0 2 10 4 0 0 0 13.3474999
2013 4 -13.5200005 -13.6300001 -1.787 0 0 0 2 8 7 0 0 0 13.5523215
2014 4 -12.0200005 -42.5999985 -9.7460003 0 0 0 3 6 4 0 0 0 11.635809
2021 5 -36.0200005 -20.0900002 -41.869999 0 0 0 1 10 2 0 0 0 12.3785792
2030 5 1.587 -19.0499992 -15.6499996 0 0 1 1 9 4 0 0 0 13.1983528
2034 4 -28.1499996 -30.5200005 -39.2700005 0 0 0 3 4 6 0 0 0 11.6099081
2038 4 -1.845 -2.0179999 -34.7599983 0 0 1 2 8 4 1 0 0 12.5773382
2055 1 -3.395 -17.2099991 -40.6100006 0 0 0 0 12 0 0 0 0 11.1779718
2062 4 -29.5900002 -33.6599999 -21.2299996 0 0 2 3 6 4 0 0 0 12.3127632
2079 4 -5.8779998 -11.2200003 -30.0400009 0 0 0 2 10 2 0 0 0 11.9072438
2085 4 -14.6800003 -38.7599983 -28.1399994 0 0 0 2 8 6 0 0 0 12.9995738
2090 2 -3.5539999 -22.1700001 -5.5679999 0 0 0 0 12 0 0 0 0 11.5511265
2110 1 -9.5620003 -19.1200008 -32.3199997 0 0 0 2 8 2 0 0 0 11.2000246
2113 1 -35.7200012 -3.8269999 -31.2900009 0 0 0 0 12 0 0 0 0 11.404604
2118 5 -7.5809999 -14.6400004 -22.4300003 0 0 0 2 10 2 0 0 0 12.7417469
2133 1 -16.5300007 -42.1899986 -42.4199982 0 0 0 2 8 2 0 0 0 10.8345652
2149 4 -14.8400002 -28.7099991 -37.4000015 0 0 0 1 10 4 0 0 0 13.2278061
2161 2 -14.1499996 -33.6599999 -8.3579998 0 0 0 2 8 2 0 0 0 11.7542057
2177 4 -20.0 -0.141 -25.2600002 0 0 0 1 10 2 0 0 0 11.4927693
2195 2 -23.1000004 -36.2999992 -14.8800002 0 0 0 3 6 2 2 0 0 12.2137089
2208 4 -38.1300011 -27.9500008 -39.4500008 0 0 0 2 10 1 0 0 0 11.7528563
2216 5 -15.6400004 -20.2000008 -29.8199997 0 0 0 2 8 2 0 0 0 12.0082226
2229 4 -29.4899998 -36.2400017 -25.4500008 0 0 1 2 9 3 0 0 0 13.1331701
2234 5 -31.0 -22.8799992 -33.2099991 0 0 0 0 12 2 0 0 0 12.1665869
2238 4 -26.7700005 -12.2600002 -14.1800003 0 0 0 2 8 2 0 0 0 11.374198
2243 2 -15.9200002 -26.0 -15.9499998 0 0 1 0 11 1 0 0 0 11.2376747
2246 4 -27.5300007 -7.744 -5.0549998 0 0 0 0 12 2 0 0 0 12.1896591
2247 2 -18.0599995 -25.2600002 -19.0200005 0 0 0 3 8 1 0 0 0 11.2025681
2256 4 -15.4799996 -15.54 -41.6399994 0 0 0 2 10 4 0 0 0 13.1032534
2265 5 -5.5650001 -35.1899986 -17.2000008 0 0 1 1 9 3 0 0 0 12.2163124
2266 2 -9.7700005 -3.4519999 -24.9500008 0 0 0 4 6 2 0 0 0 11.4006443
2270 5 -22.2999992 -20.6399994 -35.2400017 0 0 0 2 8 3 0 0 0 12.4014349
2272 4 -22.8999996 -23.3299999 -39.25 0 0 0 1 10 5 0 0 0 14.0076971
2277 5 -12.6300001 -27.7700005 -41.75 0 0 0 3 6 6 0 0 0 12.375453
2282 4 -30.6100006 -37.0999985 -5.909 0 0 0 3 8 2 0 0 0 11.7535553
2283 4 -4.6960001 -14.8299999 -22.0300007 0 0 0 1 10 2 0 0 0 11.6865101
2287 4 -26.9599992 -7.1680002 -15.6999998 0 0 0 1 10 3 0 0 0 13.2280941
2288 4 -17.7800007 -2.431 -22.5100003 0 0 0 1 10 3 0 0 0 12.6014633
2294 4 -27.6299992 -5.3480001 -37.9599992 0 0 0 2 8 4 0 0 0 12.1382895
2295 5 -21.7900009 -26.0 -39.3899994 0 0 0 2 8 3 0 0 0 12.1720162
2298 4 -20.4500008 -21.8500004 -15.3100004 0 0 0 3 6 4 0 0 0 12.1729021
2309 4 -16.6299992 -10.8299999 -23.7399998 0 0 2 1 7 2 3 0 0 12.6248331
2313 4 -8.3620005 -35.5600014 -4.0370002 0 0 1 1 9 1 0 0 0 11.3566694
2315 2 -38.2299996 -38.9300004 -21.0799999 0 0 0 0 12 0 0 0 0 11.714222
2322 1 -24.4899998 -14.6800003 -10.2100001 0 0 0 2 8 2 0 0 0 11.1544018
2346 5 -12.3999996 -20.0699997 -38.3600006 0 0 0 5 3 2 3 0 0 12.1472588
2347 4 -30.1599999 -2.119 -0.9812 0 0 0 3 8 3 0 0 0 12.3722324
2355 4 0.9584 -21.1200008 -36.9599992 0 0 0 1 10 2 0 0 0 12.0690527
2365 2 -3.4830001 -8.4960003 -26.7900009 0 0 0 1 10 3 0 0 0 11.4264431
2388 4 -22.25 -30.0900002 -8.0880003 0 0 0 2 10 3 0 0 0 12.6802244
2394 2 -21.0499992 -6.3769999 -6.7470002 0 0 0 4 8 0 0 0 0 11.5207224
2397 2 3.901 -0.2622 -35.0099983 0 0 1 4 5 2 0 0 0 11.6169262
2412 5 -33.1199989 -37.7700005 -9.3529997 0 0 0 1 12 1 0 0 0 12.0397787
2414 1 -16.3899994 -37.9599992 -7.85 0 0 1 0 11 1 0 0 0 11.959117
2423 5 -4.7020002 -17.7299996 -32.2799988 0 0 1 1 9 4 0 0 0 13.351038
2446 5 -10.8100004 -10.6300001 -19.0799999 0 0 0 1 10 2 0 0 0 11.6110907
2457 1 -35.7400017 -40.7999993 -12.75 0 0 0 2 10 1 0 0 0 11.9711676
2464 4 -19.1499996 -35.0 -14.4799996 0 0 0 2 10 0 0 0 0 11.4519978
2469 5 -6.6020003 -6.0609999 -37.0099983 0 0 0 1 10 4 0 0 0 13.2916584
2479 4 -12.5799999 -3.6270001 -7.4460001 0 0 0 2 8 4 0 0 0 12.6224842
2492 2 -4.956 -12.4799996 -28.1200008 0 0 0 1 10 2 0 0 0 11.4571448
2506 2 -13.0500002 -37.1500015 -11.2299996 0 0 0 1 10 2 0 0 0 11.9231024
2507 2 -28.1299992 -40.0800018 -32.9700012 0 0 1 1 9 3 0 0 0 12.2020283
2509 4 -18.1499996 -11.6599999 -41.4799996 0 0 1 3 5 5 0 0 0 12.160491
2515 4 -17.3600006 -0.5095001 -10.1899996 0 0 0 1 10 4 0 0 0 12.1282606
2529 4 -35.5299988 -15.6099997 -37.9599992 0 0 1 0 9 3 0 0 0 11.9030504
2536 5 -18.7099991 -3.809 -26.5499993 0 0 2 1 8 2 2 0 0 13.3121109
2537 5 -0.5175 -11.1000004 -25.6200009 0 0 0 0 12 0 0 0 0 10.9819652
2542 2 -5.8660002 -19.5200005 -37.8400002 0 0 0 3 8 2 0 0 0 12.0073814
2545 2 -18.2000008 -21.2800007 -38.1199989 0 0 0 3 6 5 0 0 0 12.399971
2570 2 -21.6499996 -28.5100003 -38.5 0 0 0 1 10 2 0 0 0 12.1025248
2574 4 -28.7099991 -1.2740001 -26.3400002 0 0 0 2 8 4 0 0 0 13.146822
2585 3 -31.8799992 -5.1459999 -3.316 0 0 2 2 5 3 3 0 0 12.6046458
2593 4 -19.1800003 -29.3199997 -38.9399986 0 0 0 2 8 4 0 0 0 12.99049
2597 5 -38.6800003 -33.2799988 -21.4300003 0 0 1 3 5 2 2 0 0 11.153677
2606 4 -9.6630001 -31.3299999 -7.4650002 0 0 0 3 8 4 0 0 0 12.916873
2614 4 -28.5699997 -15.3900004 -3.01 0 0 1 3 4 4 1 0 0 12.5312023
2620 4 -4.7459998 -26.0599995 -5.7859998 0 0 0 1 10 2 0 0 0 12.014122
2621 2 -1.173 -2.974 -19.2700005 0 0 0 3 6 4 0 0 0 11.2220202
2634 2 -23.4500008 -32.0499992 -9.6599999 0 0 1 3 5 5 0 0 0 12.3833504
2635 2 -28.7399998 -19.7900009 -4.1690002 0 0 1 3 7 3 0 0 0 12.8786288
2646 5 -15.6400004 -29.5799999 -10.6400004 0 0 0 0 12 2 0 0 0 12.5105276
2649 4 -39.3800011 -40.75 -4.731 0 0 0 1 10 3 0 0 0 12.502882
2659 2 -29.2700005 -23.0400009 -25.0 0 0 0 2 8 2 0 0 0 11.2497988
2665 5 -20.6299992 -19.3799992 -41.869999 0 0 1 5 5 2 0 0 0 12.0636215
2667 4 -35.75 -23.0 -12.3999996 0 0 0 4 5 5 1 0 0 12.6908942
2685 5 3.651 -6.8800002 -21.1399994 0 0 0 0 12 5 0 0 0 13.9843436
2690 4 -19.7399998 -2.204 -4.2740002 0 0 1 3 6 4 1 0 0 13.470706
2691 2 1.403 -4.0619998 -2.3740001 0 0 0 0 12 0 0 0 0 11.3236466
2694 4 -19.7299996 -33.0099983 -32.7900009 0 0 0 2 10 1 0 0 0 12.2301722
2704 5 -6.2670002 -5.7849999 -39.7099991 0 0 0 3 6 4 0 0 0 12.2380552
2711 5 -7.461 -16.8899994 -16.5200005 0 0 1 2 7 3 2 0 0 13.3635788
2713 2 -27.5699997 -20.9300004 -41.9799996 0 0 1 2 7 4 0 0 0 12.0706444
2717 2 -24.1800003 -25.5 -39.9099998 0 0 0 0 12 0 0 0 0 11.0831175
2721 2 -2.385 -13.7200003 -32.25 0 0 0 1 10 2 0 0 0 11.5160055
2731 4 -35.8600006 -35.1300011 -18.2199993 0 0 0 2 8 5 0 0 0 13.8698912
2740 1 -2.4470001 -18.9799996 -1.7940001 0 0 0 2 8 4 0 0 0 12.1916332
2749 4 -11.9200002 -15.9899998 -38.5999985 0 0 0 2 8 4 0 0 0 12.5125427
2764 2 -25.8600006 -34.7299996 -1.946 0 0 0 0 12 0 0 0 0 11.0210695
2765 5 -2.9360002 -16.3199997 -5.3299999 0 0 0 4 4 6 0 0 0 11.93462
2766 4 -24.8299999 -23.7600003 -26.9400006 0 0 0 3 6 4 0 0 0 12.0934076
2769 4 -20.3999996 -30.4599991 -15.0699997 0 0 0 2 10 2 0 0 0 12.4978514
2778 4 -17.0799999 -29.5 -17.4899998 0 0 0 1 10 3 0 0 0 12.5467301
2783 4 -11.8599998 -29.6000004 -21.7000008 0 0 0 0 12 0 0 0 0 10.8992758
2800 5 -31.2099991 -43.4000015 -8.3149996 0 0 0 3 6 5 0 0 0 10.9162684
2802 5 -30.2800007 -26.7999993 -13.3400002 0 0 1 4 3 7 0 0 0 13.1146669
2818 4 -30.9300004 -15.0799999 -17.6599999 0 0 1 3 5 5 0 0 0 11.5575676
2823 2 -21.1399994 -30.1700001 -17.5599995 0 0 1 2 7 2 2 0 0 11.5759802
2825 5 -16.7600003 -9.4309998 -20.4400006 0 0 1 2 7 3 2 0 0 12.1567183
2832 4 -25.6100006 -1.638 -1.015 0 0 0 2 10 3 0 0 0 13.104434
2834 5 -23.1000004 -32.0800018 -12.25 0 0 0 1 10 2 0 0 0 12.555831
2836 4 -22.2999992 -13.6400004 -25.6200009 0 0 1 3 5 6 0 0 0 12.7246704
2839 5 -28.5900002 -16.9400006 -0.859 0 0 0 2 8 3 0 0 0 12.7550078
2861 4 -11.4200001 -33.2999992 -31.0400009 0 0 1 3 7 4 0 0 0 12.7024164
2863 5 -26.3099995 -35.2599983 -38.3400002 0 0 0 1 10 4 0 0 0 12.6985064
2878 2 -14.6400004 -17.7800007 -14.6899996 0 0 0 3 6 4 0 0 0 11.585702
2884 2 -18.0900002 -32.6699982 -19.0499992 0 0 0 2 10 0 0 0 0 11.1790791
2910 4 -24.9799996 -0.9149 -23.8099995 0 0 2 1 5 6 1 0 0 12.9697866
2945 5 -5.79 -23.8500004 -17.5 0 0 2 1 8 5 0 0 0 12.6367073
2954 5 -21.6599999 -35.2400017 -38.9399986 0 0 0 0 12 2 0 0 0 12.3857079
2956 2 -19.6299992 -32.3100014 -28.4400006 0 0 0 0 12 0 0 0 0 11.4119482
2962 4 1.7710001 -12.1599999 -39.8899994 0 0 2 1 8 2 2 0 0 12.2426567
2963 4 -31.4300003 -6.8730002 -41.0 0 0 1 0 11 4 0 0 0 13.1019974
2964 2 -2.6180001 -26.8299999 -5.0539999 0 0 2 2 6 3 0 0 0 11.568389
2979 4 -27.1299992 -32.7599983 -0.8796 0 0 0 0 12 3 0 0 0 13.0961723
2992 4 -34.6500016 -2.5150001 -37.1599999 0 0 0 5 4 6 0 0 0 12.78086
2997 5 1.217 -18.6299992 -27.1100006 0 0 2 2 4 3 2 0 0 11.6745453
2998 2 -35.4599991 -38.2099991 -9.2449999 0 0 0 3 6 4 0 0 0 11.8615466
3014 5 -14.4399996 -2.9820002 -29.9899998 0 0 0 0 12 3 0 0 0 13.4637842
3016 1 -7.901 -38.5299988 -38.1699982 0 0 0 0 12 0 0 0 0 11.0388422
3025 5 -13.7100001 -9.422 -36.6800003 0 0 1 0 11 3 0 0 0 12.1670256
3032 4 -38.5499993 -35.5200005 -18.1100006 0 0 0 3 8 3 0 0 0 12.875229
3049 4 -31.0799999 -13.8599998 -36.9000016 0 0 0 2 8 5 0 0 0 12.353735
3056 5 -13.8900004 -32.2099991 -12.8800002 0 0 0 4 4 6 0 0 0 11.8726072
3059 4 -26.9099998 -30.1900005 -15.2700005 0 0 0 1 10 5 0 0 0 13.4887057
3069 2 4.1479998 -2.6170001 -29.2299996 0 0 0 1 10 2 0 0 0 11.8231974
3072 4 -20.4799996 -13.8100004 -33.3499985 0 0 0 0 12 2 0 0 0 12.1569357
3076 2 -30.8799992 -10.79 -43.3899994 0 0 1 1 10 2 1 0 0 12.899725
3078 1 -1.855 -37.7900009 -5.7529998 0 0 1 0 11 1 0 0 0 11.2673063
3093 2 -3.372 -14.1099997 -30.0599995 0 0 1 2 5 5 0 0 0 11.2234984
3095 4 -26.4400006 -16.6900006 -20.9099998 0 0 1 2 5 6 0 0 0 12.1967974
3096 2 -35.2200012 -31.8500004 -40.8800012 0 0 1 2 7 3 0 0 0 12.339675
3099 5 -1.627 -26.0599995 -11.8199997 0 0 0 1 10 4 0 0 0 12.6027308
3100 2 -19.5799999 -43.2599983 -17.4799996 0 0 0 0 12 2 0 0 0 12.6428967
3104 1 -19.7900009 -10.0900002 -37.5499993 0 0 1 2 7 1 2 0 0 11.3553696
3117 2 -26.4500008 -3.2969999 -17.9799996 0 0 0 1 10 2 0 0 0 11.8264218
3134 5 -32.9599992 -17.1700001 -41.7000008 0 0 2 1 9 2 1 0 0 12.9479494
3135 4 0.1527 -23.3799992 -19.9300004 0 0 0 0 12 0 0 0 0 11.4121266
3138 5 -8.4750004 -9.0699997 -22.0699997 0 0 1 1 8 3 1 0 0 11.6920653
3146 4 -13.8400002 -20.0699997 -14.3800001 0 0 0 3 6 3 0 0 0 11.7159291
3159 5 -34.1300011 -33.5 -22.3199997 0 0 0 2 10 0 0 0 0 11.8977052
3182 4 -7.776 -38.1199989 -29.5799999 0 0 1 2 7 5 0 0 0 12.7159577
3188 5 -14.4099999 -22.1900005 -20.8099995 0 0 0 4 4 6 0 0 0 12.2954397
3193 5 -33.5099983 -35.4399987 -3.6770001 0 0 1 1 9 2 0 0 0 11.1325808
3200 2 -11.5799999 -2.5079999 -29.3999996 0 0 0 0 12 0 0 0 0 11.1764669
3201 4 -14.0500002 -29.3199997 -26.3199997 0 0 0 1 10 2 0 0 0 12.880869
3202 5 -24.1599999 -36.1500015 -12.5699997 0 0 0 3 6 4 0 0 0 12.1707754
3218 2 -28.0 -3.2130001 -9.8990002 0 0 0 3 6 3 0 0 0 11.9971666
3219 5 -4.026 -37.0200005 -38.4099999 0 0 1 2 8 1 1 1 0 13.250598
3224 4 -16.7099991 -30.4500008 -0.7102 0 0 1 3 5 4 0 0 0 12.0896502
3229 5 3.016 -0.2078 -3.3829999 0 0 0 0 12 2 0 0 0 12.6798191
3234 4 -23.3899994 -25.3400002 -0.6967 0 0 0 2 8 4 0 0 0 12.2847586
3240 5 -27.4799996 -20.0 -39.0699997 0 0 0 2 8 5 0 0 0 12.572835
3246 4 -16.1599999 -16.1700001 -23.7700005 0 0 0 4 5 3 1 0 0 12.2535257
3247 5 -32.8600006 -8.0170002 -6.5619998 0 0 0 3 9 2 1 0 0 13.1979876
3252 2 -7.8280001 -19.4200001 -39.5200005 0 0 0 0 10 2 0 0 0 11.3288288
3262 5 -14.7799998 -38.6100006 -36.4099999 0 0 0 1 10 2 0 0 0 11.1066628