LAMMPS (29 Oct 2020)
# Amin Esfandiarpour - Amin.esfandiarpour@ncbj.gov.pl- Am.esfandiyarpour@gmail.com

variable initTemp equal 300          	# desired temperature
variable runTime equal 3 #2000000   	# number of increment
variable srate equal 1.0e8
log	     	shearCoNiFe_glass${initTemp}-${srate}.log
log	     	shearCoNiFe_glass300-${srate}.log
log	     	shearCoNiFe_glass300-100000000.log
