ITEM: TIMESTEP
0
ITEM: NUMBER OF ATOMS
50688
ITEM: BOX BOUNDS xy xz yz pp pp pp
-3.9973238916600003e+01 3.9973238916600003e+01 0.0000000000000000e+00
-4.3551705198500002e+01 4.3551705198500002e+01 0.0000000000000000e+00
-4.3591808198800003e+01 4.3591808198800003e+01 0.0000000000000000e+00
ITEM: ATOMS id type x y z vx vy vz
11355 2 -38.7911 -42.2438 -41.5172 0.0949991 0.537824 3.37924
25467 4 -36.8511 -40.9623 -42.2462 -0.204599 -1.25059 -0.697939
20679 2 -39.5486 -40.666 -43.1589 1.41846 -2.47191 -2.89753
40868 4 -36.7213 -43.4794 -42.2473 0.727426 0.57768 -2.11933
13735 2 -34.5998 -42.0518 -42.1934 1.84799 0.473082 -0.0867518
25012 4 -36.1718 -42.1613 -40.1517 1.31995 0.302299 1.23316
21894 2 -33.3363 -42.0358 -40.172 -1.2425 -1.70254 2.04322
14217 4 -32.222 -40.7358 -41.979 -3.66153 -4.04885 -0.158814
23462 4 -32.1269 -43.1359 -42.0826 0.408557 -2.43777 4.10543
3833 2 -29.8043 -41.7088 -42.0628 -0.779015 -2.85825 -5.12595
14357 4 -27.7393 -41.0457 -40.227 1.36559 -0.743656 1.50941
22968 4 -27.5954 -42.5855 -42.3515 3.34751 0.0939694 0.336053
227 4 -23.6916 -42.3664 -42.9835 -3.08158 3.91136 -0.965865
26778 4 -25.4129 -41.9179 -41.3685 1.35213 -1.2802 1.35068
45018 2 -23.6808 -40.1572 -42.0296 -1.68755 0.0831794 -3.01095
30276 4 -22.403 -41.8134 -40.8936 -0.176892 -1.14735 3.49872
15885 2 -21.4158 -41.2077 -43.2731 -1.47526 -0.549392 -0.459339
27897 2 -21.4437 -43.4304 -42.5779 1.49134 5.92356 -2.24839
40185 2 -20.8137 -43.5045 -40.181 1.62685 1.59026 0.316387
48148 4 -38.5831 -39.8175 -40.6841 0.731861 2.6395 -0.347498
30238 4 -39.5857 -37.2047 -41.2362 1.48787 -1.29119 -1.51275
13740 2 -38.4615 -38.593 -42.9115 1.11991 -1.33708 1.06822
16657 2 -36.4708 -38.5507 -41.7588 1.54196 -2.24764 4.58573
26657 2 -34.5934 -37.275 -42.2603 1.63156 1.02629 0.570795
40270 4 -34.6105 -39.7711 -40.7326 -0.977027 1.21296 -0.151877
48070 4 -34.8008 -39.7041 -43.2561 3.07325 -1.64559 -1.20434
46754 2 -33.7228 -37.1959 -40.0005 -0.864293 0.853648 -2.39643
128 2 -30.297 -39.7552 -43.3821 -0.170874 3.73189 -0.234518
2517 4 -32.2449 -38.2246 -42.1487 -2.23455 -1.6864 -1.74562
41506 4 -31.234 -36.958 -40.2869 3.21122 -1.03331 2.02046
7445 4 -30.1988 -39.5 -40.7623 1.80506 -1.8028 0.139404
46228 2 -28.0507 -40.0369 -42.2929 3.60198 0.717474 -1.52507
14791 2 -27.7958 -38.4864 -40.2957 0.409504 2.5496 -0.316128
19778 4 -29.3638 -37.7356 -42.1182 -1.29262 0.577248 -0.0136971
8000 2 -26.7507 -37.9524 -42.6215 0.937074 4.30656 -5.17162
38653 2 -25.7356 -39.6499 -41.1037 -0.578721 0.623729 -0.89682
24623 2 -24.4357 -37.6285 -41.9755 -1.3832 0.859913 -0.567128
35962 2 -21.1773 -39.7947 -41.3991 2.87194 1.29434 -1.55141
5746 4 -22.14 -38.319 -43.0408 1.19259 1.00472 -0.766924
34313 4 -22.9896 -38.6059 -40.4383 0.46126 0.0895972 -2.36152
17057 4 -37.1254 -36.0733 -41.7278 1.09932 2.967 -4.39053
28979 4 -38.9553 -34.494 -42.3244 -3.29433 0.983848 5.49598
12719 4 -37.2901 -33.7585 -40.1903 0.133326 -0.461773 0.479136
12707 2 -35.1094 -35.4599 -43.5435 0.783247 -0.455642 -1.64049
28343 2 -36.4571 -33.8125 -42.4398 2.97572 2.5145 -2.84017
29609 4 -35.0813 -35.2599 -40.4526 -2.71152 -1.59529 1.80352
7039 4 -33.9902 -33.6162 -42.5772 -0.294609 0.345741 0.648531
13276 2 -32.8881 -35.4706 -41.3539 0.329114 1.75144 0.579243
33135 4 -30.6007 -35.7519 -42.3704 0.0228713 -0.883571 -4.07861
36413 2 -30.9623 -34.2842 -40.2967 -2.2285 0.185502 0.573793
33204 4 -31.5657 -33.3609 -42.6953 -1.12452 0.931205 1.98034
8146 2 -32.7607 -35.8221 -43.5492 0.574595 0.674606 1.23585
7678 2 -26.8354 -36.3446 -40.8531 -1.21824 -0.249165 -2.59473
27098 4 -29.033 -35.9981 -40.3956 2.95762 -0.52637 3.86844
37094 4 -27.9412 -35.6872 -42.7541 5.28329 1.73641 -4.25379
4690 2 -28.9642 -33.8014 -41.5468 -1.5802 -0.11839 0.633904
32715 4 -26.8002 -34.1258 -40.2055 -2.29871 -1.33693 -1.07543
5795 2 -24.453 -35.6039 -40.8353 0.32824 1.56571 -0.0079143
9298 4 -25.6378 -35.4853 -43.0329 2.32651 2.51225 -3.45348
19602 2 -24.9206 -33.2723 -41.5568 -2.82138 -4.11744 0.737728
48791 2 -23.1102 -34.5072 -42.4764 -0.342329 1.08551 3.31114
17720 4 -20.834 -35.5917 -43.3809 -1.84972 1.81329 -5.80065
7398 4 -22.1176 -36.3744 -41.3611 -1.11376 -0.646022 3.24236
25826 4 -21.2185 -33.651 -41.2551 -0.54767 -4.0025 -2.10672
20749 4 -38.2224 -32.0825 -41.5071 1.50864 1.00629 0.437485
44191 2 -37.8962 -29.6295 -41.2398 1.93905 4.62034 -0.327716
37409 4 -39.7572 -30.6977 -40.0877 -2.12684 -2.31458 -1.45618
6224 4 -35.7823 -31.3784 -43.1317 3.88052 0.224866 -1.06605
48481 2 -35.3807 -32.4641 -40.8641 3.93381 -6.20936 -3.99114
15488 4 -35.5054 -29.8423 -40.839 3.62558 1.6553 -0.277402
11943 4 -33.3685 -31.3118 -41.4674 0.432996 1.56825 1.59552
44508 4 -33.1036 -33.0722 -40.0079 -1.75699 -0.80086 0.844223
46218 2 -30.9053 -31.8107 -40.9666 -2.60292 0.356282 -2.59998
44900 2 -31.5185 -30.6829 -43.2776 -1.57719 -0.93202 -0.19258
1074 4 -27.0932 -32.7491 -42.8537 -1.88695 -1.16035 -3.90902
2078 4 -28.4487 -31.4076 -40.6289 -2.27157 -0.718761 1.48516
49464 2 -29.5636 -31.7808 -42.9931 0.0888489 0.190147 -3.39565
39887 2 -29.3802 -29.6558 -42.1077 -0.847305 -0.852265 -0.020422
27605 2 -26.0959 -31.6062 -40.3923 -0.138693 2.2322 -0.178031
20816 4 -25.1572 -31.1116 -42.877 -0.0294597 0.837107 -0.879298
9609 4 -23.4416 -31.5987 -40.4064 0.28429 2.64735 -1.25561
19589 2 -24.7767 -29.701 -40.3945 -0.600665 2.26578 -0.124803
31988 2 -22.9863 -32.1864 -43.1446 2.80044 0.421711 -1.82476
32599 2 -21.2007 -31.3785 -41.8763 -1.98594 -2.30272 0.857401
9927 2 -21.5021 -29.6286 -40.2579 -0.804468 0.423207 -0.189284
47595 4 -23.093 -29.7135 -42.2397 -0.448299 1.35009 -1.16229
525 2 -38.4824 -27.8475 -42.5637 2.51443 0.591431 1.58545
45032 4 -37.085 -27.5183 -40.3631 1.67801 -0.0287112 -2.94961
8946 2 -39.6993 -28.2702 -40.6269 0.0945471 -0.477551 0.461628
6827 4 -36.7091 -26.3165 -43.1277 -2.31434 0.950997 0.986283
27115 4 -33.9979 -29.448 -42.9288 0.898206 -1.5523 0.489882
44194 2 -34.8691 -27.3088 -41.3978 4.15704 0.481699 -2.30306
35054 2 -36.3211 -28.6982 -42.7701 -1.37038 -2.29907 -0.318985
22075 2 -31.7449 -29.4311 -41.2638 -1.15148 0.171222 -0.367489
4476 4 -30.4793 -27.6974 -42.5618 0.997197 -0.918141 0.0936325
42845 2 -32.7674 -27.2483 -42.2163 -4.0172 -3.89079 0.174006
46593 2 -31.1948 -27.4079 -40.1648 0.263412 0.542383 3.82041
30589 2 -27.0823 -29.6078 -41.4833 -1.07875 -1.41886 -2.17958
5987 4 -28.6739 -27.2204 -40.9668 -0.653033 -4.24326 0.668789
41272 4 -27.9518 -28.0534 -43.2919 -0.850594 -1.98693 -0.157419
29778 2 -23.8463 -27.1829 -42.1131 5.52724 -0.762876 -0.91627
25530 2 -25.9769 -26.4484 -42.8982 -1.25148 -3.56536 0.0890244
16043 2 -25.3855 -28.761 -42.8451 -0.213603 -4.02153 1.21951
34719 4 -25.9601 -27.5872 -40.595 0.227779 0.777096 -2.36925
12089 4 -20.0522 -29.1619 -42.1726 0.921148 -0.250533 0.833971
12921 2 -21.5574 -27.63 -41.2275 -2.36101 3.23581 0.425766
40905 2 -20.0066 -26.8419 -42.9091 2.07717 -0.0385256 3.37476
17625 4 -38.6267 -42.0639 -39.0756 2.91872 -1.52189 4.76645
5766 4 -38.816 -42.4633 -36.734 -1.87498 0.220355 0.526376
1588 2 -36.5156 -41.7659 -37.4528 1.66979 -4.69612 -1.80702
35711 4 -34.6479 -43.5094 -38.5592 0.306688 2.42993 1.12732
34238 2 -34.5347 -40.918 -38.5453 1.34285 -0.550972 -2.23746
43890 4 -30.5845 -41.7945 -39.715 -0.0549779 2.1082 -1.37939
29526 4 -32.3514 -42.2384 -38.0111 0.120664 -1.78026 5.53092
11958 2 -29.7512 -41.8413 -36.9969 0.940521 1.73393 -0.777067
16610 2 -28.2733 -42.8843 -38.7238 -0.62856 2.56426 -0.625968
19902 4 -28.5223 -40.1265 -38.1564 -1.12189 -0.800628 -3.50756
5718 4 -27.609 -43.4127 -36.4394 0.827882 1.9031 -0.75053
8849 2 -24.1653 -43.2154 -39.6756 -1.20954 2.58981 -2.48371
40579 4 -24.2408 -40.7153 -39.3026 -1.29563 2.25155 -1.77752
7630 4 -26.1594 -41.8887 -38.3359 -0.105424 0.610059 2.45129
3300 4 -24.0646 -43.0992 -37.1401 0.0248408 0.443711 -0.813238
23275 4 -25.253 -40.2509 -36.5944 1.96039 -1.14674 0.943677
15525 2 -22.2908 -42.272 -38.5532 1.42869 5.65157 -0.396558
28032 2 -22.8454 -40.8018 -36.8584 0.529515 1.79419 -0.462079
40934 2 -20.7087 -41.1718 -37.0979 0.795262 0.253329 -2.69762
15447 2 -38.1053 -39.5883 -36.9829 1.14597 -0.753637 -0.906618
3745 4 -38.4691 -37.7419 -38.7007 1.69123 3.50661 3.25228
23148 4 -36.7057 -39.9016 -39.0871 1.27829 0.38794 1.15038
41836 4 -36.641 -37.5859 -36.9622 -0.287162 0.720203 2.997
4461 2 -34.6708 -38.5163 -38.2685 -3.18766 -0.255581 2.8031
31781 4 -36.1943 -37.4931 -39.6672 -1.1235 -1.53249 -1.47837
14342 2 -30.9422 -39.9297 -37.8571 1.11322 -1.09142 -2.26092
39524 4 -32.5647 -39.4817 -39.7145 3.95915 1.16261 -0.311303
2741 4 -32.1688 -37.4879 -37.9695 -1.18395 4.23957 0.192803
18007 2 -33.1713 -39.863 -37.0579 -1.32336 -1.97021 0.623949
48083 2 -29.8378 -38.1024 -38.8699 1.76756 0.205977 0.817828
5403 4 -29.7013 -37.4794 -36.7033 -1.07925 2.28973 0.0142179
5691 4 -27.7028 -36.6223 -38.4031 -0.611952 -1.05103 1.13001
27322 2 -27.4367 -38.7706 -36.4855 -3.57007 -0.435445 -5.09858
9769 2 -26.2148 -39.448 -38.5675 2.58583 -4.86017 0.116099
8295 4 -25.3294 -37.6612 -39.6872 -1.42596 -5.00533 -1.05086
40509 4 -25.5006 -37.3723 -37.1939 -1.3727 -2.2668 -0.632573
23264 2 -23.7329 -38.7691 -37.811 -0.347625 -2.32892 2.09844
37489 2 -20.7776 -37.4138 -39.7399 3.15881 -1.79442 -0.445752
13184 4 -21.7479 -39.7083 -38.8473 -1.61671 -3.52986 1.09248
47715 2 -21.4412 -38.8865 -36.4804 0.132924 5.08923 -0.442993
15317 4 -23.1928 -36.6098 -38.9341 -2.10213 0.584753 -1.64624
33999 2 -39.1917 -35.1973 -39.8902 -4.15408 -0.276401 0.191896
24158 2 -37.011 -35.4801 -38.7685 -2.39491 -0.950598 -2.85211
27558 2 -39.2019 -35.0923 -37.5781 0.850281 -1.40997 0.127173
10238 4 -37.5416 -33.2603 -37.5978 0.53004 -0.284868 1.2095
47637 2 -37.2403 -35.4091 -36.4582 -0.0552905 4.17811 0.69448
2800 4 -34.8963 -35.9155 -37.777 -1.60904 1.26194 1.05903
15950 4 -35.2356 -33.4655 -38.743 3.66823 -2.39802 5.06147
19433 2 -32.8848 -35.177 -38.8308 0.103514 -2.36811 -1.64125
22584 2 -30.5249 -35.7349 -38.2934 -4.56175 -5.62679 -0.369012
24031 4 -31.3585 -33.4326 -37.9441 1.25249 -1.85442 5.48941
25878 4 -28.8716 -33.878 -38.9791 -0.575464 0.74558 -1.53789
31534 2 -27.1208 -34.1501 -37.442 1.542 -2.46851 -4.2411
34553 2 -25.4943 -35.4312 -38.5845 -1.79321 -4.56621 -3.66728
21421 2 -25.1745 -33.155 -38.7426 2.1651 -0.0625214 1.23666
17576 2 -23.3782 -34.6558 -37.5303 -1.33395 -1.46716 0.239622
21857 4 -23.2306 -34.0295 -39.8747 1.52989 2.00831 -0.588679
16387 4 -21.1234 -36.5425 -37.2799 -1.40481 -0.177655 3.02833
24400 2 -21.2781 -35.1132 -39.0655 -0.550183 -0.877745 0.191605
27353 4 -20.8586 -33.8488 -37.0152 -0.155883 -0.278576 1.26465
34636 2 -39.1947 -32.811 -39.1247 3.78012 -2.2714 -0.791401
42230 4 -37.1616 -31.2209 -39.2885 -1.77101 0.397702 1.11511
42435 2 -37.5864 -29.8941 -36.9089 1.22689 -2.16556 0.994435
20483 4 -39.6552 -30.8756 -37.5827 -0.99294 1.54714 2.56712
5737 4 -39.6901 -33.0755 -36.4345 -0.755009 -1.29708 -4.96611
31631 2 -34.4388 -31.0577 -39.1484 0.557608 5.07951 -1.97683
50232 2 -35.6605 -31.4658 -37.1262 0.168895 -2.25228 0.558319
49863 4 -33.5505 -29.8556 -37.2921 3.69007 -1.01999 -1.5539
37028 4 -33.4984 -32.5341 -37.2536 1.30053 -0.264453 0.267095
18675 2 -32.1034 -30.879 -39.1284 -1.94661 1.38181 3.96169
24563 2 -31.4343 -30.8909 -36.7745 0.586205 0.854345 2.67239
46726 2 -29.9233 -31.718 -38.6492 -2.47632 -2.21805 -0.845362
40421 4 -27.4241 -31.8118 -38.38 1.20045 0.13851 -1.03145
34275 4 -29.0626 -32.6196 -36.5179 -0.898306 0.279032 -1.11446
12372 4 -29.2337 -29.835 -37.1655 -3.06515 3.04823 0.945619
21123 2 -26.6514 -30.0565 -36.3961 -0.560288 -4.96306 -0.437729
38165 2 -25.1444 -30.8957 -38.3097 -1.83671 0.720744 2.12306
26021 4 -25.7866 -32.5051 -36.3857 -4.27133 -4.65119 -1.44738
35758 4 -24.0365 -29.8663 -36.342 -2.64166 -2.30975 2.01641
49157 4 -23.2357 -32.2219 -37.8381 1.48871 -1.74346 2.77197
47203 4 -21.25 -32.0164 -39.1944 2.66592 -2.3031 1.15818
46370 2 -20.4592 -29.726 -38.2514 0.334235 2.82262 -0.816508
13386 4 -21.5098 -31.2765 -36.4632 2.44746 -1.92742 -0.369532
11152 4 -22.9323 -29.7466 -38.3564 -1.56309 2.70796 -0.734779
34180 2 -38.3255 -28.9956 -38.8533 -2.25051 -7.10864 0.0225697
48688 4 -39.2867 -26.8247 -38.6961 -0.214609 -4.11686 0.185342
17183 4 -36.9335 -27.3558 -37.3805 0.55776 -3.38337 -1.4811
37294 4 -33.5093 -28.596 -39.603 -2.27634 2.18263 1.94199
3625 2 -35.2272 -26.7082 -39.0291 1.65415 1.19342 -1.2131
23288 2 -35.7085 -29.195 -38.4904 -1.47534 0.834096 -4.02511
28951 4 -34.347 -27.6176 -37.0353 -1.54351 -2.90186 3.8
31752 4 -31.6562 -28.0556 -37.8718 -0.329421 -0.245209 2.2392
14830 2 -30.0929 -29.553 -39.5272 -3.50727 3.50384 -1.37769
945 2 -29.3659 -27.4603 -38.6804 2.92914 -1.4194 -1.39081
27912 4 -27.3886 -29.2613 -39.1129 -1.33077 3.37697 -0.977596
32444 2 -27.5457 -27.8423 -36.8896 0.0903456 -0.592679 1.24292
40799 4 -27.1428 -26.4653 -38.9189 1.2278 -2.22479 0.650127
7846 2 -23.448 -27.8502 -39.8202 -2.32189 -1.6669 -2.92332
49698 2 -25.2634 -28.4065 -38.0769 1.49568 1.70834 -0.104536
1906 4 -23.1398 -27.1369 -36.7287 3.80175 -2.16384 0.584487
33570 4 -21.4441 -27.221 -38.566 0.151458 -1.63378 2.15263
26809 2 -39.798 -40.2083 -35.4299 -3.73191 2.238 2.8938
27681 4 -39.8521 -42.2888 -33.9783 -0.981012 -2.68943 1.33583
16740 4 -37.3366 -41.3861 -35.205 -1.33413 0.957366 -5.09136
37104 2 -37.5784 -42.0535 -32.758 -1.17264 -0.570766 -1.33771
25931 4 -34.078 -41.9516 -36.2568 2.82394 5.83441 1.90668
46560 4 -35.2514 -41.7824 -33.9758 1.42289 3.02151 -3.10805
18157 4 -31.8748 -43.4197 -35.8344 0.566406 1.502 1.79069
31259 2 -30.9102 -40.4346 -33.4133 -0.301102 -1.99781 0.470243
26668 2 -31.6011 -41.0825 -35.7537 3.61328 -2.96842 -1.48579
15787 2 -32.6926 -42.0521 -33.8354 -0.0236258 3.34748 0.137118
47738 2 -27.7555 -41.1778 -35.8879 0.382101 2.59226 -2.17952
12396 2 -29.7768 -42.2148 -34.6324 0.691045 -2.21935 -2.01449
33189 4 -27.4058 -42.7226 -33.7017 -0.977669 1.40598 -0.950283
11244 2 -25.6496 -42.4292 -35.426 1.35819 0.176432 0.969492
10207 2 -24.9458 -41.9537 -32.947 2.29412 0.926206 -0.0026921
21866 2 -26.228 -40.3502 -34.2658 0.416924 1.02623 -1.51177
17338 2 -23.6372 -41.374 -34.7159 0.812292 -2.4211 -2.42262
48667 2 -22.0266 -42.8416 -35.917 2.63626 -3.88572 4.43709
40026 4 -21.3085 -40.4347 -34.4455 -0.292123 -2.88173 -1.55586
40605 4 -21.3948 -43.0379 -33.4513 0.0301855 3.20691 0.533677
14441 4 -38.9615 -37.1781 -36.1237 -3.66845 3.45024 -1.69782
32113 2 -37.6797 -38.7667 -34.8319 -0.982405 0.386035 -2.64801
35309 4 -39.3835 -37.1345 -33.1756 3.89704 -1.04316 -0.462485
21579 4 -38.9667 -39.7719 -33.2729 -1.69168 1.23621 1.00316
3610 4 -35.6839 -39.7431 -36.2111 0.357947 1.73409 -1.77896
3942 4 -36.2436 -39.9154 -33.2415 4.71485 2.99051 1.2296
1410 4 -33.6564 -39.7531 -34.4981 -2.22223 -1.43666 2.00382
2713 2 -35.3727 -37.9448 -34.6218 2.21355 1.16866 -1.6322
10953 2 -33.7437 -37.7594 -36.204 -0.975902 -0.464361 -2.65355
39962 4 -31.6831 -38.6125 -35.4491 1.06518 0.439611 -2.27765
15 2 -30.6788 -36.8444 -34.4084 0.381096 4.58973 2.09206
5758 2 -32.1627 -38.3754 -33.0463 -2.17299 -0.281258 2.19771
20520 2 -28.4213 -40.0518 -33.5238 -0.286886 -0.815804 -0.694278
27224 4 -29.5558 -39.7408 -35.4281 1.84431 0.918731 0.339325
20647 2 -28.4935 -37.7518 -34.4318 -2.24734 0.888008 -1.90889
23998 2 -25.9352 -37.9864 -34.8147 -0.996743 -0.752094 -1.00201
47186 4 -23.9533 -36.8326 -33.9445 2.31617 0.0554073 -1.43957
7075 4 -23.5849 -38.9727 -35.1027 3.0486 -4.35731 -1.86107
38831 4 -24.6936 -39.3127 -32.7355 -2.1944 0.0160673 -1.0705
32494 2 -23.2879 -37.0403 -36.29 1.81021 -0.791197 3.48759
16154 4 -21.16 -37.2943 -34.7558 0.995746 0.775067 -0.650884
39123 2 -22.4004 -38.2718 -32.7365 -0.466399 1.68188 3.50086
15792 2 -37.2889 -36.3943 -34.2638 2.62699 -2.77705 -2.63905
30398 4 -39.304 -34.9849 -34.9324 -4.04086 -0.457962 1.74386
21821 4 -37.1815 -33.9164 -34.3202 1.39543 -1.46591 -0.23328
162 2 -35.6923 -33.5971 -36.2351 -1.41881 -2.92378 3.15512
19315 4 -35.3026 -35.6428 -32.9754 2.81924 -0.218533 1.12019
22590 2 -35.0797 -35.7047 -35.3264 2.97616 0.0408598 -1.88496
44696 4 -33.9688 -33.6793 -34.5262 0.850087 -0.18023 -2.59982
45380 4 -32.3119 -35.4804 -36.2575 1.17918 0.893308 1.58661
10222 2 -33.1964 -36.5114 -34.0468 0.648909 -2.11649 -0.265533
22465 2 -31.4986 -34.7569 -33.8846 3.94462 1.56449 -1.48105
18548 4 -29.6103 -35.0022 -36.1479 -1.09711 1.47774 0.303468
41445 4 -28.8984 -35.5242 -33.1156 -3.14403 0.520088 -0.178828
19950 2 -27.4411 -36.225 -35.9984 -1.85852 -1.01981 -0.108894
8482 4 -27.707 -34.08 -35.067 -5.35719 0.290811 -1.447
36754 2 -29.6631 -33.2178 -33.9518 1.91798 -2.11612 -0.350069
42611 4 -25.117 -35.008 -35.8878 -1.26177 -0.122716 5.63406
20716 4 -26.4419 -35.8493 -33.6608 1.06759 1.40868 -2.92896
21670 2 -23.4885 -34.5164 -33.6501 -0.771038 -2.36105 -2.58183
34971 2 -25.6299 -33.2715 -34.1695 -1.82676 -1.61391 -0.464549
42862 2 -22.0646 -35.1774 -35.4297 2.51786 -1.71006 2.67645
12577 4 -21.1295 -35.4767 -32.9076 -1.45361 1.39414 -0.40646
16903 2 -37.5861 -31.1149 -33.5743 0.309163 2.9704 -6.33745
39330 2 -39.6191 -32.6735 -34.0353 1.42233 -2.46592 2.36345
47124 2 -37.5642 -31.9291 -35.7366 0.840738 -1.87523 -1.35619
50286 2 -39.2562 -30.4079 -35.1365 -0.118333 1.81088 -2.83756
39889 2 -34.0688 -31.6011 -32.7073 2.21516 -2.64454 2.62852
5172 2 -35.5409 -31.7941 -34.5789 -0.335444 -0.957015 1.05106
15081 4 -33.1717 -31.0088 -34.9275 -4.62943 1.21951 0.326421
35219 2 -31.5624 -33.0745 -35.5595 3.19362 -1.6288 0.621796
41572 2 -31.8183 -32.2423 -33.1861 0.278973 -2.56569 0.433701
37111 2 -30.2782 -30.9666 -34.5877 2.95037 -2.23916 0.0611831
27563 2 -32.5325 -29.8096 -33.059 1.4176 -2.16873 1.67254
50677 4 -27.6614 -31.4561 -34.5311 3.68106 -7.0291 -0.570603
6232 2 -25.0522 -30.934 -34.6167 1.35195 2.61379 -0.0135799
6812 4 -23.6033 -32.2957 -33.0959 1.46317 -1.28545 1.28017
10199 4 -23.4459 -32.9543 -35.5326 1.79604 -0.346933 -3.61401
49391 4 -21.2289 -33.0785 -33.911 1.46831 0.907225 -0.0344902
16220 2 -22.6942 -30.6466 -34.4139 4.27383 2.56247 1.24865
22630 2 -20.5155 -30.4247 -34.2435 -0.843755 0.0443087 -2.63061
45064 4 -39.3691 -27.9361 -36.2829 1.19387 2.5801 0.783231
14190 2 -38.987 -26.6875 -33.6379 -2.67552 2.50199 -2.81064
24402 4 -37.4815 -28.4881 -34.689 -2.05041 0.839412 -0.726616
42743 2 -36.7983 -26.7853 -32.9147 0.16231 -3.2052 -1.47842
50202 2 -35.5534 -29.4744 -35.8799 -1.61735 1.08371 1.96611
2433 4 -35.615 -29.5201 -33.5169 -1.95394 0.676156 1.60029
29203 2 -33.6178 -28.514 -34.8013 -2.13538 -1.56286 5.3741
44948 2 -35.6018 -27.0365 -34.9728 -2.33706 -2.44893 -2.37846
27384 4 -31.2598 -28.9297 -35.3472 -2.0126 -1.68096 -1.64105
6770 4 -32.1769 -26.5669 -35.7468 -1.00697 0.606833 0.363671
20895 2 -32.2043 -27.2183 -33.3589 -0.675363 0.0772601 -2.36708
6911 4 -30.3101 -29.0026 -32.9786 -1.72264 3.54067 0.19509
20151 4 -29.8801 -27.1232 -36.3201 -3.12044 3.24484 -2.14826
14680 4 -28.6828 -29.1088 -34.8734 -5.14501 2.74195 0.619482
13282 2 -29.6989 -26.5112 -34.0565 -0.550491 2.63207 -1.63868
24800 2 -27.5506 -26.8775 -34.8528 -2.54672 0.800162 1.24466
36399 2 -25.7938 -27.0499 -33.2534 1.23801 0.0552662 1.48944
12365 4 -26.4045 -29.0682 -34.189 -0.162468 2.18463 -2.01861
34484 4 -25.4169 -27.1285 -35.9535 1.6261 -0.528152 1.70922
2808 2 -23.763 -28.5169 -34.278 -0.56865 -0.309099 -2.14467
7160 4 -21.4649 -28.9115 -36.0315 -1.65474 2.00881 1.69678
25798 2 -20.8208 -26.2154 -36.2777 0.000407819 0.013173 -1.54067
19768 2 -21.7432 -27.1577 -34.2761 -3.154 -1.16759 1.236
901 4 -37.5437 -42.1587 -29.5722 -1.32945 -1.145 -1.51311
11092 2 -37.699 -40.2446 -31.1704 -0.0340687 1.31907 1.78561
21680 2 -39.5324 -40.9389 -29.3819 -2.0573 1.79224 2.3702
23895 2 -39.9343 -41.328 -31.6231 -0.948041 0.780632 -0.0183299
1752 2 -38.9766 -43.4142 -31.4779 -0.0642923 3.28352 2.37101
5655 2 -34.9171 -42.7835 -29.5209 -0.592067 0.7281 -0.301971
50457 4 -35.6457 -41.5285 -31.3509 1.11705 0.0475455 0.270982
25435 4 -33.9293 -43.1833 -31.9662 5.76475 1.00351 -1.35434
13710 4 -33.5268 -40.177 -32.2259 2.44589 -0.191704 -0.229872
14397 4 -33.2932 -40.9066 -30.0433 1.29938 -0.43524 2.07175
27454 2 -31.7205 -42.0529 -31.5645 1.47979 -3.01985 4.5701
22677 2 -30.0948 -41.398 -29.6259 1.53594 -3.20486 -2.64968
16491 4 -27.8134 -41.676 -29.831 2.66656 -2.39702 1.66703
7251 4 -29.3234 -41.7198 -31.9582 -0.228695 1.27265 4.25544
12668 4 -26.8856 -40.8709 -31.9097 0.032828 1.29247 2.41402
34585 2 -24.6388 -40.9487 -30.6174 1.90833 0.379941 3.76842
34635 2 -25.5853 -43.0321 -30.4685 -2.84884 3.58325 -1.19275
24568 4 -23.4227 -43.0829 -31.6698 1.86978 0.109438 -1.07039
47264 2 -23.4058 -42.6246 -29.3234 0.077806 2.10731 1.67532
28042 4 -20.9607 -42.106 -30.8847 -0.859786 -0.356502 0.182378
19108 2 -22.388 -40.4583 -29.7552 -1.83313 1.14867 0.378744
46090 2 -22.7965 -40.7305 -32.2294 0.227014 -0.418225 -0.0222918
2533 2 -20.0308 -40.103 -29.2449 -0.582517 -5.47855 -0.622099
4899 2 -37.2516 -38.3184 -29.6854 1.83001 -2.83082 -0.615339
10466 4 -39.7534 -38.6943 -30.5681 1.53899 0.989006 2.37513
50380 4 -37.2815 -38.0521 -32.2903 0.414633 -3.12834 1.08612
41912 2 -35.2377 -39.1038 -30.6584 -2.04725 -2.81791 -2.97366
45517 2 -34.5212 -37.9548 -32.5542 -1.23043 1.41307 2.67458
16280 2 -35.9141 -36.803 -30.8388 -0.838124 0.85266 0.602557
38751 4 -31.0643 -39.7572 -31.1634 3.22549 -0.0093691 0.175276
17158 2 -30.399 -37.8828 -29.9815 1.81188 0.726205 -4.41337
34123 4 -32.8075 -38.2333 -30.3868 0.28347 -4.19449 -1.87885
11970 4 -27.5983 -37.4633 -29.952 1.61746 0.910187 1.08715
44685 2 -28.6126 -39.5303 -30.6478 -1.48538 -2.20855 4.12184
46038 4 -26.9836 -38.4018 -32.597 0.0938856 2.78599 -0.665121
742 4 -29.7373 -38.2123 -32.4443 -0.497709 0.650615 0.687233
25459 4 -25.2522 -37.034 -31.6372 -1.55623 0.563059 1.481
24561 2 -25.8931 -39.0936 -30.4141 -1.15664 -0.52693 -0.212361
5930 4 -23.4368 -38.614 -30.4922 -4.94702 -1.14892 -0.340647
8846 4 -20.6966 -39.7111 -31.6912 3.02605 1.39152 -2.30692
49702 4 -21.2889 -37.2621 -30.9501 -1.00303 1.93092 2.23215
16612 2 -38.8211 -36.5018 -30.5669 -0.377532 -0.291682 -2.91615
2215 4 -39.9357 -34.6967 -32.4706 -3.23107 -3.21923 0.186763
22779 4 -37.4556 -35.1636 -32.1853 -0.818773 0.230023 1.15633
42437 4 -38.6801 -34.1418 -29.856 -1.78061 -1.33311 -1.0863
28252 2 -33.6071 -36.1049 -31.009 2.35563 0.56116 1.1814
3172 2 -35.515 -34.4381 -30.707 0.286309 -0.441539 -3.91469
19976 2 -33.5567 -34.3613 -29.3845 4.08208 -2.87487 -0.531709
31567 4 -33.142 -34.0113 -32.0359 2.42315 -1.19254 -1.61984
12525 2 -31.5071 -36.3534 -32.0212 0.664813 -0.661664 -4.13702
33775 4 -31.5837 -35.7371 -29.6889 1.31353 2.14836 -1.36873
35134 2 -30.5689 -34.1017 -31.6289 0.577994 -0.551831 4.68795
33791 2 -29.3232 -35.9407 -30.7008 -2.99648 -1.49881 -0.631016
20108 2 -27.1418 -35.5233 -31.4957 0.950561 -5.06694 -0.811357
3195 4 -28.4478 -33.3705 -30.439 -3.94852 0.0753681 1.09
25423 4 -27.6356 -33.321 -32.6634 0.99368 -2.78027 0.72571
23627 2 -25.2802 -35.4963 -29.8968 0.263336 0.128763 -0.765231
12556 4 -25.0095 -34.1644 -31.8428 1.08915 -0.410868 2.17421
23753 4 -23.5595 -33.9504 -29.4981 0.627973 0.959279 -1.38765
43989 2 -23.1653 -35.8558 -31.5587 -2.85494 -2.33496 1.16029
17248 2 -21.3156 -34.9355 -30.3012 1.11692 -2.29348 1.46578
6467 2 -22.3896 -33.5658 -31.7224 2.53723 -3.48886 -1.26067
49777 4 -22.9067 -36.4461 -29.3043 0.562341 -0.488604 -0.456634
44503 2 -20.1227 -33.2248 -31.406 0.232634 0.224615 -0.636512
33662 2 -38.1422 -32.9309 -32.0464 -0.726729 0.18066 -1.32688
41106 2 -38.5195 -31.5107 -30.313 1.25073 -1.58853 1.61029
18340 4 -39.874 -30.6482 -32.3264 -3.12469 -0.443328 -0.616274
50026 2 -35.8324 -33.0917 -32.5206 1.63551 -1.60357 -5.36071
9716 4 -36.5942 -32.6112 -29.5576 -1.50071 -0.282589 -0.460435
5842 4 -36.4168 -30.8836 -31.3725 -0.125219 0.512394 0.610855
47217 2 -34.2965 -32.3574 -30.4349 0.801092 -0.614495 3.86193
39099 4 -35.0715 -30.5773 -29.214 0.024544 -0.190879 1.10173
46694 2 -31.7904 -32.9088 -29.9631 -3.96497 1.73455 0.306734
44285 4 -32.0067 -30.6871 -30.8506 1.85462 3.09483 2.03089
40904 4 -29.591 -31.6906 -31.9881 -1.24494 -1.69529 0.00948684
32924 2 -27.9919 -29.9896 -32.6174 0.435447 0.760503 0.0432942
8244 2 -27.758 -31.0686 -29.9536 -1.07247 -1.08481 3.05934
29242 4 -26.1596 -32.9713 -30.0338 -1.1631 3.72577 0.0505649
9966 4 -25.444 -30.2414 -30.046 -4.36678 -1.15219 -3.16096
32182 2 -23.9098 -31.9184 -30.8517 0.365143 0.638067 1.42234
31986 4 -26.0636 -31.5291 -32.3346 -2.40571 -1.02524 1.95897
20634 2 -23.9193 -29.9887 -32.3784 -1.5855 -1.2363 -3.23391
35724 4 -23.0638 -29.7815 -29.9798 1.55663 1.27844 -1.88283
3204 4 -21.699 -32.4699 -29.5198 -0.475697 2.26638 2.2464
38503 4 -21.5184 -31.1812 -31.8862 0.274558 2.06921 -0.205135
46763 4 -20.6249 -29.9557 -29.7 1.53478 2.32682 -0.0258441
2176 4 -38.3667 -26.5799 -30.9675 0.728934 2.75429 0.666309
7459 4 -38.9498 -29.1902 -30.2229 -0.938439 -1.51095 -0.363753
45613 4 -38.0516 -28.8702 -32.3068 -0.59724 2.88508 -1.95238
9780 2 -34.2227 -29.6137 -31.2287 1.69935 -0.0344281 2.50522
18920 4 -34.5041 -27.5838 -32.4937 2.54694 -0.42612 -0.0314473
18403 4 -36.4015 -28.3131 -30.6563 -2.1009 0.199861 -3.61913
6162 2 -34.3071 -27.048 -30.0865 2.05843 -4.50696 -0.66371
2940 4 -32.2344 -28.0632 -31.1321 4.22179 -0.144251 -0.392627
31956 4 -30.4987 -26.1533 -31.8254 1.10788 -0.897052 1.87544
5004 4 -29.501 -29.5638 -30.684 0.0320096 -5.59817 0.102092
16392 2 -29.8241 -27.4768 -29.7255 -3.68722 1.4856 1.91943
1085 4 -27.3628 -28.2773 -29.996 -1.93379 0.12626 -3.94807
41833 4 -28.1971 -27.6816 -32.2559 5.25456 3.31439 -2.32233
42170 2 -25.8882 -28.8999 -31.8687 -1.04097 -3.41451 -0.82731
41133 2 -24.783 -27.899 -29.6043 2.76639 -1.12186 -1.31481
39152 2 -25.9338 -26.3851 -31.1096 -2.04471 0.0849981 2.81399
36544 4 -23.8611 -27.5756 -31.8694 0.153568 -1.79984 -2.73202
18303 4 -21.7024 -28.8279 -32.4046 -3.06363 -1.59495 -0.139257
38539 2 -22.25 -27.6435 -30.0244 -4.14283 -2.3685 1.09775
45035 2 -38.5593 -42.8785 -27.4516 -0.0601242 -0.511284 -0.242168
10343 4 -37.7697 -40.2751 -27.7752 -0.608072 -0.077637 1.92357
32513 4 -39.8648 -41.125 -26.7049 -1.40672 3.56443 -0.450032
20325 2 -35.6012 -40.3054 -28.8811 -0.681281 2.37353 -1.10285
1674 2 -36.2016 -42.2504 -27.5091 1.43604 2.97834 0.367993
48044 2 -33.6944 -41.3123 -27.7381 -1.80365 -3.12173 0.939882
23787 4 -35.226 -40.1117 -26.2695 -2.07384 0.423473 -2.44316
35859 2 -35.449 -42.7588 -25.4425 -0.0161647 1.43462 -0.589752
17282 4 -32.2865 -43.0673 -29.0408 -1.95809 -1.85115 -1.13434
36076 4 -31.5162 -41.9833 -26.8724 8.13017 0.781031 1.70183
8524 2 -30.0639 -40.0926 -26.0929 -0.318406 2.47687 2.93774
42919 4 -28.4517 -41.4336 -27.4016 -5.06734 2.46298 2.74055
31903 2 -29.6922 -43.3366 -28.4132 -3.05611 2.04524 -2.04605
241 2 -25.7913 -41.8034 -28.4325 1.22214 -0.644351 0.566785
12945 4 -25.9475 -40.6708 -26.0598 0.34601 0.705015 -0.697689
19240 2 -26.0875 -43.0715 -26.4248 0.842602 -0.294639 0.139129
47228 2 -23.8151 -42.0515 -27.078 -0.54182 -1.16698 2.77344
12826 2 -21.3294 -41.9724 -28.2724 2.02462 -3.42903 0.0999631
5733 4 -21.7676 -42.2842 -25.6851 -0.0604344 0.428596 2.12434
47762 4 -38.9607 -37.9875 -27.9993 -3.31662 -3.19396 -1.39689
36653 2 -38.5009 -38.941 -25.7492 -0.602354 -1.98771 -1.96997
14962 2 -33.8235 -38.8327 -28.1847 1.07156 -2.52506 1.03703
44262 4 -36.3817 -38.1891 -27.5513 0.123727 -0.419906 -1.36136
30181 4 -33.9154 -37.5804 -26.0636 -3.67206 0.26436 -1.28156
25184 4 -34.4963 -36.6646 -28.8189 0.90316 -1.23019 -0.910925
31174 4 -31.645 -39.9763 -28.4781 -0.117791 0.642319 0.907178
26946 4 -31.8499 -37.5632 -27.7362 -3.31538 0.328076 3.71673
23794 4 -32.3421 -39.4478 -26.1364 -1.42806 -0.446811 1.39798
47248 4 -29.9181 -37.55 -25.932 -1.48823 0.232129 0.299258
42742 2 -27.5759 -37.4606 -27.4141 -2.31363 -0.683773 -1.64122
7334 2 -26.955 -39.6338 -28.2788 -1.55266 1.39625 -4.43761
46781 4 -29.4281 -39.1326 -28.1805 -0.883368 5.64033 -4.12479
48366 2 -27.8652 -39.1971 -25.8219 -0.270265 -2.01312 -0.249304
23120 2 -29.5154 -36.5871 -28.2764 2.13464 -3.81953 4.05956
16003 4 -24.4195 -39.879 -28.3422 -4.42223 2.47283 -2.83884
23064 4 -25.3448 -37.4395 -28.678 -0.574681 -0.65202 -2.29953
20658 2 -25.5326 -38.497 -26.6238 -2.42344 -1.50174 -1.23537
45249 4 -23.8 -39.5956 -25.4857 -3.34168 -0.882494 -0.686077
39041 2 -21.4214 -38.3761 -28.7507 -2.46342 2.25545 0.24028
6689 2 -23.2933 -37.9514 -27.303 -0.155406 -0.839992 1.30414
5230 4 -21.9849 -40.0619 -27.105 -1.6055 -1.46881 -1.22958
38200 2 -20.028 -38.5086 -26.8818 -0.839507 1.86063 2.60411
2028 2 -37.8972 -36.3275 -26.398 -0.0981955 -2.49667 0.0964869
13456 4 -39.5611 -35.1395 -27.8271 0.262357 3.25741 2.81675
32613 4 -37.15 -36.0327 -28.9278 0.975509 -1.0358 0.0397884
26118 2 -37.5789 -33.8914 -27.339 -2.99624 -0.217466 -3.9241
31841 2 -39.9208 -33.2191 -26.1039 -1.0233 -1.00018 -0.100657
30881 2 -35.6102 -36.0237 -26.6855 0.409053 0.313224 -0.364155
37252 2 -35.557 -34.4628 -28.3506 -0.101624 -2.84749 2.11493
18915 4 -35.5518 -33.5451 -26.0607 1.33369 -0.971763 2.3317
35878 4 -33.2418 -35.2969 -27.1512 -1.04652 -2.9177 -1.98745
45793 2 -30.8377 -35.3893 -26.9274 1.78772 3.30622 -0.964965
34015 2 -31.8759 -33.3484 -27.7425 -0.661704 -0.382715 3.54481
8443 4 -27.5018 -35.2426 -28.9848 1.18164 -0.483649 6.5872
6215 4 -29.8139 -34.0733 -28.7272 -1.13814 1.22864 -1.03898
23810 4 -28.2909 -34.8096 -26.6794 1.27664 -2.89463 -3.14199
736 2 -23.8556 -35.3367 -27.2052 2.40896 -2.56615 1.21142
46576 4 -26.1026 -35.959 -26.3279 0.37286 3.61272 0.940858
39194 4 -25.6761 -33.7006 -27.7016 0.0275827 0.689799 -0.562626
14414 2 -20.1702 -36.4983 -28.853 1.12909 -1.17547 2.14224
30451 2 -21.4298 -36.5522 -26.6661 1.02976 -0.594218 -1.0515
29678 4 -21.2346 -34.5129 -27.7136 -0.278178 -2.91271 -2.02556
40334 2 -37.3437 -30.0121 -28.731 1.83591 2.84989 -0.794
8366 2 -38.9066 -31.9667 -27.9674 -1.28635 -0.829536 1.96175
2657 4 -38.4834 -30.9758 -25.6423 -4.4221 -1.52461 -0.0922271
27076 2 -36.464 -31.6574 -27.1999 -0.662108 -1.09239 0.126224
44753 2 -34.3133 -32.5815 -27.9917 1.14623 1.41656 2.43286
40264 2 -34.4556 -30.1307 -26.9764 -2.91203 -0.61511 -1.68052
3138 4 -33.3707 -32.2988 -25.7551 2.43186 0.365518 -2.70499
23561 4 -32.531 -30.9971 -28.0329 0.24721 0.281234 -2.24919