units		metal
atom_style	atomic
boundary	p p p
read_data       FeNi_glass_${initTemp}.data
read_data       FeNi_glass_300.data
Reading data file ...
  triclinic box = (-39.973239 -43.551705 -43.591808) to (39.973239 43.551705 43.591808) with tilt (0.0000000 0.0000000 0.0000000)
  1 by 1 by 1 MPI processor grid
  reading atoms ...
  50688 atoms
  reading velocities ...
  50688 velocities
  read_data CPU = 0.175 seconds
mass 1 58.993
mass 2 58.6934
mass 3 51.9961
mass 4 55.845
mass 5 54.9380
neigh_modify delay 0
pair_style meam/c
pair_coeff * * library_CoNiCrFeMn.meam Co Ni Cr Fe Mn parameters.meam Co Ni Cr Fe Mn

# Store final cell length for strain calculations
variable tmp equal "lx"
variable L0x equal ${tmp}
variable L0x equal 79.9464778332
variable tmpy equal "ly"
variable L0y equal ${tmpy}
variable L0y equal 87.103410397
variable tmpz equal "lz"
variable L0z equal ${tmpz}
variable L0z equal 87.1836163976


######################################
# DEFORMATION

timestep 0.001
fix 		1 all nvt/sllod temp ${initTemp} ${initTemp} 1
fix 		1 all nvt/sllod temp 300 ${initTemp} 1
fix 		1 all nvt/sllod temp 300 300 1
variable srate1 equal "v_srate / 1.0e12"
fix             2 all deform 1  xy erate ${srate1}  units box  remap v
fix             2 all deform 1  xy erate 0.0001  units box  remap v
compute 	1 all stress/atom NULL pair
#dump      1 all custom 1 NiFe_glass-${initTemp}-${srate}.dump id type x y z vx vy vz  meam_force.cpp ln.967: 15+6+1
dump    11 all custom 1 virialStress.xyz id type x y z c_1[1] c_1[2] c_1[3] c_1[4] c_1[5] c_1[6] c_1[22]
#dump 2 all custom 10000 dump.NiFe_glass-${initTemp}-${srate}.unwrap id type xu yu zu
variable strainxy equal "(xy)/v_L0y"
variable  tmp3 equal "vol"
variable Volume equal ${tmp3}
variable Volume equal 607112.778701452
#compute		reducedstress all reduce sum c_mystress[4]
#variable	stress equal (c_reducedstress)/(10^4*${Volume})
#variable s1xy equal "v_stress"
#variable p1xy equal "v_strainxy"
#variable p1 equal "-pxy/10000"
thermo 1
#thermo_style	custom step v_strainxy v_p1 v_stress ke pe press temp
#fix def1 all print 1 "${p1xy} ${p1} ${s1xy}" append NiFe_glass-${initTemp}-${srate}.txt
run ${runTime}
run 3
Neighbor list info ...
  update every 1 steps, delay 0 steps, check yes
  max neighbors/atom: 2000, page size: 100000
  master list distance cutoff = 6.5
  ghost atom cutoff = 6.5
  binsize = 3.25, bins = 25 27 27
  2 neighbor lists, perpetual/occasional/extra = 2 0 0
  (1) pair meam/c, perpetual
      attributes: full, newton on
      pair build: full/bin/atomonly
      stencil: full/bin/3d
      bin: standard
  (2) pair meam/c, perpetual, half/full from (1)
      attributes: half, newton on
      pair build: halffull/newton
      stencil: none
      bin: none
Per MPI rank memory allocation (min/avg/max) = 155.9 | 155.9 | 155.9 Mbytes
Step Temp E_pair E_mol TotEng Press Volume 
       0     299.3806   -217999.89            0    -216038.4    37.396911    607112.78 
       1    299.36659    -217999.8            0    -216038.4    40.935057    607112.78 
       2    299.35856   -217999.74            0    -216038.4    44.055306    607112.78 
       3     299.3566   -217999.73            0    -216038.4    46.825427    607112.78 
Loop time of 30.5618 on 1 procs for 3 steps with 50688 atoms

Performance: 0.008 ns/day, 2829.800 hours/ns, 0.098 timesteps/s
99.7% CPU use with 1 MPI tasks x no OpenMP threads

MPI task timing breakdown:
Section |  min time  |  avg time  |  max time  |%varavg| %total
---------------------------------------------------------------
Pair    | 29.154     | 29.154     | 29.154     |   0.0 | 95.39
Neigh   | 0          | 0          | 0          |   0.0 |  0.00
Comm    | 0.0037272  | 0.0037272  | 0.0037272  |   0.0 |  0.01
Output  | 1.3403     | 1.3403     | 1.3403     |   0.0 |  4.39
Modify  | 0.057052   | 0.057052   | 0.057052   |   0.0 |  0.19
Other   |            | 0.006883   |            |       |  0.02

Nlocal:        50688.0 ave       50688 max       50688 min
Histogram: 1 0 0 0 0 0 0 0 0 0
Nghost:        27060.0 ave       27060 max       27060 min
Histogram: 1 0 0 0 0 0 0 0 0 0
Neighs:    2.41143e+06 ave 2.41143e+06 max 2.41143e+06 min
Histogram: 1 0 0 0 0 0 0 0 0 0
FullNghs:  4.82287e+06 ave 4.82287e+06 max 4.82287e+06 min
Histogram: 1 0 0 0 0 0 0 0 0 0

Total # of neighbors = 4822866
Ave neighs/atom = 95.148082
Neighbor list builds = 0
Dangerous builds = 0




######################################
# SIMULATION DONE
print "All done"
All done
Total wall time: 0:00:42
