ITEM: TIMESTEP
0
ITEM: NUMBER OF ATOMS
16384
ITEM: BOX BOUNDS pp pp pp
0.0000000000000000e+00 2.7123309313157300e+01
0.0000000000000000e+00 2.7123309313157300e+01
0.0000000000000000e+00 2.7123309313157300e+01
ITEM: ATOMS id type x y z
1 4 0 0 0
2 4 0.854331 0.854331 0
3 4 2.56299 0.854331 0
4 4 2.56299 0 0.854331
5 4 1.70866 0.854331 0.854331
32 4 0.854331 1.70866 0.854331
33 4 0 2.56299 0.854331
34 4 2.56299 1.70866 0.854331
35 4 1.70866 2.56299 0.854331
522 4 2.56299 0 2.56299
523 4 1.70866 0.854331 2.56299
553 4 0.854331 2.56299 1.70866
554 4 0 2.56299 2.56299
555 4 2.56299 2.56299 1.70866
556 4 2.56299 1.70866 2.56299
557 4 1.70866 2.56299 2.56299
8193 2 0 0 0
8194 2 0.854331 0.854331 0
8195 2 0.854331 0 0.854331
8196 2 0 0.854331 0.854331
8197 2 2.56299 0 0.854331
8226 2 0 1.70866 0
8227 2 0.854331 2.56299 0
8228 2 2.56299 1.70866 0.854331
8730 2 0.854331 0.854331 1.70866
8731 2 0 0.854331 2.56299
8732 2 2.56299 0.854331 1.70866
8733 2 2.56299 0 2.56299
8734 2 1.70866 0.854331 2.56299
8760 2 1.70866 1.70866 1.70866
8761 2 2.56299 2.56299 1.70866
6 4 4.27165 0 0.854331
7 4 3.41732 0.854331 0.854331
8 4 5.98031 0.854331 0
9 4 5.98031 0 0.854331
10 4 5.12598 0.854331 0.854331
36 4 3.41732 1.70866 0
37 4 4.27165 2.56299 0
38 4 4.27165 1.70866 0.854331
39 4 3.41732 2.56299 0.854331
40 4 5.98031 2.56299 0
41 4 5.98031 1.70866 0.854331
42 4 5.12598 2.56299 0.854331
524 4 4.27165 0 2.56299
525 4 5.98031 0.854331 1.70866
526 4 5.98031 0 2.56299
527 4 5.12598 0.854331 2.56299
558 4 3.41732 1.70866 1.70866
559 4 4.27165 1.70866 2.56299
560 4 3.41732 2.56299 2.56299
561 4 5.12598 1.70866 1.70866
562 4 5.98031 2.56299 1.70866
8198 2 3.41732 0 0
8199 2 4.27165 0.854331 0
8200 2 5.98031 0.854331 0
8229 2 3.41732 1.70866 0
8230 2 4.27165 2.56299 0
8735 2 3.41732 0 1.70866
8736 2 4.27165 0 2.56299
8737 2 3.41732 0.854331 2.56299
8738 2 5.98031 0 2.56299
8739 2 5.12598 0.854331 2.56299
8762 2 4.27165 2.56299 1.70866
8763 2 4.27165 1.70866 2.56299
8764 2 5.12598 2.56299 2.56299
11 4 6.83465 0 0
12 4 6.83465 0.854331 0.854331
43 4 6.83465 1.70866 0
44 4 7.68898 2.56299 0
45 4 6.83465 2.56299 0.854331
46 4 9.39764 1.70866 0.854331
47 4 8.54331 2.56299 0.854331
528 4 6.83465 0 1.70866
529 4 7.68898 0 2.56299
530 4 9.39764 0 2.56299
531 4 8.54331 0.854331 2.56299
563 4 7.68898 2.56299 1.70866
564 4 7.68898 1.70866 2.56299
565 4 8.54331 1.70866 1.70866
566 4 9.39764 2.56299 1.70866
567 4 9.39764 1.70866 2.56299
8201 2 7.68898 0 0.854331
8202 2 9.39764 0 0.854331
8203 2 8.54331 0.854331 0.854331
8231 2 6.83465 1.70866 0
8232 2 7.68898 1.70866 0.854331
8233 2 9.39764 2.56299 0
8740 2 6.83465 0 1.70866
8741 2 6.83465 0.854331 2.56299
8742 2 8.54331 0.854331 2.56299
8765 2 7.68898 2.56299 1.70866
8766 2 7.68898 1.70866 2.56299
8767 2 6.83465 2.56299 2.56299
8768 2 9.39764 2.56299 1.70866
8769 2 8.54331 2.56299 2.56299
13 4 10.252 0 0
14 4 11.9606 0 0
15 4 12.815 0 0.854331
16 4 11.9606 0.854331 0.854331
48 4 10.252 1.70866 0
49 4 11.1063 2.56299 0
50 4 11.1063 1.70866 0.854331
51 4 10.252 2.56299 0.854331
52 4 11.9606 2.56299 0.854331
532 4 11.1063 0.854331 1.70866
533 4 11.1063 0 2.56299
534 4 11.9606 0 1.70866
535 4 11.9606 0.854331 2.56299
568 4 10.252 1.70866 1.70866
569 4 11.1063 2.56299 1.70866
570 4 11.1063 1.70866 2.56299
8204 2 10.252 0 0
8205 2 11.1063 0.854331 0
8206 2 10.252 0.854331 0.854331
8207 2 11.9606 0 0
8208 2 12.815 0 0.854331
8234 2 11.1063 2.56299 0
8235 2 11.1063 1.70866 0.854331
8236 2 11.9606 1.70866 0
8237 2 11.9606 2.56299 0.854331
8743 2 10.252 0 1.70866
8744 2 11.1063 0.854331 1.70866
8745 2 10.252 0.854331 2.56299
8746 2 11.9606 0 1.70866
8747 2 12.815 0 2.56299
8770 2 10.252 1.70866 1.70866
8771 2 11.1063 2.56299 1.70866
8772 2 10.252 2.56299 2.56299
8773 2 11.9606 1.70866 1.70866
8774 2 12.815 1.70866 2.56299
8775 2 11.9606 2.56299 2.56299
17 4 13.6693 0 0
18 4 14.5236 0.854331 0
19 4 14.5236 0 0.854331
20 4 16.2323 0.854331 0
21 4 16.2323 0 0.854331
53 4 13.6693 1.70866 0
54 4 14.5236 2.56299 0
55 4 14.5236 1.70866 0.854331
56 4 13.6693 2.56299 0.854331
57 4 15.378 1.70866 0
58 4 16.2323 2.56299 0
59 4 15.378 2.56299 0.854331
536 4 13.6693 0 1.70866
537 4 14.5236 0.854331 1.70866
538 4 14.5236 0 2.56299
539 4 13.6693 0.854331 2.56299
571 4 13.6693 1.70866 1.70866
572 4 14.5236 2.56299 1.70866
573 4 14.5236 1.70866 2.56299
574 4 13.6693 2.56299 2.56299
575 4 15.378 1.70866 1.70866
576 4 16.2323 2.56299 1.70866
577 4 15.378 2.56299 2.56299
8209 2 14.5236 0.854331 0
8210 2 16.2323 0.854331 0
8211 2 16.2323 0 0.854331
8212 2 15.378 0.854331 0.854331
8238 2 13.6693 1.70866 0
8239 2 14.5236 2.56299 0
8240 2 16.2323 1.70866 0.854331
8241 2 15.378 2.56299 0.854331
8748 2 13.6693 0 1.70866
8749 2 13.6693 0.854331 2.56299
8750 2 16.2323 0.854331 1.70866
8751 2 16.2323 0 2.56299
8752 2 15.378 0.854331 2.56299
8776 2 14.5236 2.56299 1.70866
8777 2 13.6693 2.56299 2.56299
8778 2 15.378 1.70866 1.70866
22 4 17.9409 0.854331 0
23 4 18.7953 0 0
24 4 19.6496 0.854331 0
60 4 17.9409 1.70866 0.854331
61 4 17.0866 2.56299 0.854331
62 4 19.6496 1.70866 0.854331
540 4 17.0866 0 1.70866
541 4 18.7953 0 1.70866
542 4 19.6496 0.854331 1.70866
578 4 17.0866 2.56299 2.56299
579 4 19.6496 2.56299 1.70866
580 4 19.6496 1.70866 2.56299
581 4 18.7953 2.56299 2.56299
8213 2 17.0866 0 0
8214 2 17.9409 0 0.854331
8215 2 17.0866 0.854331 0.854331
8216 2 19.6496 0.854331 0
8217 2 18.7953 0.854331 0.854331
8242 2 17.9409 1.70866 0.854331
8243 2 18.7953 1.70866 0
8244 2 19.6496 2.56299 0
8753 2 17.0866 0.854331 2.56299
8754 2 19.6496 0.854331 1.70866
8755 2 19.6496 0 2.56299
8779 2 17.9409 1.70866 2.56299
8780 2 17.0866 2.56299 2.56299
8781 2 19.6496 1.70866 2.56299
8782 2 18.7953 2.56299 2.56299
25 4 21.3583 0.854331 0
26 4 23.0669 0.854331 0
63 4 20.5039 1.70866 0
64 4 21.3583 2.56299 0
65 4 21.3583 1.70866 0.854331
66 4 23.0669 2.56299 0
67 4 23.0669 1.70866 0.854331
543 4 21.3583 0.854331 1.70866
544 4 21.3583 0 2.56299
545 4 20.5039 0.854331 2.56299
546 4 22.2126 0 1.70866
547 4 23.0669 0.854331 1.70866
548 4 23.0669 0 2.56299
549 4 22.2126 0.854331 2.56299
582 4 21.3583 2.56299 1.70866
583 4 22.2126 1.70866 1.70866
584 4 23.0669 2.56299 1.70866
8218 2 20.5039 0 0
8219 2 21.3583 0.854331 0
8220 2 20.5039 0.854331 0.854331
8221 2 22.2126 0 0
8222 2 23.0669 0 0.854331
8223 2 22.2126 0.854331 0.854331
8245 2 20.5039 1.70866 0
8246 2 21.3583 1.70866 0.854331
8247 2 22.2126 1.70866 0
8248 2 23.0669 2.56299 0
8249 2 23.0669 1.70866 0.854331
8250 2 22.2126 2.56299 0.854331
8756 2 20.5039 0.854331 2.56299
8757 2 22.2126 0 1.70866
8758 2 23.0669 0 2.56299
8783 2 20.5039 1.70866 1.70866
8784 2 21.3583 2.56299 1.70866
8785 2 20.5039 2.56299 2.56299
8786 2 22.2126 2.56299 2.56299
27 4 23.9213 0 0
28 4 24.7756 0 0.854331
29 4 23.9213 0.854331 0.854331
30 4 25.6299 0 0
31 4 26.4843 0.854331 0
68 4 23.9213 1.70866 0
69 4 24.7756 2.56299 0
70 4 25.6299 1.70866 0
71 4 26.4843 2.56299 0
72 4 25.6299 2.56299 0.854331
550 4 23.9213 0.854331 2.56299
551 4 25.6299 0 1.70866
552 4 25.6299 0.854331 2.56299
585 4 24.7756 1.70866 2.56299
586 4 26.4843 2.56299 1.70866
8224 2 24.7756 0 0.854331
8225 2 25.6299 0 0
8251 2 23.9213 1.70866 0
8252 2 25.6299 1.70866 0
8253 2 26.4843 2.56299 0
8254 2 26.4843 1.70866 0.854331
8255 2 25.6299 2.56299 0.854331
8759 2 26.4843 0.854331 1.70866
8787 2 23.9213 1.70866 1.70866
8788 2 24.7756 1.70866 2.56299
8789 2 26.4843 2.56299 1.70866
73 4 0.854331 3.41732 0.854331
74 4 2.56299 3.41732 0.854331
75 4 1.70866 4.27165 0.854331
98 4 0.854331 5.98031 0
99 4 0.854331 5.12598 0.854331
100 4 0 5.98031 0.854331
101 4 1.70866 5.12598 0
102 4 2.56299 5.98031 0
103 4 2.56299 5.12598 0.854331
587 4 0 3.41732 1.70866
588 4 0.854331 4.27165 1.70866
589 4 0.854331 3.41732 2.56299
590 4 2.56299 4.27165 1.70866
591 4 1.70866 4.27165 2.56299
611 4 0 5.98031 2.56299
612 4 2.56299 5.98031 1.70866
8256 2 0.854331 3.41732 0.854331
8257 2 0 4.27165 0.854331
8258 2 1.70866 3.41732 0
8259 2 2.56299 4.27165 0
8295 2 0 5.12598 0
8296 2 1.70866 5.12598 0
8297 2 2.56299 5.98031 0
8298 2 2.56299 5.12598 0.854331
8790 2 0 3.41732 1.70866
8791 2 0.854331 3.41732 2.56299
8792 2 0 4.27165 2.56299
8793 2 1.70866 3.41732 1.70866
8794 2 2.56299 4.27165 1.70866
8795 2 1.70866 4.27165 2.56299
8824 2 0 5.12598 1.70866
8825 2 0.854331 5.98031 1.70866
8826 2 1.70866 5.12598 1.70866
76 4 5.12598 3.41732 0
77 4 5.98031 3.41732 0.854331
104 4 3.41732 5.12598 0
105 4 4.27165 5.12598 0.854331
106 4 5.98031 5.98031 0
107 4 5.98031 5.12598 0.854331
613 4 3.41732 5.12598 1.70866
614 4 4.27165 5.98031 1.70866
615 4 3.41732 5.98031 2.56299
616 4 5.98031 5.98031 1.70866
617 4 5.12598 5.98031 2.56299
8260 2 3.41732 3.41732 0
8261 2 4.27165 3.41732 0.854331
8262 2 3.41732 4.27165 0.854331
8263 2 5.12598 3.41732 0
8264 2 5.12598 4.27165 0.854331
8299 2 3.41732 5.12598 0
8300 2 4.27165 5.98031 0
8301 2 5.12598 5.12598 0
8302 2 5.98031 5.98031 0
8303 2 5.12598 5.98031 0.854331
8796 2 4.27165 3.41732 2.56299
8797 2 3.41732 4.27165 2.56299
8798 2 5.98031 4.27165 1.70866
8799 2 5.12598 4.27165 2.56299
8827 2 3.41732 5.12598 1.70866
8828 2 4.27165 5.98031 1.70866
8829 2 5.98031 5.98031 1.70866
8830 2 5.12598 5.98031 2.56299
78 4 7.68898 3.41732 0.854331
79 4 9.39764 4.27165 0
80 4 9.39764 3.41732 0.854331
108 4 8.54331 5.12598 0
109 4 9.39764 5.98031 0
110 4 9.39764 5.12598 0.854331
592 4 6.83465 3.41732 1.70866
593 4 7.68898 3.41732 2.56299
594 4 8.54331 3.41732 1.70866
595 4 9.39764 4.27165 1.70866
618 4 8.54331 5.12598 1.70866
619 4 9.39764 5.12598 2.56299
8265 2 6.83465 3.41732 0
8266 2 7.68898 4.27165 0
8267 2 7.68898 3.41732 0.854331
8268 2 8.54331 3.41732 0
8269 2 9.39764 4.27165 0
8270 2 9.39764 3.41732 0.854331
8304 2 7.68898 5.98031 0
8305 2 7.68898 5.12598 0.854331
8306 2 9.39764 5.98031 0
8800 2 6.83465 4.27165 2.56299
8801 2 9.39764 4.27165 1.70866
8802 2 9.39764 3.41732 2.56299
8831 2 6.83465 5.12598 1.70866
8832 2 6.83465 5.98031 2.56299
81 4 10.252 3.41732 0
82 4 11.1063 3.41732 0.854331
83 4 11.9606 4.27165 0.854331
111 4 10.252 5.12598 0
112 4 11.1063 5.12598 0.854331
113 4 10.252 5.98031 0.854331
114 4 11.9606 5.12598 0
115 4 12.815 5.98031 0
116 4 12.815 5.12598 0.854331
117 4 11.9606 5.98031 0.854331
596 4 10.252 3.41732 1.70866
597 4 11.1063 3.41732 2.56299
598 4 11.9606 3.41732 1.70866
599 4 12.815 4.27165 1.70866
600 4 12.815 3.41732 2.56299
620 4 11.1063 5.98031 1.70866
621 4 12.815 5.98031 1.70866
622 4 11.9606 5.98031 2.56299
8271 2 11.1063 4.27165 0
8272 2 10.252 4.27165 0.854331
8273 2 11.9606 4.27165 0.854331
8307 2 11.1063 5.98031 0
8308 2 10.252 5.98031 0.854331
8309 2 11.9606 5.12598 0
8310 2 12.815 5.12598 0.854331
8311 2 11.9606 5.98031 0.854331
8803 2 10.252 4.27165 2.56299
8804 2 11.9606 3.41732 1.70866
8833 2 11.1063 5.98031 1.70866
8834 2 12.815 5.98031 1.70866
84 4 14.5236 3.41732 0.854331
85 4 16.2323 4.27165 0
86 4 15.378 4.27165 0.854331
118 4 13.6693 5.98031 0.854331
119 4 15.378 5.12598 0
120 4 16.2323 5.98031 0
121 4 16.2323 5.12598 0.854331
122 4 15.378 5.98031 0.854331
601 4 14.5236 4.27165 1.70866
602 4 13.6693 4.27165 2.56299
603 4 15.378 3.41732 1.70866
623 4 13.6693 5.12598 1.70866
624 4 14.5236 5.98031 1.70866
625 4 13.6693 5.98031 2.56299
626 4 15.378 5.12598 1.70866
627 4 16.2323 5.12598 2.56299
8274 2 13.6693 3.41732 0
8275 2 14.5236 4.27165 0
8276 2 13.6693 4.27165 0.854331
8277 2 15.378 3.41732 0
8278 2 16.2323 4.27165 0
8279 2 16.2323 3.41732 0.854331
8280 2 15.378 4.27165 0.854331
8312 2 13.6693 5.12598 0
8313 2 14.5236 5.98031 0
8314 2 15.378 5.12598 0
8315 2 16.2323 5.12598 0.854331
8805 2 14.5236 4.27165 1.70866
8806 2 14.5236 3.41732 2.56299
8807 2 13.6693 4.27165 2.56299
8808 2 15.378 4.27165 2.56299
8835 2 13.6693 5.12598 1.70866
8836 2 14.5236 5.98031 1.70866
8837 2 13.6693 5.98031 2.56299
8838 2 16.2323 5.98031 1.70866
87 4 17.9409 3.41732 0.854331
88 4 17.0866 4.27165 0.854331
89 4 19.6496 3.41732 0.854331
90 4 18.7953 4.27165 0.854331
123 4 17.0866 5.12598 0
124 4 17.9409 5.12598 0.854331
604 4 18.7953 3.41732 1.70866
628 4 17.0866 5.12598 1.70866
629 4 17.9409 5.98031 1.70866
630 4 17.0866 5.98031 2.56299
631 4 19.6496 5.12598 2.56299
632 4 18.7953 5.98031 2.56299
8281 2 17.0866 3.41732 0
8282 2 17.9409 4.27165 0
8283 2 17.9409 3.41732 0.854331
8284 2 19.6496 4.27165 0
8316 2 17.0866 5.12598 0
8317 2 18.7953 5.12598 0
8318 2 18.7953 5.98031 0.854331
8809 2 17.9409 4.27165 1.70866
8810 2 17.9409 3.41732 2.56299
8811 2 17.0866 4.27165 2.56299
8812 2 18.7953 3.41732 1.70866
8813 2 19.6496 4.27165 1.70866
8814 2 19.6496 3.41732 2.56299
8815 2 18.7953 4.27165 2.56299
8839 2 17.0866 5.12598 1.70866
8840 2 17.9409 5.98031 1.70866
8841 2 17.9409 5.12598 2.56299
8842 2 17.0866 5.98031 2.56299
8843 2 19.6496 5.98031 1.70866
8844 2 18.7953 5.98031 2.56299
91 4 21.3583 4.27165 0
92 4 20.5039 4.27165 0.854331
93 4 22.2126 4.27165 0.854331
125 4 21.3583 5.98031 0
126 4 21.3583 5.12598 0.854331
127 4 20.5039 5.98031 0.854331
128 4 22.2126 5.12598 0
129 4 23.0669 5.12598 0.854331
605 4 20.5039 4.27165 2.56299
606 4 23.0669 3.41732 2.56299
607 4 22.2126 4.27165 2.56299
633 4 20.5039 5.12598 1.70866
634 4 22.2126 5.98031 2.56299
8285 2 20.5039 3.41732 0
8286 2 23.0669 4.27165 0
8287 2 23.0669 3.41732 0.854331
8288 2 22.2126 4.27165 0.854331
8319 2 23.0669 5.12598 0.854331
8320 2 22.2126 5.98031 0.854331
8816 2 20.5039 3.41732 1.70866
8817 2 21.3583 4.27165 1.70866
8818 2 21.3583 3.41732 2.56299
8819 2 20.5039 4.27165 2.56299
8820 2 23.0669 3.41732 2.56299
8845 2 20.5039 5.98031 2.56299
8846 2 22.2126 5.98031 2.56299
94 4 23.9213 3.41732 0
95 4 25.6299 3.41732 0
96 4 26.4843 4.27165 0
97 4 25.6299 4.27165 0.854331
130 4 23.9213 5.12598 0
131 4 26.4843 5.98031 0
608 4 23.9213 4.27165 2.56299
609 4 25.6299 3.41732 1.70866
610 4 26.4843 4.27165 1.70866
635 4 24.7756 5.98031 1.70866
636 4 23.9213 5.98031 2.56299
637 4 25.6299 5.12598 1.70866
638 4 26.4843 5.12598 2.56299
639 4 25.6299 5.98031 2.56299
8289 2 23.9213 3.41732 0
8290 2 24.7756 4.27165 0
8291 2 23.9213 4.27165 0.854331
8292 2 25.6299 3.41732 0
8293 2 26.4843 4.27165 0
8294 2 25.6299 4.27165 0.854331
8321 2 23.9213 5.12598 0
8322 2 23.9213 5.98031 0.854331
8323 2 25.6299 5.12598 0
8324 2 26.4843 5.98031 0
8325 2 25.6299 5.98031 0.854331
8821 2 23.9213 4.27165 2.56299
8822 2 26.4843 4.27165 1.70866
8823 2 26.4843 3.41732 2.56299
8847 2 23.9213 5.12598 1.70866
8848 2 24.7756 5.98031 1.70866
8849 2 24.7756 5.12598 2.56299
8850 2 23.9213 5.98031 2.56299
8851 2 26.4843 5.98031 1.70866
132 4 0.854331 7.68898 0
133 4 2.56299 7.68898 0
160 4 0 8.54331 0
161 4 0.854331 9.39764 0
162 4 0.854331 8.54331 0.854331
163 4 0 9.39764 0.854331
164 4 1.70866 8.54331 0
165 4 2.56299 8.54331 0.854331
640 4 0.854331 7.68898 1.70866
641 4 0.854331 6.83465 2.56299
642 4 0 7.68898 2.56299
643 4 2.56299 6.83465 2.56299
672 4 0 8.54331 1.70866
673 4 0.854331 8.54331 2.56299
674 4 0 9.39764 2.56299
675 4 1.70866 8.54331 1.70866
676 4 2.56299 9.39764 1.70866
677 4 2.56299 8.54331 2.56299
678 4 1.70866 9.39764 2.56299
8326 2 0.854331 7.68898 0
8327 2 0.854331 6.83465 0.854331
8328 2 0 7.68898 0.854331
8329 2 1.70866 6.83465 0
8330 2 2.56299 7.68898 0
8331 2 2.56299 6.83465 0.854331
8332 2 1.70866 7.68898 0.854331
8366 2 0 8.54331 0
8367 2 0.854331 9.39764 0
8368 2 0.854331 8.54331 0.854331
8369 2 0 9.39764 0.854331
8370 2 1.70866 8.54331 0
8371 2 2.56299 9.39764 0
8372 2 2.56299 8.54331 0.854331
8373 2 1.70866 9.39764 0.854331
8852 2 0 6.83465 1.70866
8853 2 0.854331 7.68898 1.70866
8854 2 0.854331 6.83465 2.56299
8855 2 0 7.68898 2.56299
8856 2 1.70866 6.83465 1.70866
8857 2 2.56299 7.68898 1.70866
8858 2 2.56299 6.83465 2.56299
8859 2 1.70866 7.68898 2.56299
8880 2 0 8.54331 1.70866
8881 2 0.854331 8.54331 2.56299
8882 2 0 9.39764 2.56299
8883 2 1.70866 8.54331 1.70866
8884 2 2.56299 9.39764 1.70866
8885 2 2.56299 8.54331 2.56299
134 4 4.27165 6.83465 0.854331
135 4 5.12598 7.68898 0.854331
166 4 4.27165 9.39764 0
167 4 4.27165 8.54331 0.854331
168 4 3.41732 9.39764 0.854331
169 4 5.98031 8.54331 0.854331
170 4 5.12598 9.39764 0.854331
644 4 5.98031 6.83465 2.56299
645 4 5.12598 7.68898 2.56299
679 4 3.41732 8.54331 1.70866
680 4 4.27165 9.39764 1.70866
681 4 4.27165 8.54331 2.56299
682 4 5.12598 8.54331 1.70866
683 4 5.98031 9.39764 1.70866
684 4 5.12598 9.39764 2.56299
8333 2 3.41732 6.83465 0
8334 2 4.27165 7.68898 0
8335 2 3.41732 7.68898 0.854331
8336 2 5.98031 7.68898 0
8374 2 3.41732 8.54331 0
8375 2 4.27165 9.39764 0
8376 2 5.98031 9.39764 0
8377 2 5.98031 8.54331 0.854331
8860 2 4.27165 7.68898 1.70866
8861 2 3.41732 7.68898 2.56299
8862 2 5.12598 7.68898 2.56299
8886 2 3.41732 8.54331 1.70866
8887 2 4.27165 9.39764 1.70866
8888 2 5.98031 9.39764 1.70866
8889 2 5.12598 9.39764 2.56299
136 4 6.83465 7.68898 0.854331
137 4 8.54331 6.83465 0
138 4 9.39764 7.68898 0
171 4 6.83465 8.54331 0
172 4 7.68898 9.39764 0
173 4 7.68898 8.54331 0.854331
174 4 6.83465 9.39764 0.854331
175 4 8.54331 8.54331 0
176 4 8.54331 9.39764 0.854331
646 4 7.68898 6.83465 2.56299
647 4 6.83465 7.68898 2.56299
648 4 9.39764 6.83465 2.56299
649 4 8.54331 7.68898 2.56299
685 4 6.83465 8.54331 1.70866
686 4 7.68898 9.39764 1.70866
687 4 7.68898 8.54331 2.56299
688 4 8.54331 8.54331 1.70866
689 4 9.39764 9.39764 1.70866
690 4 9.39764 8.54331 2.56299
8337 2 7.68898 7.68898 0
8338 2 7.68898 6.83465 0.854331
8339 2 6.83465 7.68898 0.854331
8340 2 8.54331 6.83465 0
8341 2 9.39764 6.83465 0.854331
8342 2 8.54331 7.68898 0.854331
8378 2 6.83465 8.54331 0
8379 2 7.68898 9.39764 0
8380 2 7.68898 8.54331 0.854331
8381 2 6.83465 9.39764 0.854331
8382 2 9.39764 9.39764 0
8383 2 9.39764 8.54331 0.854331
8863 2 7.68898 7.68898 1.70866
8864 2 8.54331 6.83465 1.70866
8865 2 9.39764 6.83465 2.56299
8890 2 6.83465 8.54331 1.70866
8891 2 7.68898 9.39764 1.70866
8892 2 9.39764 9.39764 1.70866
8893 2 9.39764 8.54331 2.56299
139 4 10.252 6.83465 0
140 4 11.1063 7.68898 0
141 4 12.815 7.68898 0
142 4 11.9606 7.68898 0.854331
177 4 10.252 8.54331 0
178 4 11.1063 9.39764 0
179 4 12.815 9.39764 0
650 4 11.1063 6.83465 2.56299
651 4 10.252 7.68898 2.56299
652 4 12.815 7.68898 1.70866
653 4 11.9606 7.68898 2.56299
691 4 11.1063 9.39764 1.70866
692 4 11.1063 8.54331 2.56299
693 4 10.252 9.39764 2.56299
8343 2 11.1063 7.68898 0
8344 2 11.1063 6.83465 0.854331
8345 2 10.252 7.68898 0.854331
8346 2 11.9606 7.68898 0.854331
8384 2 11.1063 9.39764 0
8385 2 11.1063 8.54331 0.854331
8386 2 11.9606 8.54331 0
8387 2 12.815 9.39764 0
8866 2 10.252 6.83465 1.70866
8867 2 11.1063 7.68898 1.70866
8868 2 11.9606 6.83465 1.70866
8869 2 12.815 7.68898 1.70866
8894 2 10.252 8.54331 1.70866
8895 2 11.1063 9.39764 1.70866
8896 2 10.252 9.39764 2.56299
8897 2 11.9606 8.54331 1.70866
143 4 14.5236 6.83465 0.854331
144 4 13.6693 7.68898 0.854331
145 4 16.2323 7.68898 0
146 4 16.2323 6.83465 0.854331
147 4 15.378 7.68898 0.854331
180 4 15.378 8.54331 0
181 4 16.2323 9.39764 0
182 4 15.378 9.39764 0.854331
654 4 13.6693 6.83465 1.70866
655 4 14.5236 7.68898 1.70866
656 4 14.5236 6.83465 2.56299
657 4 15.378 6.83465 1.70866
658 4 16.2323 7.68898 1.70866
694 4 14.5236 8.54331 2.56299
695 4 13.6693 9.39764 2.56299
696 4 16.2323 8.54331 2.56299
8347 2 14.5236 7.68898 0
8348 2 13.6693 7.68898 0.854331
8349 2 16.2323 6.83465 0.854331
8350 2 15.378 7.68898 0.854331
8388 2 13.6693 9.39764 0.854331
8389 2 16.2323 9.39764 0
8390 2 16.2323 8.54331 0.854331
8870 2 14.5236 7.68898 1.70866
8871 2 16.2323 7.68898 1.70866
8872 2 16.2323 6.83465 2.56299
8873 2 15.378 7.68898 2.56299
8898 2 14.5236 9.39764 1.70866
8899 2 16.2323 9.39764 1.70866
8900 2 16.2323 8.54331 2.56299
8901 2 15.378 9.39764 2.56299
148 4 17.0866 6.83465 0
149 4 17.9409 7.68898 0
150 4 17.0866 7.68898 0.854331
151 4 19.6496 7.68898 0
183 4 17.0866 8.54331 0
184 4 18.7953 8.54331 0
185 4 18.7953 9.39764 0.854331
659 4 17.9409 7.68898 1.70866
660 4 18.7953 6.83465 1.70866
661 4 19.6496 7.68898 1.70866
697 4 17.0866 9.39764 2.56299
698 4 18.7953 8.54331 1.70866
699 4 19.6496 9.39764 1.70866
700 4 18.7953 9.39764 2.56299
8351 2 17.9409 7.68898 0
8352 2 17.0866 7.68898 0.854331
8353 2 18.7953 6.83465 0
8354 2 19.6496 6.83465 0.854331
8355 2 18.7953 7.68898 0.854331
8391 2 17.0866 8.54331 0
8392 2 17.9409 9.39764 0
8393 2 17.9409 8.54331 0.854331
8394 2 18.7953 9.39764 0.854331
8874 2 17.9409 7.68898 1.70866
8875 2 17.9409 6.83465 2.56299
8876 2 17.0866 7.68898 2.56299
8902 2 17.0866 8.54331 1.70866
8903 2 17.9409 9.39764 1.70866
8904 2 17.0866 9.39764 2.56299
8905 2 19.6496 8.54331 2.56299
152 4 20.5039 6.83465 0
153 4 21.3583 7.68898 0
154 4 20.5039 7.68898 0.854331
155 4 22.2126 6.83465 0
156 4 23.0669 6.83465 0.854331
157 4 22.2126 7.68898 0.854331
186 4 21.3583 8.54331 0.854331
187 4 23.0669 9.39764 0
188 4 23.0669 8.54331 0.854331
189 4 22.2126 9.39764 0.854331
662 4 20.5039 6.83465 1.70866
663 4 21.3583 7.68898 1.70866
664 4 22.2126 6.83465 1.70866
665 4 23.0669 6.83465 2.56299
666 4 22.2126 7.68898 2.56299
701 4 20.5039 8.54331 1.70866
702 4 22.2126 8.54331 1.70866
703 4 23.0669 9.39764 1.70866
704 4 23.0669 8.54331 2.56299
8356 2 20.5039 6.83465 0
8357 2 21.3583 6.83465 0.854331
8358 2 20.5039 7.68898 0.854331
8359 2 23.0669 6.83465 0.854331
8360 2 22.2126 7.68898 0.854331
8395 2 20.5039 8.54331 0
8396 2 21.3583 8.54331 0.854331
8397 2 20.5039 9.39764 0.854331
8398 2 22.2126 8.54331 0
8399 2 23.0669 8.54331 0.854331
8400 2 22.2126 9.39764 0.854331
8877 2 21.3583 6.83465 2.56299
8878 2 22.2126 6.83465 1.70866
8906 2 20.5039 8.54331 1.70866
8907 2 21.3583 9.39764 1.70866
8908 2 21.3583 8.54331 2.56299
8909 2 22.2126 8.54331 1.70866
8910 2 23.0669 9.39764 1.70866
8911 2 23.0669 8.54331 2.56299
8912 2 22.2126 9.39764 2.56299
158 4 23.9213 6.83465 0
159 4 25.6299 7.68898 0.854331
190 4 24.7756 9.39764 0
191 4 26.4843 9.39764 0
192 4 26.4843 8.54331 0.854331
667 4 23.9213 6.83465 1.70866
668 4 24.7756 7.68898 1.70866
669 4 24.7756 6.83465 2.56299
670 4 26.4843 6.83465 2.56299
671 4 25.6299 7.68898 2.56299
705 4 23.9213 8.54331 1.70866
706 4 24.7756 9.39764 1.70866
707 4 24.7756 8.54331 2.56299
708 4 23.9213 9.39764 2.56299
709 4 25.6299 8.54331 1.70866
710 4 26.4843 9.39764 1.70866
8361 2 24.7756 7.68898 0
8362 2 25.6299 6.83465 0
8363 2 26.4843 7.68898 0
8364 2 26.4843 6.83465 0.854331
8365 2 25.6299 7.68898 0.854331
8401 2 23.9213 8.54331 0
8402 2 24.7756 9.39764 0
8403 2 26.4843 9.39764 0
8879 2 26.4843 6.83465 2.56299
8913 2 24.7756 9.39764 1.70866
8914 2 24.7756 8.54331 2.56299
8915 2 23.9213 9.39764 2.56299
8916 2 25.6299 8.54331 1.70866
8917 2 26.4843 8.54331 2.56299
193 4 0.854331 11.1063 0
194 4 0.854331 10.252 0.854331
195 4 0 11.1063 0.854331
196 4 1.70866 10.252 0
197 4 2.56299 11.1063 0
230 4 0 11.9606 0
231 4 0.854331 12.815 0
232 4 0.854331 11.9606 0.854331
233 4 0 12.815 0.854331
234 4 2.56299 12.815 0
235 4 2.56299 11.9606 0.854331
236 4 1.70866 12.815 0.854331
711 4 0 10.252 1.70866
712 4 0.854331 11.1063 1.70866
713 4 1.70866 10.252 1.70866
714 4 1.70866 11.1063 2.56299
747 4 0 11.9606 1.70866
748 4 0.854331 12.815 1.70866
749 4 0.854331 11.9606 2.56299
750 4 1.70866 11.9606 1.70866
751 4 2.56299 11.9606 2.56299
8404 2 1.70866 10.252 0
8405 2 1.70866 11.1063 0.854331
8431 2 0 11.9606 0
8432 2 0.854331 12.815 0
8433 2 0.854331 11.9606 0.854331
8434 2 0 12.815 0.854331
8435 2 2.56299 12.815 0
8436 2 2.56299 11.9606 0.854331
8918 2 0 10.252 1.70866
8919 2 0.854331 11.1063 1.70866
8920 2 1.70866 10.252 1.70866
8921 2 2.56299 11.1063 1.70866
8922 2 2.56299 10.252 2.56299
8952 2 0 11.9606 1.70866
8953 2 0.854331 12.815 1.70866
8954 2 2.56299 12.815 1.70866
8955 2 2.56299 11.9606 2.56299
198 4 3.41732 10.252 0
199 4 4.27165 11.1063 0
200 4 4.27165 10.252 0.854331
201 4 3.41732 11.1063 0.854331
202 4 5.12598 10.252 0
203 4 5.98031 11.1063 0
204 4 5.98031 10.252 0.854331
237 4 4.27165 11.9606 0.854331
238 4 3.41732 12.815 0.854331
239 4 5.12598 11.9606 0
240 4 5.98031 11.9606 0.854331
241 4 5.12598 12.815 0.854331
715 4 4.27165 11.1063 1.70866
716 4 4.27165 10.252 2.56299
717 4 3.41732 11.1063 2.56299
718 4 5.12598 10.252 1.70866
719 4 5.98031 11.1063 1.70866
720 4 5.12598 11.1063 2.56299
752 4 4.27165 12.815 1.70866
753 4 5.98031 12.815 1.70866
754 4 5.98031 11.9606 2.56299
8406 2 3.41732 10.252 0
8407 2 4.27165 11.1063 0
8408 2 5.12598 10.252 0
8409 2 5.12598 11.1063 0.854331
8437 2 3.41732 11.9606 0
8438 2 4.27165 12.815 0
8439 2 4.27165 11.9606 0.854331
8440 2 3.41732 12.815 0.854331
8923 2 3.41732 10.252 1.70866
8924 2 4.27165 11.1063 1.70866
8925 2 4.27165 10.252 2.56299
8926 2 5.12598 10.252 1.70866
8927 2 5.98031 11.1063 1.70866
8956 2 3.41732 11.9606 1.70866
8957 2 4.27165 11.9606 2.56299
8958 2 5.98031 12.815 1.70866
8959 2 5.98031 11.9606 2.56299
8960 2 5.12598 12.815 2.56299
205 4 7.68898 11.1063 0
206 4 7.68898 10.252 0.854331
207 4 9.39764 11.1063 0
208 4 8.54331 11.1063 0.854331
242 4 7.68898 12.815 0
243 4 7.68898 11.9606 0.854331
244 4 6.83465 12.815 0.854331
721 4 6.83465 10.252 1.70866
722 4 6.83465 11.1063 2.56299
723 4 9.39764 11.1063 1.70866
724 4 9.39764 10.252 2.56299
755 4 6.83465 11.9606 1.70866
756 4 7.68898 12.815 1.70866
757 4 6.83465 12.815 2.56299
758 4 8.54331 12.815 2.56299
8410 2 6.83465 10.252 0
8411 2 7.68898 11.1063 0
8412 2 6.83465 11.1063 0.854331
8413 2 8.54331 10.252 0
8414 2 9.39764 10.252 0.854331
8441 2 7.68898 11.9606 0.854331
8442 2 9.39764 12.815 0
8443 2 9.39764 11.9606 0.854331
8928 2 6.83465 10.252 1.70866
8929 2 7.68898 10.252 2.56299
8930 2 9.39764 11.1063 1.70866
8931 2 9.39764 10.252 2.56299
8961 2 6.83465 12.815 2.56299
8962 2 8.54331 11.9606 1.70866
8963 2 9.39764 12.815 1.70866
8964 2 8.54331 12.815 2.56299
209 4 10.252 10.252 0
210 4 11.1063 11.1063 0
211 4 12.815 11.1063 0
245 4 10.252 11.9606 0
246 4 11.1063 11.9606 0.854331
247 4 12.815 12.815 0
248 4 12.815 11.9606 0.854331
249 4 11.9606 12.815 0.854331
725 4 11.1063 10.252 2.56299
726 4 10.252 11.1063 2.56299
727 4 12.815 11.1063 1.70866
759 4 10.252 11.9606 1.70866
760 4 10.252 12.815 2.56299
761 4 12.815 11.9606 2.56299
762 4 11.9606 12.815 2.56299
8415 2 11.1063 11.1063 0
8416 2 11.1063 10.252 0.854331
8417 2 11.9606 10.252 0
8418 2 12.815 10.252 0.854331
8444 2 11.1063 12.815 0
8445 2 11.1063 11.9606 0.854331
8446 2 11.9606 11.9606 0
8932 2 10.252 11.1063 2.56299
8933 2 11.9606 10.252 1.70866
8934 2 12.815 11.1063 1.70866
8935 2 11.9606 11.1063 2.56299
8965 2 11.9606 11.9606 1.70866
212 4 13.6693 10.252 0
213 4 14.5236 11.1063 0
214 4 14.5236 10.252 0.854331
215 4 13.6693 11.1063 0.854331
216 4 16.2323 11.1063 0
217 4 16.2323 10.252 0.854331
250 4 13.6693 12.815 0.854331
251 4 15.378 11.9606 0
728 4 13.6693 10.252 1.70866
729 4 14.5236 11.1063 1.70866
730 4 14.5236 10.252 2.56299
731 4 15.378 10.252 1.70866
732 4 16.2323 10.252 2.56299
733 4 15.378 11.1063 2.56299
763 4 14.5236 11.9606 2.56299
764 4 13.6693 12.815 2.56299
765 4 15.378 11.9606 1.70866
766 4 16.2323 11.9606 2.56299
8419 2 13.6693 10.252 0
8420 2 14.5236 10.252 0.854331
8421 2 15.378 10.252 0
8422 2 16.2323 11.1063 0
8423 2 16.2323 10.252 0.854331
8447 2 13.6693 11.9606 0
8448 2 14.5236 12.815 0
8449 2 15.378 11.9606 0
8450 2 16.2323 11.9606 0.854331
8936 2 14.5236 11.1063 1.70866
8937 2 15.378 10.252 1.70866
8938 2 16.2323 11.1063 1.70866
8939 2 16.2323 10.252 2.56299
8940 2 15.378 11.1063 2.56299
8966 2 13.6693 11.9606 1.70866
8967 2 14.5236 11.9606 2.56299
8968 2 15.378 11.9606 1.70866
8969 2 16.2323 12.815 1.70866
8970 2 15.378 12.815 2.56299
218 4 17.0866 10.252 0
219 4 17.9409 10.252 0.854331
220 4 18.7953 10.252 0
221 4 19.6496 11.1063 0
252 4 17.0866 11.9606 0
253 4 17.9409 11.9606 0.854331
254 4 19.6496 12.815 0
734 4 17.0866 10.252 1.70866
735 4 17.9409 11.1063 1.70866
736 4 19.6496 11.1063 1.70866
737 4 19.6496 10.252 2.56299
738 4 18.7953 11.1063 2.56299
767 4 17.9409 12.815 1.70866
768 4 17.0866 12.815 2.56299
769 4 18.7953 11.9606 1.70866
8424 2 17.0866 10.252 0
8425 2 17.9409 11.1063 0
8426 2 19.6496 11.1063 0
8427 2 18.7953 11.1063 0.854331
8451 2 17.0866 11.9606 0
8452 2 17.9409 12.815 0
8453 2 17.9409 11.9606 0.854331
8454 2 18.7953 11.9606 0
8455 2 18.7953 12.815 0.854331
8941 2 17.9409 11.1063 1.70866
8942 2 17.9409 10.252 2.56299
8943 2 18.7953 10.252 1.70866
8971 2 17.9409 12.815 1.70866
8972 2 17.9409 11.9606 2.56299
8973 2 17.0866 12.815 2.56299
8974 2 19.6496 12.815 1.70866
222 4 21.3583 11.1063 0
223 4 21.3583 10.252 0.854331
224 4 22.2126 10.252 0
225 4 22.2126 11.1063 0.854331
255 4 21.3583 12.815 0
256 4 21.3583 11.9606 0.854331
257 4 22.2126 12.815 0.854331
739 4 20.5039 10.252 1.70866
740 4 21.3583 11.1063 1.70866
741 4 23.0669 10.252 2.56299
742 4 22.2126 11.1063 2.56299
770 4 21.3583 11.9606 2.56299
771 4 20.5039 12.815 2.56299
772 4 22.2126 11.9606 1.70866
773 4 23.0669 12.815 1.70866
774 4 22.2126 12.815 2.56299
8428 2 20.5039 11.1063 0.854331
8429 2 23.0669 10.252 0.854331
8456 2 20.5039 11.9606 0
8457 2 21.3583 12.815 0
8458 2 20.5039 12.815 0.854331
8459 2 23.0669 12.815 0
8944 2 21.3583 11.1063 1.70866
8945 2 21.3583 10.252 2.56299
8946 2 20.5039 11.1063 2.56299
8947 2 22.2126 10.252 1.70866
8948 2 23.0669 10.252 2.56299
8975 2 20.5039 12.815 2.56299
8976 2 23.0669 12.815 1.70866
8977 2 23.0669 11.9606 2.56299
226 4 23.9213 10.252 0
227 4 24.7756 11.1063 0
228 4 23.9213 11.1063 0.854331
229 4 26.4843 11.1063 0
258 4 24.7756 12.815 0
259 4 26.4843 11.9606 0.854331
743 4 24.7756 11.1063 1.70866
744 4 24.7756 10.252 2.56299
745 4 26.4843 11.1063 1.70866
746 4 26.4843 10.252 2.56299
775 4 24.7756 11.9606 2.56299
776 4 25.6299 11.9606 1.70866
777 4 26.4843 12.815 1.70866
8430 2 24.7756 11.1063 0
8460 2 24.7756 12.815 0
8461 2 23.9213 12.815 0.854331
8462 2 26.4843 12.815 0
8949 2 23.9213 10.252 1.70866
8950 2 23.9213 11.1063 2.56299
8951 2 26.4843 10.252 2.56299
8978 2 24.7756 11.9606 2.56299
8979 2 23.9213 12.815 2.56299
8980 2 26.4843 12.815 1.70866
260 4 0 13.6693 0
261 4 0.854331 14.5236 0
262 4 0 14.5236 0.854331
263 4 1.70866 13.6693 0
264 4 2.56299 14.5236 0
265 4 2.56299 13.6693 0.854331
266 4 1.70866 14.5236 0.854331
294 4 0.854331 16.2323 0
295 4 1.70866 15.378 0
296 4 2.56299 16.2323 0
778 4 0 13.6693 1.70866
779 4 0.854331 14.5236 1.70866
780 4 0 14.5236 2.56299
781 4 1.70866 13.6693 1.70866