ITEM: TIMESTEP
0
ITEM: NUMBER OF ATOMS
16384
ITEM: BOX BOUNDS pp pp pp
0.0000000000000000e+00 4.9871891317741103e+01
0.0000000000000000e+00 4.9871891317741103e+01
0.0000000000000000e+00 4.9871891317741103e+01
ITEM: ATOMS id type x y z
1 4 0 0 0
2 4 1.57087 1.57087 0
5 4 3.14173 1.57087 1.57087
32 4 1.57087 3.14173 1.57087
8193 2 0 0 0
8194 2 1.57087 1.57087 0
8195 2 1.57087 0 1.57087
8196 2 0 1.57087 1.57087
8226 2 0 3.14173 0
8730 2 1.57087 1.57087 3.14173
8760 2 3.14173 3.14173 3.14173
3 4 4.7126 1.57087 0
4 4 4.7126 0 1.57087
7 4 6.28346 1.57087 1.57087
34 4 4.7126 3.14173 1.57087
36 4 6.28346 3.14173 0
558 4 6.28346 3.14173 3.14173
8197 2 4.7126 0 1.57087
8198 2 6.28346 0 0
8228 2 4.7126 3.14173 1.57087
8229 2 6.28346 3.14173 0
8732 2 4.7126 1.57087 3.14173
8735 2 6.28346 0 3.14173
6 4 7.85433 0 1.57087
10 4 9.4252 1.57087 1.57087
38 4 7.85433 3.14173 1.57087
561 4 9.4252 3.14173 3.14173
8199 2 7.85433 1.57087 0
8 4 10.9961 1.57087 0
9 4 10.9961 0 1.57087
11 4 12.5669 0 0
12 4 12.5669 1.57087 1.57087
41 4 10.9961 3.14173 1.57087
43 4 12.5669 3.14173 0
525 4 10.9961 1.57087 3.14173
528 4 12.5669 0 3.14173
8200 2 10.9961 1.57087 0
8231 2 12.5669 3.14173 0
8740 2 12.5669 0 3.14173
565 4 15.7087 3.14173 3.14173
8201 2 14.1378 0 1.57087
8203 2 15.7087 1.57087 1.57087
8232 2 14.1378 3.14173 1.57087
13 4 18.8504 0 0
46 4 17.2795 3.14173 1.57087
48 4 18.8504 3.14173 0
568 4 18.8504 3.14173 3.14173
8202 2 17.2795 0 1.57087
8204 2 18.8504 0 0
8206 2 18.8504 1.57087 1.57087
8743 2 18.8504 0 3.14173
8770 2 18.8504 3.14173 3.14173
14 4 21.9921 0 0
16 4 21.9921 1.57087 1.57087
50 4 20.4213 3.14173 1.57087
532 4 20.4213 1.57087 3.14173
534 4 21.9921 0 3.14173
8205 2 20.4213 1.57087 0
8207 2 21.9921 0 0
8235 2 20.4213 3.14173 1.57087
8236 2 21.9921 3.14173 0
8744 2 20.4213 1.57087 3.14173
8746 2 21.9921 0 3.14173
8773 2 21.9921 3.14173 3.14173
15 4 23.563 0 1.57087
17 4 25.1339 0 0
53 4 25.1339 3.14173 0
536 4 25.1339 0 3.14173
571 4 25.1339 3.14173 3.14173
8208 2 23.563 0 1.57087
8238 2 25.1339 3.14173 0
8748 2 25.1339 0 3.14173
18 4 26.7047 1.57087 0
19 4 26.7047 0 1.57087
20 4 29.8465 1.57087 0
21 4 29.8465 0 1.57087
55 4 26.7047 3.14173 1.57087
57 4 28.2756 3.14173 0
537 4 26.7047 1.57087 3.14173
575 4 28.2756 3.14173 3.14173
8209 2 26.7047 1.57087 0
8210 2 29.8465 1.57087 0
8211 2 29.8465 0 1.57087
8212 2 28.2756 1.57087 1.57087
8240 2 29.8465 3.14173 1.57087
8750 2 29.8465 1.57087 3.14173
8778 2 28.2756 3.14173 3.14173
22 4 32.9882 1.57087 0
60 4 32.9882 3.14173 1.57087
540 4 31.4173 0 3.14173
8213 2 31.4173 0 0
8214 2 32.9882 0 1.57087
8215 2 31.4173 1.57087 1.57087
8242 2 32.9882 3.14173 1.57087
23 4 34.5591 0 0
24 4 36.1299 1.57087 0
62 4 36.1299 3.14173 1.57087
541 4 34.5591 0 3.14173
542 4 36.1299 1.57087 3.14173
8216 2 36.1299 1.57087 0
8217 2 34.5591 1.57087 1.57087
8243 2 34.5591 3.14173 0
8754 2 36.1299 1.57087 3.14173
25 4 39.2717 1.57087 0
63 4 37.7008 3.14173 0
65 4 39.2717 3.14173 1.57087
543 4 39.2717 1.57087 3.14173
8218 2 37.7008 0 0
8219 2 39.2717 1.57087 0
8220 2 37.7008 1.57087 1.57087
8245 2 37.7008 3.14173 0
8246 2 39.2717 3.14173 1.57087
8783 2 37.7008 3.14173 3.14173
26 4 42.4134 1.57087 0
67 4 42.4134 3.14173 1.57087
546 4 40.8425 0 3.14173
547 4 42.4134 1.57087 3.14173
583 4 40.8425 3.14173 3.14173
8221 2 40.8425 0 0
8222 2 42.4134 0 1.57087
8223 2 40.8425 1.57087 1.57087
8247 2 40.8425 3.14173 0
8249 2 42.4134 3.14173 1.57087
8757 2 40.8425 0 3.14173
27 4 43.9843 0 0
28 4 45.5551 0 1.57087
29 4 43.9843 1.57087 1.57087
68 4 43.9843 3.14173 0
8224 2 45.5551 0 1.57087
8251 2 43.9843 3.14173 0
8787 2 43.9843 3.14173 3.14173
30 4 47.126 0 0
31 4 48.6969 1.57087 0
70 4 47.126 3.14173 0
551 4 47.126 0 3.14173
8225 2 47.126 0 0
8252 2 47.126 3.14173 0
8254 2 48.6969 3.14173 1.57087
8759 2 48.6969 1.57087 3.14173
33 4 0 4.7126 1.57087
35 4 3.14173 4.7126 1.57087
73 4 1.57087 6.28346 1.57087
553 4 1.57087 4.7126 3.14173
587 4 0 6.28346 3.14173
8227 2 1.57087 4.7126 0
8256 2 1.57087 6.28346 1.57087
8258 2 3.14173 6.28346 0
8790 2 0 6.28346 3.14173
8793 2 3.14173 6.28346 3.14173
39 4 6.28346 4.7126 1.57087
74 4 4.7126 6.28346 1.57087
555 4 4.7126 4.7126 3.14173
8260 2 6.28346 6.28346 0
8761 2 4.7126 4.7126 3.14173
37 4 7.85433 4.7126 0
42 4 9.4252 4.7126 1.57087
76 4 9.4252 6.28346 0
8230 2 7.85433 4.7126 0
8261 2 7.85433 6.28346 1.57087
8263 2 9.4252 6.28346 0
8762 2 7.85433 4.7126 3.14173
40 4 10.9961 4.7126 0
45 4 12.5669 4.7126 1.57087
77 4 10.9961 6.28346 1.57087
562 4 10.9961 4.7126 3.14173
592 4 12.5669 6.28346 3.14173
8265 2 12.5669 6.28346 0
44 4 14.1378 4.7126 0
47 4 15.7087 4.7126 1.57087
78 4 14.1378 6.28346 1.57087
563 4 14.1378 4.7126 3.14173
594 4 15.7087 6.28346 3.14173
8267 2 14.1378 6.28346 1.57087
8268 2 15.7087 6.28346 0
8765 2 14.1378 4.7126 3.14173
51 4 18.8504 4.7126 1.57087
80 4 17.2795 6.28346 1.57087
81 4 18.8504 6.28346 0
566 4 17.2795 4.7126 3.14173
596 4 18.8504 6.28346 3.14173
8233 2 17.2795 4.7126 0
8270 2 17.2795 6.28346 1.57087
8768 2 17.2795 4.7126 3.14173
49 4 20.4213 4.7126 0
52 4 21.9921 4.7126 1.57087
82 4 20.4213 6.28346 1.57087
569 4 20.4213 4.7126 3.14173
598 4 21.9921 6.28346 3.14173
8234 2 20.4213 4.7126 0
8237 2 21.9921 4.7126 1.57087
8771 2 20.4213 4.7126 3.14173
8804 2 21.9921 6.28346 3.14173
56 4 25.1339 4.7126 1.57087
8274 2 25.1339 6.28346 0
54 4 26.7047 4.7126 0
58 4 29.8465 4.7126 0
59 4 28.2756 4.7126 1.57087
84 4 26.7047 6.28346 1.57087
572 4 26.7047 4.7126 3.14173
576 4 29.8465 4.7126 3.14173
603 4 28.2756 6.28346 3.14173
8239 2 26.7047 4.7126 0
8241 2 28.2756 4.7126 1.57087
8277 2 28.2756 6.28346 0
8279 2 29.8465 6.28346 1.57087
8776 2 26.7047 4.7126 3.14173
61 4 31.4173 4.7126 1.57087
87 4 32.9882 6.28346 1.57087
8281 2 31.4173 6.28346 0
8283 2 32.9882 6.28346 1.57087
89 4 36.1299 6.28346 1.57087
579 4 36.1299 4.7126 3.14173
604 4 34.5591 6.28346 3.14173
8244 2 36.1299 4.7126 0
8812 2 34.5591 6.28346 3.14173
64 4 39.2717 4.7126 0
582 4 39.2717 4.7126 3.14173
8285 2 37.7008 6.28346 0
8784 2 39.2717 4.7126 3.14173
8816 2 37.7008 6.28346 3.14173
66 4 42.4134 4.7126 0
584 4 42.4134 4.7126 3.14173
8248 2 42.4134 4.7126 0
8250 2 40.8425 4.7126 1.57087
8287 2 42.4134 6.28346 1.57087
69 4 45.5551 4.7126 0
94 4 43.9843 6.28346 0
8289 2 43.9843 6.28346 0
71 4 48.6969 4.7126 0
72 4 47.126 4.7126 1.57087
95 4 47.126 6.28346 0
586 4 48.6969 4.7126 3.14173
609 4 47.126 6.28346 3.14173
8253 2 48.6969 4.7126 0
8255 2 47.126 4.7126 1.57087
8292 2 47.126 6.28346 0
8789 2 48.6969 4.7126 3.14173
75 4 3.14173 7.85433 1.57087
99 4 1.57087 9.4252 1.57087
101 4 3.14173 9.4252 0
588 4 1.57087 7.85433 3.14173
8257 2 0 7.85433 1.57087
8295 2 0 9.4252 0
8296 2 3.14173 9.4252 0
8824 2 0 9.4252 3.14173
8826 2 3.14173 9.4252 3.14173
103 4 4.7126 9.4252 1.57087
104 4 6.28346 9.4252 0
590 4 4.7126 7.85433 3.14173
613 4 6.28346 9.4252 3.14173
8259 2 4.7126 7.85433 0
8262 2 6.28346 7.85433 1.57087
8298 2 4.7126 9.4252 1.57087
8299 2 6.28346 9.4252 0
8794 2 4.7126 7.85433 3.14173
8827 2 6.28346 9.4252 3.14173
105 4 7.85433 9.4252 1.57087
8264 2 9.4252 7.85433 1.57087
8301 2 9.4252 9.4252 0
107 4 10.9961 9.4252 1.57087
8798 2 10.9961 7.85433 3.14173
8831 2 12.5669 9.4252 3.14173
108 4 15.7087 9.4252 0
618 4 15.7087 9.4252 3.14173
8266 2 14.1378 7.85433 0
8305 2 14.1378 9.4252 1.57087
79 4 17.2795 7.85433 0
110 4 17.2795 9.4252 1.57087
111 4 18.8504 9.4252 0
595 4 17.2795 7.85433 3.14173
8269 2 17.2795 7.85433 0
8272 2 18.8504 7.85433 1.57087
8801 2 17.2795 7.85433 3.14173
83 4 21.9921 7.85433 1.57087
112 4 20.4213 9.4252 1.57087
114 4 21.9921 9.4252 0
8271 2 20.4213 7.85433 0
8273 2 21.9921 7.85433 1.57087
8309 2 21.9921 9.4252 0
116 4 23.563 9.4252 1.57087
599 4 23.563 7.85433 3.14173
623 4 25.1339 9.4252 3.14173
8276 2 25.1339 7.85433 1.57087
8310 2 23.563 9.4252 1.57087
8312 2 25.1339 9.4252 0
8835 2 25.1339 9.4252 3.14173
85 4 29.8465 7.85433 0
86 4 28.2756 7.85433 1.57087
119 4 28.2756 9.4252 0
121 4 29.8465 9.4252 1.57087
601 4 26.7047 7.85433 3.14173
626 4 28.2756 9.4252 3.14173
8275 2 26.7047 7.85433 0
8278 2 29.8465 7.85433 0
8280 2 28.2756 7.85433 1.57087
8314 2 28.2756 9.4252 0
8315 2 29.8465 9.4252 1.57087
8805 2 26.7047 7.85433 3.14173
88 4 31.4173 7.85433 1.57087
123 4 31.4173 9.4252 0
124 4 32.9882 9.4252 1.57087
628 4 31.4173 9.4252 3.14173
8282 2 32.9882 7.85433 0
8316 2 31.4173 9.4252 0
8809 2 32.9882 7.85433 3.14173
8839 2 31.4173 9.4252 3.14173
90 4 34.5591 7.85433 1.57087
8284 2 36.1299 7.85433 0
8317 2 34.5591 9.4252 0
8813 2 36.1299 7.85433 3.14173
91 4 39.2717 7.85433 0
92 4 37.7008 7.85433 1.57087
126 4 39.2717 9.4252 1.57087
633 4 37.7008 9.4252 3.14173
8817 2 39.2717 7.85433 3.14173
93 4 40.8425 7.85433 1.57087
128 4 40.8425 9.4252 0
129 4 42.4134 9.4252 1.57087
8286 2 42.4134 7.85433 0
8288 2 40.8425 7.85433 1.57087
8319 2 42.4134 9.4252 1.57087
130 4 43.9843 9.4252 0
8290 2 45.5551 7.85433 0
8291 2 43.9843 7.85433 1.57087
8321 2 43.9843 9.4252 0
8847 2 43.9843 9.4252 3.14173
96 4 48.6969 7.85433 0
97 4 47.126 7.85433 1.57087
610 4 48.6969 7.85433 3.14173
637 4 47.126 9.4252 3.14173
8293 2 48.6969 7.85433 0
8294 2 47.126 7.85433 1.57087
8323 2 47.126 9.4252 0
8822 2 48.6969 7.85433 3.14173
98 4 1.57087 10.9961 0
100 4 0 10.9961 1.57087
8327 2 1.57087 12.5669 1.57087
8329 2 3.14173 12.5669 0
8825 2 1.57087 10.9961 3.14173
8852 2 0 12.5669 3.14173
8856 2 3.14173 12.5669 3.14173
102 4 4.7126 10.9961 0
612 4 4.7126 10.9961 3.14173
8297 2 4.7126 10.9961 0
8331 2 4.7126 12.5669 1.57087
8333 2 6.28346 12.5669 0
134 4 7.85433 12.5669 1.57087
614 4 7.85433 10.9961 3.14173
8300 2 7.85433 10.9961 0
8303 2 9.4252 10.9961 1.57087
8828 2 7.85433 10.9961 3.14173
106 4 10.9961 10.9961 0
616 4 10.9961 10.9961 3.14173
8302 2 10.9961 10.9961 0
8829 2 10.9961 10.9961 3.14173
137 4 15.7087 12.5669 0
8304 2 14.1378 10.9961 0
8338 2 14.1378 12.5669 1.57087
8340 2 15.7087 12.5669 0
8864 2 15.7087 12.5669 3.14173
109 4 17.2795 10.9961 0
113 4 18.8504 10.9961 1.57087
139 4 18.8504 12.5669 0
8306 2 17.2795 10.9961 0
8308 2 18.8504 10.9961 1.57087
8341 2 17.2795 12.5669 1.57087
8866 2 18.8504 12.5669 3.14173
117 4 21.9921 10.9961 1.57087
620 4 20.4213 10.9961 3.14173
8307 2 20.4213 10.9961 0
8311 2 21.9921 10.9961 1.57087
8344 2 20.4213 12.5669 1.57087
8833 2 20.4213 10.9961 3.14173
8868 2 21.9921 12.5669 3.14173
115 4 23.563 10.9961 0
118 4 25.1339 10.9961 1.57087
621 4 23.563 10.9961 3.14173
654 4 25.1339 12.5669 3.14173
8834 2 23.563 10.9961 3.14173
120 4 29.8465 10.9961 0
122 4 28.2756 10.9961 1.57087
143 4 26.7047 12.5669 1.57087
146 4 29.8465 12.5669 1.57087
624 4 26.7047 10.9961 3.14173
657 4 28.2756 12.5669 3.14173
8313 2 26.7047 10.9961 0
8349 2 29.8465 12.5669 1.57087
8836 2 26.7047 10.9961 3.14173
8838 2 29.8465 10.9961 3.14173
148 4 31.4173 12.5669 0
629 4 32.9882 10.9961 3.14173
8840 2 32.9882 10.9961 3.14173
660 4 34.5591 12.5669 3.14173
8318 2 34.5591 10.9961 1.57087
8353 2 34.5591 12.5669 0
8354 2 36.1299 12.5669 1.57087
8843 2 36.1299 10.9961 3.14173
125 4 39.2717 10.9961 0
127 4 37.7008 10.9961 1.57087
152 4 37.7008 12.5669 0
662 4 37.7008 12.5669 3.14173
8356 2 37.7008 12.5669 0
8357 2 39.2717 12.5669 1.57087
155 4 40.8425 12.5669 0
156 4 42.4134 12.5669 1.57087
664 4 40.8425 12.5669 3.14173
8320 2 40.8425 10.9961 1.57087
8359 2 42.4134 12.5669 1.57087
8878 2 40.8425 12.5669 3.14173
158 4 43.9843 12.5669 0
635 4 45.5551 10.9961 3.14173
667 4 43.9843 12.5669 3.14173
8322 2 43.9843 10.9961 1.57087
8848 2 45.5551 10.9961 3.14173
131 4 48.6969 10.9961 0
8324 2 48.6969 10.9961 0
8325 2 47.126 10.9961 1.57087
8362 2 47.126 12.5669 0
8364 2 48.6969 12.5669 1.57087
8851 2 48.6969 10.9961 3.14173
132 4 1.57087 14.1378 0
160 4 0 15.7087 0
162 4 1.57087 15.7087 1.57087
164 4 3.14173 15.7087 0
640 4 1.57087 14.1378 3.14173
672 4 0 15.7087 3.14173
675 4 3.14173 15.7087 3.14173
8326 2 1.57087 14.1378 0
8328 2 0 14.1378 1.57087
8332 2 3.14173 14.1378 1.57087
8366 2 0 15.7087 0
8368 2 1.57087 15.7087 1.57087
8370 2 3.14173 15.7087 0
8853 2 1.57087 14.1378 3.14173
8880 2 0 15.7087 3.14173
8883 2 3.14173 15.7087 3.14173
133 4 4.7126 14.1378 0
165 4 4.7126 15.7087 1.57087
679 4 6.28346 15.7087 3.14173
8330 2 4.7126 14.1378 0
8335 2 6.28346 14.1378 1.57087
8372 2 4.7126 15.7087 1.57087
8374 2 6.28346 15.7087 0
8857 2 4.7126 14.1378 3.14173
8886 2 6.28346 15.7087 3.14173
135 4 9.4252 14.1378 1.57087
167 4 7.85433 15.7087 1.57087
682 4 9.4252 15.7087 3.14173
8334 2 7.85433 14.1378 0
8860 2 7.85433 14.1378 3.14173
136 4 12.5669 14.1378 1.57087
169 4 10.9961 15.7087 1.57087
171 4 12.5669 15.7087 0
685 4 12.5669 15.7087 3.14173
8336 2 10.9961 14.1378 0
8339 2 12.5669 14.1378 1.57087
8377 2 10.9961 15.7087 1.57087
8378 2 12.5669 15.7087 0
8890 2 12.5669 15.7087 3.14173
173 4 14.1378 15.7087 1.57087
175 4 15.7087 15.7087 0
688 4 15.7087 15.7087 3.14173
8337 2 14.1378 14.1378 0
8342 2 15.7087 14.1378 1.57087
8380 2 14.1378 15.7087 1.57087
8863 2 14.1378 14.1378 3.14173
138 4 17.2795 14.1378 0
177 4 18.8504 15.7087 0
8345 2 18.8504 14.1378 1.57087
8383 2 17.2795 15.7087 1.57087
8894 2 18.8504 15.7087 3.14173
140 4 20.4213 14.1378 0
142 4 21.9921 14.1378 1.57087
8343 2 20.4213 14.1378 0
8346 2 21.9921 14.1378 1.57087
8385 2 20.4213 15.7087 1.57087
8386 2 21.9921 15.7087 0
8867 2 20.4213 14.1378 3.14173
8897 2 21.9921 15.7087 3.14173
141 4 23.563 14.1378 0
144 4 25.1339 14.1378 1.57087
652 4 23.563 14.1378 3.14173
8348 2 25.1339 14.1378 1.57087
8869 2 23.563 14.1378 3.14173
145 4 29.8465 14.1378 0
147 4 28.2756 14.1378 1.57087
180 4 28.2756 15.7087 0
655 4 26.7047 14.1378 3.14173
658 4 29.8465 14.1378 3.14173
8347 2 26.7047 14.1378 0
8350 2 28.2756 14.1378 1.57087
8390 2 29.8465 15.7087 1.57087
8870 2 26.7047 14.1378 3.14173
8871 2 29.8465 14.1378 3.14173
149 4 32.9882 14.1378 0
150 4 31.4173 14.1378 1.57087
183 4 31.4173 15.7087 0
659 4 32.9882 14.1378 3.14173
8351 2 32.9882 14.1378 0
8352 2 31.4173 14.1378 1.57087
8391 2 31.4173 15.7087 0
8393 2 32.9882 15.7087 1.57087
8874 2 32.9882 14.1378 3.14173
8902 2 31.4173 15.7087 3.14173
151 4 36.1299 14.1378 0
184 4 34.5591 15.7087 0
661 4 36.1299 14.1378 3.14173
698 4 34.5591 15.7087 3.14173
8355 2 34.5591 14.1378 1.57087
153 4 39.2717 14.1378 0
154 4 37.7008 14.1378 1.57087
186 4 39.2717 15.7087 1.57087
663 4 39.2717 14.1378 3.14173
701 4 37.7008 15.7087 3.14173
8358 2 37.7008 14.1378 1.57087
8395 2 37.7008 15.7087 0
8396 2 39.2717 15.7087 1.57087
8906 2 37.7008 15.7087 3.14173
157 4 40.8425 14.1378 1.57087
188 4 42.4134 15.7087 1.57087
702 4 40.8425 15.7087 3.14173
8360 2 40.8425 14.1378 1.57087
8398 2 40.8425 15.7087 0
8399 2 42.4134 15.7087 1.57087
8909 2 40.8425 15.7087 3.14173
668 4 45.5551 14.1378 3.14173
705 4 43.9843 15.7087 3.14173
8361 2 45.5551 14.1378 0
8401 2 43.9843 15.7087 0
159 4 47.126 14.1378 1.57087
192 4 48.6969 15.7087 1.57087
709 4 47.126 15.7087 3.14173
8363 2 48.6969 14.1378 0
8365 2 47.126 14.1378 1.57087
8916 2 47.126 15.7087 3.14173
161 4 1.57087 17.2795 0
163 4 0 17.2795 1.57087
194 4 1.57087 18.8504 1.57087
196 4 3.14173 18.8504 0
711 4 0 18.8504 3.14173
713 4 3.14173 18.8504 3.14173
8367 2 1.57087 17.2795 0
8369 2 0 17.2795 1.57087
8373 2 3.14173 17.2795 1.57087
8404 2 3.14173 18.8504 0
8918 2 0 18.8504 3.14173
8920 2 3.14173 18.8504 3.14173
168 4 6.28346 17.2795 1.57087
198 4 6.28346 18.8504 0
676 4 4.7126 17.2795 3.14173
8371 2 4.7126 17.2795 0
8406 2 6.28346 18.8504 0
8884 2 4.7126 17.2795 3.14173
8923 2 6.28346 18.8504 3.14173
166 4 7.85433 17.2795 0
170 4 9.4252 17.2795 1.57087
200 4 7.85433 18.8504 1.57087
202 4 9.4252 18.8504 0
680 4 7.85433 17.2795 3.14173
718 4 9.4252 18.8504 3.14173
8375 2 7.85433 17.2795 0
8408 2 9.4252 18.8504 0
8887 2 7.85433 17.2795 3.14173
8926 2 9.4252 18.8504 3.14173
174 4 12.5669 17.2795 1.57087
204 4 10.9961 18.8504 1.57087
683 4 10.9961 17.2795 3.14173
721 4 12.5669 18.8504 3.14173
8376 2 10.9961 17.2795 0
8381 2 12.5669 17.2795 1.57087
8410 2 12.5669 18.8504 0
8888 2 10.9961 17.2795 3.14173
8928 2 12.5669 18.8504 3.14173
172 4 14.1378 17.2795 0
176 4 15.7087 17.2795 1.57087
206 4 14.1378 18.8504 1.57087
686 4 14.1378 17.2795 3.14173
8379 2 14.1378 17.2795 0
8413 2 15.7087 18.8504 0
8891 2 14.1378 17.2795 3.14173
209 4 18.8504 18.8504 0
689 4 17.2795 17.2795 3.14173
8382 2 17.2795 17.2795 0
8414 2 17.2795 18.8504 1.57087
8892 2 17.2795 17.2795 3.14173
178 4 20.4213 17.2795 0
691 4 20.4213 17.2795 3.14173
8384 2 20.4213 17.2795 0
8416 2 20.4213 18.8504 1.57087
8417 2 21.9921 18.8504 0
8895 2 20.4213 17.2795 3.14173
8933 2 21.9921 18.8504 3.14173
179 4 23.563 17.2795 0
212 4 25.1339 18.8504 0
728 4 25.1339 18.8504 3.14173
8387 2 23.563 17.2795 0
8388 2 25.1339 17.2795 1.57087
8418 2 23.563 18.8504 1.57087
8419 2 25.1339 18.8504 0
181 4 29.8465 17.2795 0
182 4 28.2756 17.2795 1.57087
214 4 26.7047 18.8504 1.57087
217 4 29.8465 18.8504 1.57087
731 4 28.2756 18.8504 3.14173
8389 2 29.8465 17.2795 0
8420 2 26.7047 18.8504 1.57087
8421 2 28.2756 18.8504 0
8423 2 29.8465 18.8504 1.57087
8898 2 26.7047 17.2795 3.14173
8899 2 29.8465 17.2795 3.14173
8937 2 28.2756 18.8504 3.14173
218 4 31.4173 18.8504 0
219 4 32.9882 18.8504 1.57087
734 4 31.4173 18.8504 3.14173
8392 2 32.9882 17.2795 0
8424 2 31.4173 18.8504 0
8903 2 32.9882 17.2795 3.14173
185 4 34.5591 17.2795 1.57087
220 4 34.5591 18.8504 0
699 4 36.1299 17.2795 3.14173
8394 2 34.5591 17.2795 1.57087
8943 2 34.5591 18.8504 3.14173
223 4 39.2717 18.8504 1.57087
739 4 37.7008 18.8504 3.14173
8397 2 37.7008 17.2795 1.57087
8907 2 39.2717 17.2795 3.14173
187 4 42.4134 17.2795 0
189 4 40.8425 17.2795 1.57087
224 4 40.8425 18.8504 0
703 4 42.4134 17.2795 3.14173
8400 2 40.8425 17.2795 1.57087
8429 2 42.4134 18.8504 1.57087
8910 2 42.4134 17.2795 3.14173
8947 2 40.8425 18.8504 3.14173
190 4 45.5551 17.2795 0
226 4 43.9843 18.8504 0
706 4 45.5551 17.2795 3.14173
8402 2 45.5551 17.2795 0
8913 2 45.5551 17.2795 3.14173
8949 2 43.9843 18.8504 3.14173
191 4 48.6969 17.2795 0
710 4 48.6969 17.2795 3.14173
8403 2 48.6969 17.2795 0
193 4 1.57087 20.4213 0
195 4 0 20.4213 1.57087
230 4 0 21.9921 0
232 4 1.57087 21.9921 1.57087
712 4 1.57087 20.4213 3.14173
747 4 0 21.9921 3.14173
750 4 3.14173 21.9921 3.14173
8405 2 3.14173 20.4213 1.57087
8431 2 0 21.9921 0
8433 2 1.57087 21.9921 1.57087
8919 2 1.57087 20.4213 3.14173
8952 2 0 21.9921 3.14173
197 4 4.7126 20.4213 0
201 4 6.28346 20.4213 1.57087
235 4 4.7126 21.9921 1.57087
8436 2 4.7126 21.9921 1.57087
8437 2 6.28346 21.9921 0
8921 2 4.7126 20.4213 3.14173
8956 2 6.28346 21.9921 3.14173
199 4 7.85433 20.4213 0
237 4 7.85433 21.9921 1.57087
239 4 9.4252 21.9921 0
715 4 7.85433 20.4213 3.14173
8407 2 7.85433 20.4213 0
8409 2 9.4252 20.4213 1.57087
8439 2 7.85433 21.9921 1.57087
8924 2 7.85433 20.4213 3.14173
203 4 10.9961 20.4213 0
240 4 10.9961 21.9921 1.57087
719 4 10.9961 20.4213 3.14173
755 4 12.5669 21.9921 3.14173
8412 2 12.5669 20.4213 1.57087
8927 2 10.9961 20.4213 3.14173
205 4 14.1378 20.4213 0
208 4 15.7087 20.4213 1.57087
243 4 14.1378 21.9921 1.57087
8411 2 14.1378 20.4213 0
8441 2 14.1378 21.9921 1.57087
8962 2 15.7087 21.9921 3.14173
207 4 17.2795 20.4213 0
245 4 18.8504 21.9921 0
723 4 17.2795 20.4213 3.14173
759 4 18.8504 21.9921 3.14173
8443 2 17.2795 21.9921 1.57087
8930 2 17.2795 20.4213 3.14173
210 4 20.4213 20.4213 0
246 4 20.4213 21.9921 1.57087
8415 2 20.4213 20.4213 0
8445 2 20.4213 21.9921 1.57087
8446 2 21.9921 21.9921 0
8965 2 21.9921 21.9921 3.14173
211 4 23.563 20.4213 0
215 4 25.1339 20.4213 1.57087
248 4 23.563 21.9921 1.57087
727 4 23.563 20.4213 3.14173
8447 2 25.1339 21.9921 0
8934 2 23.563 20.4213 3.14173
8966 2 25.1339 21.9921 3.14173
213 4 26.7047 20.4213 0
216 4 29.8465 20.4213 0
251 4 28.2756 21.9921 0
729 4 26.7047 20.4213 3.14173
765 4 28.2756 21.9921 3.14173
8422 2 29.8465 20.4213 0
8449 2 28.2756 21.9921 0
8450 2 29.8465 21.9921 1.57087
8936 2 26.7047 20.4213 3.14173
8938 2 29.8465 20.4213 3.14173
8968 2 28.2756 21.9921 3.14173
252 4 31.4173 21.9921 0
253 4 32.9882 21.9921 1.57087
735 4 32.9882 20.4213 3.14173
8425 2 32.9882 20.4213 0
8451 2 31.4173 21.9921 0
8453 2 32.9882 21.9921 1.57087
8941 2 32.9882 20.4213 3.14173
221 4 36.1299 20.4213 0
736 4 36.1299 20.4213 3.14173
769 4 34.5591 21.9921 3.14173
8426 2 36.1299 20.4213 0
8427 2 34.5591 20.4213 1.57087
8454 2 34.5591 21.9921 0
222 4 39.2717 20.4213 0
256 4 39.2717 21.9921 1.57087
740 4 39.2717 20.4213 3.14173
8428 2 37.7008 20.4213 1.57087
8456 2 37.7008 21.9921 0
8944 2 39.2717 20.4213 3.14173
225 4 40.8425 20.4213 1.57087
772 4 40.8425 21.9921 3.14173
227 4 45.5551 20.4213 0
228 4 43.9843 20.4213 1.57087
743 4 45.5551 20.4213 3.14173
8430 2 45.5551 20.4213 0
229 4 48.6969 20.4213 0
259 4 48.6969 21.9921 1.57087
745 4 48.6969 20.4213 3.14173
776 4 47.126 21.9921 3.14173
231 4 1.57087 23.563 0
233 4 0 23.563 1.57087
236 4 3.14173 23.563 1.57087
260 4 0 25.1339 0
263 4 3.14173 25.1339 0
748 4 1.57087 23.563 3.14173
778 4 0 25.1339 3.14173
781 4 3.14173 25.1339 3.14173
8432 2 1.57087 23.563 0
8434 2 0 23.563 1.57087
8464 2 1.57087 25.1339 1.57087
8466 2 3.14173 25.1339 0
8953 2 1.57087 23.563 3.14173
8981 2 0 25.1339 3.14173
8984 2 3.14173 25.1339 3.14173
234 4 4.7126 23.563 0
238 4 6.28346 23.563 1.57087
265 4 4.7126 25.1339 1.57087
267 4 6.28346 25.1339 0
8435 2 4.7126 23.563 0
8440 2 6.28346 23.563 1.57087
8467 2 6.28346 25.1339 0
8954 2 4.7126 23.563 3.14173
8986 2 6.28346 25.1339 3.14173
241 4 9.4252 23.563 1.57087
268 4 7.85433 25.1339 1.57087
269 4 9.4252 25.1339 0
752 4 7.85433 23.563 3.14173
8438 2 7.85433 23.563 0
8469 2 7.85433 25.1339 1.57087
8470 2 9.4252 25.1339 0
244 4 12.5669 23.563 1.57087
753 4 10.9961 23.563 3.14173
785 4 12.5669 25.1339 3.14173
8958 2 10.9961 23.563 3.14173
8992 2 12.5669 25.1339 3.14173
242 4 14.1378 23.563 0
756 4 14.1378 23.563 3.14173
788 4 15.7087 25.1339 3.14173
8471 2 14.1378 25.1339 1.57087
274 4 17.2795 25.1339 1.57087
8442 2 17.2795 23.563 0
8474 2 18.8504 25.1339 0
8963 2 17.2795 23.563 3.14173
249 4 21.9921 23.563 1.57087
276 4 20.4213 25.1339 1.57087
278 4 21.9921 25.1339 0
792 4 21.9921 25.1339 3.14173
8444 2 20.4213 23.563 0
8997 2 21.9921 25.1339 3.14173
247 4 23.563 23.563 0
250 4 25.1339 23.563 1.57087
280 4 25.1339 25.1339 0
793 4 25.1339 25.1339 3.14173
8475 2 25.1339 25.1339 0
281 4 26.7047 25.1339 1.57087
282 4 28.2756 25.1339 0
284 4 29.8465 25.1339 1.57087
8448 2 26.7047 23.563 0
8477 2 26.7047 25.1339 1.57087
8478 2 28.2756 25.1339 0
8969 2 29.8465 23.563 3.14173
9000 2 28.2756 25.1339 3.14173
767 4 32.9882 23.563 3.14173
797 4 31.4173 25.1339 3.14173
8452 2 32.9882 23.563 0
8480 2 31.4173 25.1339 0
8482 2 32.9882 25.1339 1.57087
8971 2 32.9882 23.563 3.14173
9003 2 31.4173 25.1339 3.14173
254 4 36.1299 23.563 0
286 4 34.5591 25.1339 0
798 4 34.5591 25.1339 3.14173
8455 2 34.5591 23.563 1.57087
8484 2 36.1299 25.1339 1.57087
8974 2 36.1299 23.563 3.14173
255 4 39.2717 23.563 0
289 4 39.2717 25.1339 1.57087
8457 2 39.2717 23.563 0
8458 2 37.7008 23.563 1.57087
8487 2 39.2717 25.1339 1.57087
9007 2 37.7008 25.1339 3.14173
257 4 40.8425 23.563 1.57087
773 4 42.4134 23.563 3.14173
8459 2 42.4134 23.563 0
8489 2 42.4134 25.1339 1.57087
8976 2 42.4134 23.563 3.14173
258 4 45.5551 23.563 0
291 4 45.5551 25.1339 1.57087
8460 2 45.5551 23.563 0
8461 2 43.9843 23.563 1.57087
8491 2 43.9843 25.1339 0
9011 2 43.9843 25.1339 3.14173
292 4 48.6969 25.1339 1.57087
777 4 48.6969 23.563 3.14173
808 4 47.126 25.1339 3.14173
8462 2 48.6969 23.563 0
8493 2 48.6969 25.1339 1.57087
8980 2 48.6969 23.563 3.14173
261 4 1.57087 26.7047 0
262 4 0 26.7047 1.57087
266 4 3.14173 26.7047 1.57087
294 4 1.57087 29.8465 0
295 4 3.14173 28.2756 0
779 4 1.57087 26.7047 3.14173
811 4 3.14173 28.2756 3.14173
8463 2 1.57087 26.7047 0
8465 2 0 26.7047 1.57087
8495 2 0 28.2756 0
8496 2 1.57087 29.8465 0
9014 2 0 28.2756 3.14173
264 4 4.7126 26.7047 0
296 4 4.7126 29.8465 0
812 4 4.7126 29.8465 3.14173
814 4 6.28346 28.2756 3.14173
8497 2 4.7126 29.8465 0
8498 2 4.7126 28.2756 1.57087
8499 2 6.28346 28.2756 0
8500 2 6.28346 29.8465 1.57087
8985 2 4.7126 26.7047 3.14173
9015 2 4.7126 29.8465 3.14173
271 4 9.4252 26.7047 1.57087
297 4 7.85433 28.2756 1.57087
300 4 9.4252 29.8465 1.57087
817 4 9.4252 28.2756 3.14173
8468 2 7.85433 26.7047 0
8503 2 9.4252 29.8465 1.57087
8987 2 7.85433 26.7047 3.14173
270 4 10.9961 26.7047 0
272 4 12.5669 26.7047 1.57087
298 4 10.9961 29.8465 0
299 4 10.9961 28.2756 1.57087
301 4 12.5669 28.2756 0
8472 2 12.5669 26.7047 1.57087
8501 2 10.9961 29.8465 0
8502 2 10.9961 28.2756 1.57087
8504 2 12.5669 28.2756 0
8507 2 12.5669 29.8465 1.57087
8990 2 10.9961 26.7047 3.14173
9018 2 10.9961 29.8465 3.14173
9019 2 12.5669 28.2756 3.14173
275 4 15.7087 26.7047 1.57087
302 4 14.1378 28.2756 1.57087
304 4 15.7087 29.8465 1.57087
786 4 14.1378 26.7047 3.14173
819 4 15.7087 28.2756 3.14173
8505 2 14.1378 29.8465 0
8506 2 14.1378 28.2756 1.57087
8508 2 15.7087 28.2756 0
9020 2 14.1378 29.8465 3.14173
273 4 17.2795 26.7047 0
277 4 18.8504 26.7047 1.57087
303 4 17.2795 29.8465 0
820 4 17.2795 29.8465 3.14173
823 4 18.8504 28.2756 3.14173
8473 2 17.2795 26.7047 0
8509 2 17.2795 29.8465 0
8510 2 18.8504 28.2756 0
8512 2 18.8504 29.8465 1.57087
8994 2 17.2795 26.7047 3.14173
279 4 21.9921 26.7047 1.57087
305 4 20.4213 29.8465 0
306 4 20.4213 28.2756 1.57087
789 4 20.4213 26.7047 3.14173
825 4 21.9921 28.2756 3.14173
8511 2 20.4213 29.8465 0
8513 2 21.9921 28.2756 0
9023 2 21.9921 28.2756 3.14173
307 4 23.563 29.8465 0
308 4 25.1339 28.2756 0
826 4 23.563 29.8465 3.14173
8516 2 25.1339 29.8465 1.57087
8998 2 23.563 26.7047 3.14173
9024 2 23.563 29.8465 3.14173
9027 2 25.1339 28.2756 3.14173
283 4 29.8465 26.7047 0
309 4 26.7047 29.8465 0
828 4 28.2756 28.2756 3.14173
8476 2 26.7047 26.7047 0
8479 2 29.8465 26.7047 0
8514 2 26.7047 29.8465 0
8515 2 26.7047 28.2756 1.57087
8517 2 29.8465 29.8465 0
8518 2 28.2756 29.8465 1.57087
9028 2 26.7047 29.8465 3.14173
285 4 31.4173 26.7047 1.57087
310 4 32.9882 29.8465 0
311 4 32.9882 28.2756 1.57087
312 4 31.4173 29.8465 1.57087
830 4 31.4173 28.2756 3.14173
8481 2 32.9882 26.7047 0
8483 2 31.4173 26.7047 1.57087
8519 2 31.4173 28.2756 0
8520 2 32.9882 28.2756 1.57087
8521 2 31.4173 29.8465 1.57087
9030 2 31.4173 28.2756 3.14173
9031 2 32.9882 29.8465 3.14173
287 4 36.1299 26.7047 0
313 4 36.1299 29.8465 0
799 4 36.1299 26.7047 3.14173
832 4 34.5591 28.2756 3.14173
833 4 36.1299 29.8465 3.14173
8485 2 34.5591 26.7047 1.57087
8522 2 36.1299 29.8465 0
9005 2 36.1299 26.7047 3.14173
288 4 39.2717 26.7047 0
290 4 37.7008 26.7047 1.57087
314 4 37.7008 28.2756 0
315 4 39.2717 29.8465 0
801 4 39.2717 26.7047 3.14173
834 4 39.2717 29.8465 3.14173
8486 2 39.2717 26.7047 0
8523 2 37.7008 28.2756 0
9008 2 39.2717 26.7047 3.14173
9035 2 37.7008 28.2756 3.14173
316 4 40.8425 28.2756 0
317 4 42.4134 29.8465 0
318 4 42.4134 28.2756 1.57087
319 4 40.8425 29.8465 1.57087
803 4 42.4134 26.7047 3.14173
837 4 40.8425 28.2756 3.14173
838 4 42.4134 29.8465 3.14173
8488 2 42.4134 26.7047 0
8490 2 40.8425 26.7047 1.57087
8524 2 42.4134 29.8465 0
9009 2 42.4134 26.7047 3.14173
9038 2 40.8425 28.2756 3.14173
320 4 43.9843 28.2756 0
806 4 45.5551 26.7047 3.14173
8492 2 45.5551 26.7047 0
8525 2 43.9843 28.2756 0
8526 2 45.5551 28.2756 1.57087
9040 2 45.5551 29.8465 3.14173
293 4 47.126 26.7047 1.57087
321 4 48.6969 29.8465 0
809 4 48.6969 26.7047 3.14173
841 4 48.6969 29.8465 3.14173
8494 2 47.126 26.7047 1.57087
8527 2 48.6969 29.8465 0
9042 2 47.126 28.2756 3.14173
9043 2 48.6969 29.8465 3.14173
322 4 1.57087 32.9882 0
323 4 1.57087 31.4173 1.57087
324 4 3.14173 31.4173 0
843 4 0 31.4173 3.14173
844 4 1.57087 32.9882 3.14173
846 4 3.14173 31.4173 3.14173
8528 2 0 31.4173 0
8529 2 0 32.9882 1.57087
8531 2 3.14173 32.9882 1.57087
9045 2 1.57087 32.9882 3.14173
325 4 4.7126 31.4173 1.57087
327 4 6.28346 32.9882 1.57087
8530 2 4.7126 32.9882 0
8532 2 6.28346 31.4173 0
9046 2 4.7126 32.9882 3.14173
9049 2 6.28346 31.4173 3.14173
326 4 7.85433 31.4173 1.57087
849 4 7.85433 32.9882 3.14173
8533 2 7.85433 32.9882 0
9050 2 7.85433 32.9882 3.14173
9053 2 9.4252 31.4173 3.14173
328 4 10.9961 31.4173 1.57087
329 4 12.5669 31.4173 0
331 4 12.5669 32.9882 1.57087
851 4 10.9961 32.9882 3.14173
852 4 12.5669 31.4173 3.14173
8534 2 10.9961 32.9882 0
9055 2 12.5669 31.4173 3.14173
330 4 14.1378 32.9882 0
332 4 15.7087 31.4173 0
853 4 14.1378 32.9882 3.14173
856 4 15.7087 31.4173 3.14173
8535 2 14.1378 32.9882 0
8536 2 14.1378 31.4173 1.57087
8537 2 15.7087 31.4173 0
8539 2 15.7087 32.9882 1.57087
9056 2 14.1378 32.9882 3.14173
333 4 17.2795 32.9882 0
334 4 18.8504 31.4173 0
336 4 18.8504 32.9882 1.57087
857 4 17.2795 32.9882 3.14173
8538 2 17.2795 31.4173 1.57087
8540 2 18.8504 31.4173 0
8543 2 18.8504 32.9882 1.57087
9057 2 17.2795 32.9882 3.14173
335 4 20.4213 32.9882 0
860 4 21.9921 31.4173 3.14173
8541 2 20.4213 32.9882 0
8542 2 20.4213 31.4173 1.57087
9060 2 20.4213 32.9882 3.14173
9063 2 21.9921 31.4173 3.14173
337 4 23.563 32.9882 0
338 4 23.563 31.4173 1.57087
339 4 25.1339 31.4173 0
342 4 25.1339 32.9882 1.57087
861 4 23.563 32.9882 3.14173
8544 2 23.563 32.9882 0
8545 2 23.563 31.4173 1.57087
8546 2 25.1339 31.4173 0
8549 2 25.1339 32.9882 1.57087
340 4 26.7047 32.9882 0
341 4 26.7047 31.4173 1.57087
343 4 28.2756 31.4173 0
344 4 29.8465 32.9882 0
345 4 29.8465 31.4173 1.57087
865 4 29.8465 32.9882 3.14173
8547 2 26.7047 32.9882 0
8548 2 26.7047 31.4173 1.57087
8550 2 29.8465 31.4173 1.57087
8551 2 28.2756 32.9882 1.57087
9066 2 29.8465 32.9882 3.14173
346 4 31.4173 31.4173 0
866 4 31.4173 31.4173 3.14173
867 4 32.9882 32.9882 3.14173
8552 2 32.9882 31.4173 1.57087
8553 2 31.4173 32.9882 1.57087
347 4 34.5591 31.4173 0
870 4 34.5591 31.4173 3.14173
871 4 36.1299 32.9882 3.14173
9069 2 34.5591 31.4173 3.14173
9070 2 36.1299 32.9882 3.14173
348 4 37.7008 31.4173 0
349 4 39.2717 31.4173 1.57087
350 4 37.7008 32.9882 1.57087
8554 2 39.2717 32.9882 0
8555 2 37.7008 32.9882 1.57087
9073 2 39.2717 32.9882 3.14173
351 4 42.4134 32.9882 0
8556 2 40.8425 31.4173 0
8557 2 42.4134 31.4173 1.57087
9076 2 40.8425 31.4173 3.14173
9077 2 42.4134 32.9882 3.14173
352 4 43.9843 31.4173 0
353 4 45.5551 32.9882 0
354 4 45.5551 31.4173 1.57087
8558 2 45.5551 32.9882 0
9079 2 45.5551 32.9882 3.14173