ITEM: TIMESTEP
0
ITEM: NUMBER OF ATOMS
16384
ITEM: BOX BOUNDS pp pp pp
0.0000000000000000e+00 5.5471542272715503e+01
0.0000000000000000e+00 5.5471542272715503e+01
0.0000000000000000e+00 5.5471542272715503e+01
ITEM: ATOMS id type x y z
1 4 0 0 0
2 4 1.74724 1.74724 0
8193 2 0 0 0
8194 2 1.74724 1.74724 0
8195 2 1.74724 0 1.74724
8196 2 0 1.74724 1.74724
3 4 5.24173 1.74724 0
4 4 5.24173 0 1.74724
5 4 3.49449 1.74724 1.74724
8197 2 5.24173 0 1.74724
6 4 8.73622 0 1.74724
7 4 6.98898 1.74724 1.74724
8198 2 6.98898 0 0
8199 2 8.73622 1.74724 0
8 4 12.2307 1.74724 0
9 4 12.2307 0 1.74724
10 4 10.4835 1.74724 1.74724
8200 2 12.2307 1.74724 0
11 4 13.978 0 0
12 4 13.978 1.74724 1.74724
8201 2 15.7252 0 1.74724
8202 2 19.2197 0 1.74724
8203 2 17.4724 1.74724 1.74724
13 4 20.9669 0 0
8204 2 20.9669 0 0
8205 2 22.7142 1.74724 0
8206 2 20.9669 1.74724 1.74724
14 4 24.4614 0 0
16 4 24.4614 1.74724 1.74724
8207 2 24.4614 0 0
15 4 26.2087 0 1.74724
17 4 27.9559 0 0
8208 2 26.2087 0 1.74724
18 4 29.7031 1.74724 0
19 4 29.7031 0 1.74724
8209 2 29.7031 1.74724 0
8212 2 31.4504 1.74724 1.74724
20 4 33.1976 1.74724 0
21 4 33.1976 0 1.74724
8210 2 33.1976 1.74724 0
8211 2 33.1976 0 1.74724
8213 2 34.9449 0 0
8215 2 34.9449 1.74724 1.74724
22 4 36.6921 1.74724 0
23 4 38.4394 0 0
8214 2 36.6921 0 1.74724
8217 2 38.4394 1.74724 1.74724
24 4 40.1866 1.74724 0
8216 2 40.1866 1.74724 0
8218 2 41.9339 0 0
8220 2 41.9339 1.74724 1.74724
25 4 43.6811 1.74724 0
8219 2 43.6811 1.74724 0
8221 2 45.4283 0 0
8223 2 45.4283 1.74724 1.74724
26 4 47.1756 1.74724 0
27 4 48.9228 0 0
29 4 48.9228 1.74724 1.74724
8222 2 47.1756 0 1.74724
28 4 50.6701 0 1.74724
8224 2 50.6701 0 1.74724
30 4 52.4173 0 0
31 4 54.1646 1.74724 0
8225 2 52.4173 0 0
32 4 1.74724 3.49449 1.74724
33 4 0 5.24173 1.74724
8226 2 0 3.49449 0
8227 2 1.74724 5.24173 0
34 4 5.24173 3.49449 1.74724
35 4 3.49449 5.24173 1.74724
8228 2 5.24173 3.49449 1.74724
36 4 6.98898 3.49449 0
37 4 8.73622 5.24173 0
38 4 8.73622 3.49449 1.74724
39 4 6.98898 5.24173 1.74724
8229 2 6.98898 3.49449 0
8230 2 8.73622 5.24173 0
40 4 12.2307 5.24173 0
41 4 12.2307 3.49449 1.74724
42 4 10.4835 5.24173 1.74724
43 4 13.978 3.49449 0
44 4 15.7252 5.24173 0
45 4 13.978 5.24173 1.74724
8231 2 13.978 3.49449 0
8232 2 15.7252 3.49449 1.74724
46 4 19.2197 3.49449 1.74724
47 4 17.4724 5.24173 1.74724
8233 2 19.2197 5.24173 0
48 4 20.9669 3.49449 0
49 4 22.7142 5.24173 0
50 4 22.7142 3.49449 1.74724
51 4 20.9669 5.24173 1.74724
8234 2 22.7142 5.24173 0
8235 2 22.7142 3.49449 1.74724
52 4 24.4614 5.24173 1.74724
8236 2 24.4614 3.49449 0
8237 2 24.4614 5.24173 1.74724
53 4 27.9559 3.49449 0
56 4 27.9559 5.24173 1.74724
8238 2 27.9559 3.49449 0
54 4 29.7031 5.24173 0
55 4 29.7031 3.49449 1.74724
57 4 31.4504 3.49449 0
59 4 31.4504 5.24173 1.74724
8239 2 29.7031 5.24173 0
8241 2 31.4504 5.24173 1.74724
58 4 33.1976 5.24173 0
61 4 34.9449 5.24173 1.74724
8240 2 33.1976 3.49449 1.74724
60 4 36.6921 3.49449 1.74724
8242 2 36.6921 3.49449 1.74724
8243 2 38.4394 3.49449 0
62 4 40.1866 3.49449 1.74724
63 4 41.9339 3.49449 0
8244 2 40.1866 5.24173 0
8245 2 41.9339 3.49449 0
64 4 43.6811 5.24173 0
65 4 43.6811 3.49449 1.74724
8246 2 43.6811 3.49449 1.74724
8247 2 45.4283 3.49449 0
8250 2 45.4283 5.24173 1.74724
66 4 47.1756 5.24173 0
67 4 47.1756 3.49449 1.74724
68 4 48.9228 3.49449 0
8248 2 47.1756 5.24173 0
8249 2 47.1756 3.49449 1.74724
8251 2 48.9228 3.49449 0
69 4 50.6701 5.24173 0
70 4 52.4173 3.49449 0
71 4 54.1646 5.24173 0
72 4 52.4173 5.24173 1.74724
8252 2 52.4173 3.49449 0
8253 2 54.1646 5.24173 0
8254 2 54.1646 3.49449 1.74724
8255 2 52.4173 5.24173 1.74724
73 4 1.74724 6.98898 1.74724
8256 2 1.74724 6.98898 1.74724
8257 2 0 8.73622 1.74724
74 4 5.24173 6.98898 1.74724
75 4 3.49449 8.73622 1.74724
8258 2 3.49449 6.98898 0
8259 2 5.24173 8.73622 0
8260 2 6.98898 6.98898 0
8261 2 8.73622 6.98898 1.74724
8262 2 6.98898 8.73622 1.74724
76 4 10.4835 6.98898 0
77 4 12.2307 6.98898 1.74724
8263 2 10.4835 6.98898 0
8264 2 10.4835 8.73622 1.74724
78 4 15.7252 6.98898 1.74724
8265 2 13.978 6.98898 0
8266 2 15.7252 8.73622 0
8267 2 15.7252 6.98898 1.74724
79 4 19.2197 8.73622 0
80 4 19.2197 6.98898 1.74724
8268 2 17.4724 6.98898 0
8269 2 19.2197 8.73622 0
8270 2 19.2197 6.98898 1.74724
81 4 20.9669 6.98898 0
82 4 22.7142 6.98898 1.74724
8271 2 22.7142 8.73622 0
8272 2 20.9669 8.73622 1.74724
83 4 24.4614 8.73622 1.74724
8273 2 24.4614 8.73622 1.74724
8274 2 27.9559 6.98898 0
8276 2 27.9559 8.73622 1.74724
84 4 29.7031 6.98898 1.74724
86 4 31.4504 8.73622 1.74724
8275 2 29.7031 8.73622 0
8277 2 31.4504 6.98898 0
8280 2 31.4504 8.73622 1.74724
85 4 33.1976 8.73622 0
88 4 34.9449 8.73622 1.74724
8278 2 33.1976 8.73622 0
8279 2 33.1976 6.98898 1.74724
8281 2 34.9449 6.98898 0
87 4 36.6921 6.98898 1.74724
90 4 38.4394 8.73622 1.74724
8282 2 36.6921 8.73622 0
8283 2 36.6921 6.98898 1.74724
89 4 40.1866 6.98898 1.74724
92 4 41.9339 8.73622 1.74724
8284 2 40.1866 8.73622 0
8285 2 41.9339 6.98898 0
91 4 43.6811 8.73622 0
93 4 45.4283 8.73622 1.74724
8288 2 45.4283 8.73622 1.74724
94 4 48.9228 6.98898 0
8286 2 47.1756 8.73622 0
8287 2 47.1756 6.98898 1.74724
8289 2 48.9228 6.98898 0
8291 2 48.9228 8.73622 1.74724
8290 2 50.6701 8.73622 0
95 4 52.4173 6.98898 0
96 4 54.1646 8.73622 0
97 4 52.4173 8.73622 1.74724
8292 2 52.4173 6.98898 0
8293 2 54.1646 8.73622 0
8294 2 52.4173 8.73622 1.74724
98 4 1.74724 12.2307 0
99 4 1.74724 10.4835 1.74724
100 4 0 12.2307 1.74724
8295 2 0 10.4835 0
101 4 3.49449 10.4835 0
102 4 5.24173 12.2307 0
103 4 5.24173 10.4835 1.74724
8296 2 3.49449 10.4835 0
8297 2 5.24173 12.2307 0
8298 2 5.24173 10.4835 1.74724
104 4 6.98898 10.4835 0
105 4 8.73622 10.4835 1.74724
8299 2 6.98898 10.4835 0
8300 2 8.73622 12.2307 0
106 4 12.2307 12.2307 0
107 4 12.2307 10.4835 1.74724
8301 2 10.4835 10.4835 0
8302 2 12.2307 12.2307 0
8303 2 10.4835 12.2307 1.74724
8304 2 15.7252 12.2307 0
8305 2 15.7252 10.4835 1.74724
108 4 17.4724 10.4835 0
109 4 19.2197 12.2307 0
110 4 19.2197 10.4835 1.74724
8306 2 19.2197 12.2307 0
111 4 20.9669 10.4835 0
112 4 22.7142 10.4835 1.74724
113 4 20.9669 12.2307 1.74724
8307 2 22.7142 12.2307 0
8308 2 20.9669 12.2307 1.74724
114 4 24.4614 10.4835 0
117 4 24.4614 12.2307 1.74724
8309 2 24.4614 10.4835 0
8311 2 24.4614 12.2307 1.74724
115 4 26.2087 12.2307 0
116 4 26.2087 10.4835 1.74724
118 4 27.9559 12.2307 1.74724
8310 2 26.2087 10.4835 1.74724
8312 2 27.9559 10.4835 0
119 4 31.4504 10.4835 0
122 4 31.4504 12.2307 1.74724
8313 2 29.7031 12.2307 0
8314 2 31.4504 10.4835 0
120 4 33.1976 12.2307 0
121 4 33.1976 10.4835 1.74724
123 4 34.9449 10.4835 0
8315 2 33.1976 10.4835 1.74724
8316 2 34.9449 10.4835 0
124 4 36.6921 10.4835 1.74724
8317 2 38.4394 10.4835 0
8318 2 38.4394 12.2307 1.74724
127 4 41.9339 12.2307 1.74724
125 4 43.6811 12.2307 0
126 4 43.6811 10.4835 1.74724
128 4 45.4283 10.4835 0
8320 2 45.4283 12.2307 1.74724
129 4 47.1756 10.4835 1.74724
130 4 48.9228 10.4835 0
8319 2 47.1756 10.4835 1.74724
8321 2 48.9228 10.4835 0
8322 2 48.9228 12.2307 1.74724
131 4 54.1646 12.2307 0
8323 2 52.4173 10.4835 0
8324 2 54.1646 12.2307 0
8325 2 52.4173 12.2307 1.74724
132 4 1.74724 15.7252 0
8326 2 1.74724 15.7252 0
8327 2 1.74724 13.978 1.74724
8328 2 0 15.7252 1.74724
133 4 5.24173 15.7252 0
8329 2 3.49449 13.978 0
8330 2 5.24173 15.7252 0
8331 2 5.24173 13.978 1.74724
8332 2 3.49449 15.7252 1.74724
134 4 8.73622 13.978 1.74724
8333 2 6.98898 13.978 0
8334 2 8.73622 15.7252 0
8335 2 6.98898 15.7252 1.74724
135 4 10.4835 15.7252 1.74724
8336 2 12.2307 15.7252 0
136 4 13.978 15.7252 1.74724
8337 2 15.7252 15.7252 0
8338 2 15.7252 13.978 1.74724
8339 2 13.978 15.7252 1.74724
137 4 17.4724 13.978 0
138 4 19.2197 15.7252 0
8340 2 17.4724 13.978 0
8341 2 19.2197 13.978 1.74724
8342 2 17.4724 15.7252 1.74724
139 4 20.9669 13.978 0
140 4 22.7142 15.7252 0
8343 2 22.7142 15.7252 0
8344 2 22.7142 13.978 1.74724
8345 2 20.9669 15.7252 1.74724
142 4 24.4614 15.7252 1.74724
8346 2 24.4614 15.7252 1.74724
141 4 26.2087 15.7252 0
144 4 27.9559 15.7252 1.74724
8348 2 27.9559 15.7252 1.74724
143 4 29.7031 13.978 1.74724
147 4 31.4504 15.7252 1.74724
8347 2 29.7031 15.7252 0
8350 2 31.4504 15.7252 1.74724
145 4 33.1976 15.7252 0
146 4 33.1976 13.978 1.74724
148 4 34.9449 13.978 0
150 4 34.9449 15.7252 1.74724
8349 2 33.1976 13.978 1.74724
8352 2 34.9449 15.7252 1.74724
149 4 36.6921 15.7252 0
8351 2 36.6921 15.7252 0
8353 2 38.4394 13.978 0
8355 2 38.4394 15.7252 1.74724
151 4 40.1866 15.7252 0
152 4 41.9339 13.978 0
154 4 41.9339 15.7252 1.74724
8354 2 40.1866 13.978 1.74724
8356 2 41.9339 13.978 0
8358 2 41.9339 15.7252 1.74724
153 4 43.6811 15.7252 0
155 4 45.4283 13.978 0
157 4 45.4283 15.7252 1.74724
8357 2 43.6811 13.978 1.74724
8360 2 45.4283 15.7252 1.74724
156 4 47.1756 13.978 1.74724
158 4 48.9228 13.978 0
8359 2 47.1756 13.978 1.74724
8361 2 50.6701 15.7252 0
159 4 52.4173 15.7252 1.74724
8362 2 52.4173 13.978 0
8363 2 54.1646 15.7252 0
8364 2 54.1646 13.978 1.74724
8365 2 52.4173 15.7252 1.74724
160 4 0 17.4724 0
161 4 1.74724 19.2197 0
162 4 1.74724 17.4724 1.74724
163 4 0 19.2197 1.74724
8366 2 0 17.4724 0
8367 2 1.74724 19.2197 0
8368 2 1.74724 17.4724 1.74724
8369 2 0 19.2197 1.74724
164 4 3.49449 17.4724 0
165 4 5.24173 17.4724 1.74724
8370 2 3.49449 17.4724 0
8371 2 5.24173 19.2197 0
8372 2 5.24173 17.4724 1.74724
8373 2 3.49449 19.2197 1.74724
166 4 8.73622 19.2197 0
167 4 8.73622 17.4724 1.74724
168 4 6.98898 19.2197 1.74724
8374 2 6.98898 17.4724 0
8375 2 8.73622 19.2197 0
169 4 12.2307 17.4724 1.74724
170 4 10.4835 19.2197 1.74724
8376 2 12.2307 19.2197 0
8377 2 12.2307 17.4724 1.74724
171 4 13.978 17.4724 0
172 4 15.7252 19.2197 0
173 4 15.7252 17.4724 1.74724
174 4 13.978 19.2197 1.74724
8378 2 13.978 17.4724 0
8379 2 15.7252 19.2197 0
8380 2 15.7252 17.4724 1.74724
8381 2 13.978 19.2197 1.74724
175 4 17.4724 17.4724 0
176 4 17.4724 19.2197 1.74724
8382 2 19.2197 19.2197 0
8383 2 19.2197 17.4724 1.74724
177 4 20.9669 17.4724 0
178 4 22.7142 19.2197 0
8384 2 22.7142 19.2197 0
8385 2 22.7142 17.4724 1.74724
8386 2 24.4614 17.4724 0
179 4 26.2087 19.2197 0
8387 2 26.2087 19.2197 0
8388 2 27.9559 19.2197 1.74724
180 4 31.4504 17.4724 0
182 4 31.4504 19.2197 1.74724
181 4 33.1976 19.2197 0
183 4 34.9449 17.4724 0
8389 2 33.1976 19.2197 0
8390 2 33.1976 17.4724 1.74724
8391 2 34.9449 17.4724 0
184 4 38.4394 17.4724 0
185 4 38.4394 19.2197 1.74724
8392 2 36.6921 19.2197 0
8393 2 36.6921 17.4724 1.74724
8394 2 38.4394 19.2197 1.74724
8395 2 41.9339 17.4724 0
8397 2 41.9339 19.2197 1.74724
186 4 43.6811 17.4724 1.74724
189 4 45.4283 19.2197 1.74724
8396 2 43.6811 17.4724 1.74724
8398 2 45.4283 17.4724 0
8400 2 45.4283 19.2197 1.74724
187 4 47.1756 19.2197 0
188 4 47.1756 17.4724 1.74724
8399 2 47.1756 17.4724 1.74724
8401 2 48.9228 17.4724 0
190 4 50.6701 19.2197 0
8402 2 50.6701 19.2197 0
191 4 54.1646 19.2197 0
192 4 54.1646 17.4724 1.74724
8403 2 54.1646 19.2197 0
193 4 1.74724 22.7142 0
194 4 1.74724 20.9669 1.74724
195 4 0 22.7142 1.74724
196 4 3.49449 20.9669 0
197 4 5.24173 22.7142 0
8404 2 3.49449 20.9669 0
8405 2 3.49449 22.7142 1.74724
198 4 6.98898 20.9669 0
199 4 8.73622 22.7142 0
200 4 8.73622 20.9669 1.74724
201 4 6.98898 22.7142 1.74724
8406 2 6.98898 20.9669 0
8407 2 8.73622 22.7142 0
202 4 10.4835 20.9669 0
203 4 12.2307 22.7142 0
204 4 12.2307 20.9669 1.74724
8408 2 10.4835 20.9669 0
8409 2 10.4835 22.7142 1.74724
205 4 15.7252 22.7142 0
206 4 15.7252 20.9669 1.74724
8410 2 13.978 20.9669 0
8411 2 15.7252 22.7142 0
8412 2 13.978 22.7142 1.74724
207 4 19.2197 22.7142 0
208 4 17.4724 22.7142 1.74724
8413 2 17.4724 20.9669 0
8414 2 19.2197 20.9669 1.74724
209 4 20.9669 20.9669 0
210 4 22.7142 22.7142 0
8415 2 22.7142 22.7142 0
8416 2 22.7142 20.9669 1.74724
8417 2 24.4614 20.9669 0
211 4 26.2087 22.7142 0
212 4 27.9559 20.9669 0
215 4 27.9559 22.7142 1.74724
8418 2 26.2087 20.9669 1.74724
8419 2 27.9559 20.9669 0
213 4 29.7031 22.7142 0
214 4 29.7031 20.9669 1.74724
8420 2 29.7031 20.9669 1.74724
8421 2 31.4504 20.9669 0
216 4 33.1976 22.7142 0
217 4 33.1976 20.9669 1.74724
218 4 34.9449 20.9669 0
8422 2 33.1976 22.7142 0
8423 2 33.1976 20.9669 1.74724
8424 2 34.9449 20.9669 0
219 4 36.6921 20.9669 1.74724
220 4 38.4394 20.9669 0
8425 2 36.6921 22.7142 0
8427 2 38.4394 22.7142 1.74724
221 4 40.1866 22.7142 0
8426 2 40.1866 22.7142 0
8428 2 41.9339 22.7142 1.74724
222 4 43.6811 22.7142 0
223 4 43.6811 20.9669 1.74724
224 4 45.4283 20.9669 0
225 4 45.4283 22.7142 1.74724
226 4 48.9228 20.9669 0
228 4 48.9228 22.7142 1.74724
8429 2 47.1756 20.9669 1.74724
227 4 50.6701 22.7142 0
8430 2 50.6701 22.7142 0
229 4 54.1646 22.7142 0
230 4 0 24.4614 0
232 4 1.74724 24.4614 1.74724
8431 2 0 24.4614 0
8433 2 1.74724 24.4614 1.74724
235 4 5.24173 24.4614 1.74724
8436 2 5.24173 24.4614 1.74724
237 4 8.73622 24.4614 1.74724
8437 2 6.98898 24.4614 0
8439 2 8.73622 24.4614 1.74724
239 4 10.4835 24.4614 0
240 4 12.2307 24.4614 1.74724
243 4 15.7252 24.4614 1.74724
8441 2 15.7252 24.4614 1.74724
8443 2 19.2197 24.4614 1.74724
245 4 20.9669 24.4614 0
246 4 22.7142 24.4614 1.74724
8445 2 22.7142 24.4614 1.74724
8446 2 24.4614 24.4614 0
248 4 26.2087 24.4614 1.74724
8447 2 27.9559 24.4614 0
251 4 31.4504 24.4614 0
8449 2 31.4504 24.4614 0
252 4 34.9449 24.4614 0
8450 2 33.1976 24.4614 1.74724
8451 2 34.9449 24.4614 0
253 4 36.6921 24.4614 1.74724
8453 2 36.6921 24.4614 1.74724
8454 2 38.4394 24.4614 0
8456 2 41.9339 24.4614 0
256 4 43.6811 24.4614 1.74724
259 4 54.1646 24.4614 1.74724
231 4 1.74724 26.2087 0
233 4 0 26.2087 1.74724
260 4 0 27.9559 0
8432 2 1.74724 26.2087 0
8434 2 0 26.2087 1.74724
8464 2 1.74724 27.9559 1.74724
234 4 5.24173 26.2087 0
236 4 3.49449 26.2087 1.74724
263 4 3.49449 27.9559 0
265 4 5.24173 27.9559 1.74724
8435 2 5.24173 26.2087 0
8466 2 3.49449 27.9559 0
238 4 6.98898 26.2087 1.74724
267 4 6.98898 27.9559 0
268 4 8.73622 27.9559 1.74724
8438 2 8.73622 26.2087 0
8440 2 6.98898 26.2087 1.74724
8467 2 6.98898 27.9559 0
8469 2 8.73622 27.9559 1.74724
241 4 10.4835 26.2087 1.74724
269 4 10.4835 27.9559 0
8470 2 10.4835 27.9559 0
242 4 15.7252 26.2087 0
244 4 13.978 26.2087 1.74724
8471 2 15.7252 27.9559 1.74724
274 4 19.2197 27.9559 1.74724
8442 2 19.2197 26.2087 0
276 4 22.7142 27.9559 1.74724
8444 2 22.7142 26.2087 0
8474 2 20.9669 27.9559 0
249 4 24.4614 26.2087 1.74724
278 4 24.4614 27.9559 0
247 4 26.2087 26.2087 0
250 4 27.9559 26.2087 1.74724
280 4 27.9559 27.9559 0
8475 2 27.9559 27.9559 0
281 4 29.7031 27.9559 1.74724
282 4 31.4504 27.9559 0
8448 2 29.7031 26.2087 0
8477 2 29.7031 27.9559 1.74724
8478 2 31.4504 27.9559 0
284 4 33.1976 27.9559 1.74724
8480 2 34.9449 27.9559 0
286 4 38.4394 27.9559 0
8452 2 36.6921 26.2087 0
8455 2 38.4394 26.2087 1.74724
8482 2 36.6921 27.9559 1.74724
254 4 40.1866 26.2087 0
8458 2 41.9339 26.2087 1.74724
8484 2 40.1866 27.9559 1.74724
255 4 43.6811 26.2087 0
257 4 45.4283 26.2087 1.74724
289 4 43.6811 27.9559 1.74724
8457 2 43.6811 26.2087 0
8487 2 43.6811 27.9559 1.74724
8459 2 47.1756 26.2087 0
8461 2 48.9228 26.2087 1.74724
8489 2 47.1756 27.9559 1.74724
8491 2 48.9228 27.9559 0
258 4 50.6701 26.2087 0
291 4 50.6701 27.9559 1.74724
8460 2 50.6701 26.2087 0
292 4 54.1646 27.9559 1.74724
8462 2 54.1646 26.2087 0
8493 2 54.1646 27.9559 1.74724
261 4 1.74724 29.7031 0
262 4 0 29.7031 1.74724
8463 2 1.74724 29.7031 0
8465 2 0 29.7031 1.74724
8495 2 0 31.4504 0
264 4 5.24173 29.7031 0
266 4 3.49449 29.7031 1.74724
295 4 3.49449 31.4504 0
8498 2 5.24173 31.4504 1.74724
297 4 8.73622 31.4504 1.74724
8468 2 8.73622 29.7031 0
8499 2 6.98898 31.4504 0
270 4 12.2307 29.7031 0
271 4 10.4835 29.7031 1.74724
299 4 12.2307 31.4504 1.74724
8502 2 12.2307 31.4504 1.74724
272 4 13.978 29.7031 1.74724
301 4 13.978 31.4504 0
302 4 15.7252 31.4504 1.74724
8472 2 13.978 29.7031 1.74724
8504 2 13.978 31.4504 0
8506 2 15.7252 31.4504 1.74724
273 4 19.2197 29.7031 0
275 4 17.4724 29.7031 1.74724
8473 2 19.2197 29.7031 0
8508 2 17.4724 31.4504 0
277 4 20.9669 29.7031 1.74724
306 4 22.7142 31.4504 1.74724
8510 2 20.9669 31.4504 0
279 4 24.4614 29.7031 1.74724
8513 2 24.4614 31.4504 0
308 4 27.9559 31.4504 0
8476 2 29.7031 29.7031 0
8515 2 29.7031 31.4504 1.74724
283 4 33.1976 29.7031 0
285 4 34.9449 29.7031 1.74724
8479 2 33.1976 29.7031 0
8483 2 34.9449 29.7031 1.74724
8519 2 34.9449 31.4504 0
311 4 36.6921 31.4504 1.74724
8481 2 36.6921 29.7031 0
8485 2 38.4394 29.7031 1.74724
8520 2 36.6921 31.4504 1.74724
287 4 40.1866 29.7031 0
290 4 41.9339 29.7031 1.74724
314 4 41.9339 31.4504 0
8523 2 41.9339 31.4504 0
288 4 43.6811 29.7031 0
316 4 45.4283 31.4504 0
8486 2 43.6811 29.7031 0
8490 2 45.4283 29.7031 1.74724
318 4 47.1756 31.4504 1.74724
320 4 48.9228 31.4504 0
8488 2 47.1756 29.7031 0
8525 2 48.9228 31.4504 0
8492 2 50.6701 29.7031 0
8526 2 50.6701 31.4504 1.74724
293 4 52.4173 29.7031 1.74724
8494 2 52.4173 29.7031 1.74724
294 4 1.74724 33.1976 0
323 4 1.74724 34.9449 1.74724
8496 2 1.74724 33.1976 0
8528 2 0 34.9449 0
296 4 5.24173 33.1976 0
324 4 3.49449 34.9449 0
325 4 5.24173 34.9449 1.74724
8497 2 5.24173 33.1976 0
326 4 8.73622 34.9449 1.74724
8500 2 6.98898 33.1976 1.74724
8532 2 6.98898 34.9449 0
298 4 12.2307 33.1976 0
300 4 10.4835 33.1976 1.74724
328 4 12.2307 34.9449 1.74724
8501 2 12.2307 33.1976 0
8503 2 10.4835 33.1976 1.74724
329 4 13.978 34.9449 0
8505 2 15.7252 33.1976 0
8507 2 13.978 33.1976 1.74724
8536 2 15.7252 34.9449 1.74724
303 4 19.2197 33.1976 0
304 4 17.4724 33.1976 1.74724
332 4 17.4724 34.9449 0
8509 2 19.2197 33.1976 0
8537 2 17.4724 34.9449 0
8538 2 19.2197 34.9449 1.74724
305 4 22.7142 33.1976 0
334 4 20.9669 34.9449 0
8511 2 22.7142 33.1976 0
8512 2 20.9669 33.1976 1.74724
8540 2 20.9669 34.9449 0
8542 2 22.7142 34.9449 1.74724
307 4 26.2087 33.1976 0
338 4 26.2087 34.9449 1.74724
339 4 27.9559 34.9449 0
8516 2 27.9559 33.1976 1.74724
8545 2 26.2087 34.9449 1.74724
8546 2 27.9559 34.9449 0
309 4 29.7031 33.1976 0
341 4 29.7031 34.9449 1.74724
343 4 31.4504 34.9449 0
8514 2 29.7031 33.1976 0
8518 2 31.4504 33.1976 1.74724
8548 2 29.7031 34.9449 1.74724
312 4 34.9449 33.1976 1.74724
345 4 33.1976 34.9449 1.74724
346 4 34.9449 34.9449 0
8517 2 33.1976 33.1976 0
8521 2 34.9449 33.1976 1.74724
8550 2 33.1976 34.9449 1.74724
310 4 36.6921 33.1976 0
347 4 38.4394 34.9449 0
8552 2 36.6921 34.9449 1.74724
313 4 40.1866 33.1976 0
348 4 41.9339 34.9449 0
8522 2 40.1866 33.1976 0
315 4 43.6811 33.1976 0
319 4 45.4283 33.1976 1.74724
349 4 43.6811 34.9449 1.74724
8556 2 45.4283 34.9449 0
317 4 47.1756 33.1976 0
352 4 48.9228 34.9449 0
8524 2 47.1756 33.1976 0
8557 2 47.1756 34.9449 1.74724
354 4 50.6701 34.9449 1.74724
321 4 54.1646 33.1976 0
8527 2 54.1646 33.1976 0
322 4 1.74724 36.6921 0
357 4 0 38.4394 0
359 4 1.74724 38.4394 1.74724
8529 2 0 36.6921 1.74724
8561 2 0 38.4394 0
8562 2 1.74724 38.4394 1.74724
361 4 3.49449 38.4394 0
8530 2 5.24173 36.6921 0
8531 2 3.49449 36.6921 1.74724
8563 2 3.49449 38.4394 0
8564 2 5.24173 38.4394 1.74724
327 4 6.98898 36.6921 1.74724
363 4 6.98898 38.4394 0
364 4 8.73622 38.4394 1.74724
8533 2 8.73622 36.6921 0
8565 2 6.98898 38.4394 0
8566 2 8.73622 38.4394 1.74724
365 4 10.4835 38.4394 0
366 4 12.2307 38.4394 1.74724
8534 2 12.2307 36.6921 0
8569 2 12.2307 38.4394 1.74724
330 4 15.7252 36.6921 0
331 4 13.978 36.6921 1.74724
368 4 15.7252 38.4394 1.74724
8535 2 15.7252 36.6921 0
8570 2 15.7252 38.4394 1.74724
333 4 19.2197 36.6921 0
370 4 19.2197 38.4394 1.74724
8539 2 17.4724 36.6921 1.74724
335 4 22.7142 36.6921 0
336 4 20.9669 36.6921 1.74724
372 4 22.7142 38.4394 1.74724
8541 2 22.7142 36.6921 0
8543 2 20.9669 36.6921 1.74724
8573 2 22.7142 38.4394 1.74724
374 4 24.4614 38.4394 0
8575 2 24.4614 38.4394 0
337 4 26.2087 36.6921 0
342 4 27.9559 36.6921 1.74724
376 4 26.2087 38.4394 1.74724
378 4 27.9559 38.4394 0
8544 2 26.2087 36.6921 0
8549 2 27.9559 36.6921 1.74724
8576 2 26.2087 38.4394 1.74724
340 4 29.7031 36.6921 0
379 4 29.7031 38.4394 1.74724
380 4 31.4504 38.4394 0
8547 2 29.7031 36.6921 0
8551 2 31.4504 36.6921 1.74724
8578 2 31.4504 38.4394 0
344 4 33.1976 36.6921 0
381 4 33.1976 38.4394 1.74724
8553 2 34.9449 36.6921 1.74724
383 4 36.6921 38.4394 1.74724
350 4 41.9339 36.6921 1.74724
385 4 40.1866 38.4394 1.74724
8555 2 41.9339 36.6921 1.74724
8581 2 40.1866 38.4394 1.74724
387 4 45.4283 38.4394 0
8554 2 43.6811 36.6921 0
351 4 47.1756 36.6921 0
390 4 48.9228 38.4394 0
8582 2 47.1756 38.4394 1.74724
353 4 50.6701 36.6921 0
391 4 50.6701 38.4394 1.74724
8558 2 50.6701 36.6921 0
8584 2 50.6701 38.4394 1.74724
355 4 54.1646 36.6921 0
356 4 52.4173 36.6921 1.74724
8559 2 54.1646 36.6921 0
8560 2 52.4173 36.6921 1.74724
8586 2 54.1646 38.4394 1.74724
358 4 1.74724 40.1866 0
360 4 0 40.1866 1.74724
362 4 3.49449 40.1866 1.74724
395 4 3.49449 41.9339 0
8591 2 5.24173 41.9339 1.74724
397 4 6.98898 41.9339 0
399 4 8.73622 41.9339 1.74724
8567 2 6.98898 40.1866 1.74724
8593 2 6.98898 41.9339 0
8595 2 8.73622 41.9339 1.74724
367 4 10.4835 40.1866 1.74724
401 4 12.2307 41.9339 1.74724
8568 2 12.2307 40.1866 0
402 4 13.978 41.9339 0
8597 2 15.7252 41.9339 1.74724
369 4 19.2197 40.1866 0
371 4 17.4724 40.1866 1.74724
8571 2 19.2197 40.1866 0
8572 2 17.4724 40.1866 1.74724
8598 2 17.4724 41.9339 0
8599 2 19.2197 41.9339 1.74724
373 4 20.9669 40.1866 1.74724
406 4 20.9669 41.9339 0
8574 2 20.9669 40.1866 1.74724
8600 2 20.9669 41.9339 0
8601 2 22.7142 41.9339 1.74724
377 4 24.4614 40.1866 1.74724
407 4 24.4614 41.9339 0
8577 2 24.4614 40.1866 1.74724
8602 2 24.4614 41.9339 0
375 4 26.2087 40.1866 0
8579 2 31.4504 40.1866 1.74724
8605 2 29.7031 41.9339 1.74724
8607 2 31.4504 41.9339 0
408 4 33.1976 41.9339 1.74724
410 4 34.9449 41.9339 0
8608 2 33.1976 41.9339 1.74724
8610 2 34.9449 41.9339 0
382 4 36.6921 40.1866 0
412 4 36.6921 41.9339 1.74724
413 4 38.4394 41.9339 0
8580 2 36.6921 40.1866 0
8612 2 36.6921 41.9339 1.74724
8614 2 38.4394 41.9339 0
384 4 40.1866 40.1866 0
386 4 41.9339 40.1866 1.74724
415 4 40.1866 41.9339 1.74724
8615 2 40.1866 41.9339 1.74724
8616 2 41.9339 41.9339 0
389 4 45.4283 40.1866 1.74724
418 4 45.4283 41.9339 0
8617 2 43.6811 41.9339 1.74724
8618 2 45.4283 41.9339 0
388 4 47.1756 40.1866 0
419 4 47.1756 41.9339 1.74724
420 4 48.9228 41.9339 0
8585 2 48.9228 40.1866 1.74724
8583 2 50.6701 40.1866 0
392 4 54.1646 40.1866 0
393 4 52.4173 40.1866 1.74724
422 4 52.4173 41.9339 0
8587 2 52.4173 40.1866 1.74724
8622 2 52.4173 41.9339 0
394 4 0 43.6811 1.74724
8588 2 1.74724 43.6811 0
8589 2 0 43.6811 1.74724
8623 2 0 45.4283 0
8624 2 1.74724 45.4283 1.74724
396 4 3.49449 43.6811 1.74724
426 4 3.49449 45.4283 0
8590 2 5.24173 43.6811 0
8592 2 3.49449 43.6811 1.74724
8625 2 5.24173 45.4283 1.74724
398 4 8.73622 43.6811 0
400 4 6.98898 43.6811 1.74724
8594 2 8.73622 43.6811 0
8627 2 6.98898 45.4283 0
8628 2 8.73622 45.4283 1.74724
429 4 10.4835 45.4283 0
8596 2 12.2307 43.6811 0
8631 2 12.2307 45.4283 1.74724
403 4 15.7252 43.6811 0
404 4 13.978 43.6811 1.74724
432 4 13.978 45.4283 0
405 4 17.4724 43.6811 1.74724
435 4 17.4724 45.4283 0
8635 2 19.2197 45.4283 1.74724
436 4 20.9669 45.4283 0
438 4 22.7142 45.4283 1.74724
8636 2 20.9669 45.4283 0
8603 2 24.4614 43.6811 1.74724
440 4 26.2087 45.4283 1.74724
441 4 27.9559 45.4283 0
8606 2 27.9559 43.6811 1.74724
8638 2 26.2087 45.4283 1.74724
409 4 31.4504 43.6811 1.74724
8604 2 29.7031 43.6811 0
8609 2 31.4504 43.6811 1.74724
443 4 33.1976 45.4283 1.74724
445 4 34.9449 45.4283 0
8613 2 34.9449 43.6811 1.74724
8641 2 33.1976 45.4283 1.74724
411 4 36.6921 43.6811 0
448 4 38.4394 45.4283 0
8611 2 36.6921 43.6811 0
8644 2 38.4394 45.4283 0
414 4 40.1866 43.6811 0
417 4 41.9339 43.6811 1.74724
449 4 40.1866 45.4283 1.74724
450 4 41.9339 45.4283 0
416 4 43.6811 43.6811 0
452 4 43.6811 45.4283 1.74724
454 4 45.4283 45.4283 0
8620 2 45.4283 43.6811 1.74724
8647 2 43.6811 45.4283 1.74724
8649 2 45.4283 45.4283 0
456 4 47.1756 45.4283 1.74724
8619 2 47.1756 43.6811 0
8621 2 48.9228 43.6811 1.74724
8651 2 47.1756 45.4283 1.74724
8652 2 48.9228 45.4283 0
421 4 50.6701 43.6811 0
457 4 50.6701 45.4283 1.74724
423 4 54.1646 43.6811 0
424 4 52.4173 43.6811 1.74724
459 4 52.4173 45.4283 0
460 4 54.1646 45.4283 1.74724
8655 2 52.4173 45.4283 0
8657 2 54.1646 45.4283 1.74724
425 4 0 47.1756 1.74724
8658 2 0 48.9228 0
8660 2 1.74724 48.9228 1.74724
427 4 3.49449 47.1756 1.74724
8626 2 3.49449 47.1756 1.74724
428 4 8.73622 47.1756 0
463 4 8.73622 48.9228 1.74724
8629 2 6.98898 47.1756 1.74724
8662 2 6.98898 48.9228 0
430 4 12.2307 47.1756 0
431 4 10.4835 47.1756 1.74724
464 4 10.4835 48.9228 0
8630 2 12.2307 47.1756 0
8632 2 10.4835 47.1756 1.74724
8665 2 10.4835 48.9228 0
8667 2 12.2307 48.9228 1.74724
433 4 15.7252 47.1756 0
434 4 13.978 47.1756 1.74724
465 4 13.978 48.9228 0
8633 2 15.7252 47.1756 0
8634 2 13.978 47.1756 1.74724
8668 2 13.978 48.9228 0
467 4 17.4724 48.9228 0
468 4 19.2197 48.9228 1.74724
8669 2 17.4724 48.9228 0
437 4 22.7142 47.1756 0
470 4 22.7142 48.9228 1.74724
8637 2 22.7142 47.1756 0
8671 2 20.9669 48.9228 0
471 4 24.4614 48.9228 0
8639 2 24.4614 47.1756 1.74724
439 4 26.2087 47.1756 0
473 4 26.2087 48.9228 1.74724
8640 2 27.9559 47.1756 1.74724
8673 2 26.2087 48.9228 1.74724
8674 2 27.9559 48.9228 0
444 4 31.4504 47.1756 1.74724
475 4 29.7031 48.9228 1.74724
8676 2 31.4504 48.9228 0
442 4 33.1976 47.1756 0
447 4 34.9449 47.1756 1.74724
477 4 33.1976 48.9228 1.74724
478 4 34.9449 48.9228 0
8643 2 34.9449 47.1756 1.74724
8677 2 33.1976 48.9228 1.74724
446 4 36.6921 47.1756 0
479 4 36.6921 48.9228 1.74724
8642 2 36.6921 47.1756 0
8646 2 38.4394 47.1756 1.74724
8680 2 36.6921 48.9228 1.74724
453 4 41.9339 47.1756 1.74724
481 4 40.1866 48.9228 1.74724
483 4 41.9339 48.9228 0
8645 2 40.1866 47.1756 0
8648 2 41.9339 47.1756 1.74724
451 4 43.6811 47.1756 0
484 4 43.6811 48.9228 1.74724
8684 2 45.4283 48.9228 0
455 4 47.1756 47.1756 0
458 4 48.9228 47.1756 1.74724
8650 2 47.1756 47.1756 0
8654 2 48.9228 47.1756 1.74724
8687 2 48.9228 48.9228 0
488 4 50.6701 48.9228 1.74724
8653 2 50.6701 47.1756 0
489 4 52.4173 48.9228 0
491 4 54.1646 48.9228 1.74724
8656 2 54.1646 47.1756 0
8659 2 1.74724 50.6701 0
461 4 5.24173 50.6701 0
8661 2 3.49449 50.6701 1.74724
462 4 8.73622 50.6701 0
8663 2 8.73622 50.6701 0
8664 2 6.98898 50.6701 1.74724
8666 2 12.2307 50.6701 0
466 4 13.978 50.6701 1.74724
469 4 17.4724 50.6701 1.74724
8670 2 19.2197 50.6701 0
8672 2 20.9669 50.6701 1.74724
474 4 24.4614 50.6701 1.74724
472 4 26.2087 50.6701 0
8675 2 29.7031 50.6701 0
8678 2 31.4504 50.6701 1.74724
476 4 33.1976 50.6701 0
8681 2 34.9449 50.6701 1.74724
482 4 38.4394 50.6701 1.74724
8679 2 36.6921 50.6701 0
8682 2 38.4394 50.6701 1.74724
480 4 40.1866 50.6701 0
8683 2 41.9339 50.6701 1.74724
486 4 45.4283 50.6701 1.74724
8686 2 45.4283 50.6701 1.74724
485 4 47.1756 50.6701 0
8685 2 47.1756 50.6701 0
487 4 50.6701 50.6701 0
8688 2 50.6701 50.6701 0
490 4 54.1646 50.6701 0
492 4 1.74724 54.1646 0
8689 2 0 52.4173 0
8690 2 1.74724 54.1646 0
8691 2 0 54.1646 1.74724
493 4 3.49449 52.4173 0
494 4 5.24173 54.1646 0
495 4 3.49449 54.1646 1.74724
8692 2 3.49449 52.4173 0
8693 2 5.24173 52.4173 1.74724
8694 2 3.49449 54.1646 1.74724
496 4 6.98898 52.4173 0
497 4 8.73622 52.4173 1.74724
8695 2 8.73622 54.1646 0
8696 2 6.98898 54.1646 1.74724
498 4 12.2307 54.1646 0
8697 2 10.4835 52.4173 0
8698 2 12.2307 52.4173 1.74724
8699 2 13.978 52.4173 0
8700 2 15.7252 54.1646 0
8701 2 15.7252 52.4173 1.74724
8702 2 13.978 54.1646 1.74724
499 4 19.2197 54.1646 0
500 4 19.2197 52.4173 1.74724
501 4 17.4724 54.1646 1.74724
8703 2 17.4724 52.4173 0
502 4 20.9669 52.4173 0
8704 2 22.7142 54.1646 0
8705 2 22.7142 52.4173 1.74724
8706 2 20.9669 54.1646 1.74724
503 4 24.4614 52.4173 0
8707 2 24.4614 52.4173 0
8709 2 24.4614 54.1646 1.74724
504 4 26.2087 54.1646 0
505 4 26.2087 52.4173 1.74724
508 4 27.9559 54.1646 1.74724
8708 2 26.2087 52.4173 1.74724
8711 2 27.9559 54.1646 1.74724
506 4 29.7031 54.1646 0
507 4 29.7031 52.4173 1.74724
509 4 31.4504 52.4173 0
8710 2 29.7031 54.1646 0
8712 2 31.4504 52.4173 0
8714 2 31.4504 54.1646 1.74724
510 4 33.1976 54.1646 0
511 4 33.1976 52.4173 1.74724
512 4 34.9449 52.4173 0
8713 2 33.1976 52.4173 1.74724
8715 2 34.9449 52.4173 0
8718 2 34.9449 54.1646 1.74724
513 4 38.4394 52.4173 0
8716 2 36.6921 54.1646 0
8717 2 36.6921 52.4173 1.74724
8719 2 38.4394 52.4173 0
514 4 40.1866 52.4173 1.74724
516 4 41.9339 54.1646 1.74724
8720 2 40.1866 54.1646 0
515 4 43.6811 52.4173 1.74724
517 4 45.4283 52.4173 0
519 4 45.4283 54.1646 1.74724
8721 2 43.6811 52.4173 1.74724
8722 2 45.4283 52.4173 0
8725 2 45.4283 54.1646 1.74724
518 4 47.1756 52.4173 1.74724
8723 2 47.1756 54.1646 0
8724 2 47.1756 52.4173 1.74724
8726 2 50.6701 54.1646 0
8727 2 50.6701 52.4173 1.74724
520 4 54.1646 54.1646 0
521 4 54.1646 52.4173 1.74724
8728 2 54.1646 54.1646 0
8729 2 54.1646 52.4173 1.74724
8730 2 1.74724 1.74724 3.49449
8731 2 0 1.74724 5.24173
522 4 5.24173 0 5.24173
523 4 3.49449 1.74724 5.24173
8732 2 5.24173 1.74724 3.49449
8733 2 5.24173 0 5.24173
8734 2 3.49449 1.74724 5.24173
524 4 8.73622 0 5.24173
8735 2 6.98898 0 3.49449
8736 2 8.73622 0 5.24173
8737 2 6.98898 1.74724 5.24173
525 4 12.2307 1.74724 3.49449
526 4 12.2307 0 5.24173
527 4 10.4835 1.74724 5.24173
8738 2 12.2307 0 5.24173
8739 2 10.4835 1.74724 5.24173
528 4 13.978 0 3.49449
529 4 15.7252 0 5.24173
8740 2 13.978 0 3.49449
8741 2 13.978 1.74724 5.24173
530 4 19.2197 0 5.24173
531 4 17.4724 1.74724 5.24173
8742 2 17.4724 1.74724 5.24173
532 4 22.7142 1.74724 3.49449
533 4 22.7142 0 5.24173
8743 2 20.9669 0 3.49449
8744 2 22.7142 1.74724 3.49449
8745 2 20.9669 1.74724 5.24173
534 4 24.4614 0 3.49449
535 4 24.4614 1.74724 5.24173
8746 2 24.4614 0 3.49449
536 4 27.9559 0 3.49449
539 4 27.9559 1.74724 5.24173
8747 2 26.2087 0 5.24173
8748 2 27.9559 0 3.49449
8749 2 27.9559 1.74724 5.24173
537 4 29.7031 1.74724 3.49449
538 4 29.7031 0 5.24173
8752 2 31.4504 1.74724 5.24173
540 4 34.9449 0 3.49449
8750 2 33.1976 1.74724 3.49449
8751 2 33.1976 0 5.24173
8753 2 34.9449 1.74724 5.24173
541 4 38.4394 0 3.49449
542 4 40.1866 1.74724 3.49449
545 4 41.9339 1.74724 5.24173
8754 2 40.1866 1.74724 3.49449