ITEM: TIMESTEP
0
ITEM: NUMBER OF ATOMS
16384
ITEM: BOX BOUNDS pp pp pp
0.0000000000000000e+00 2.9573156605958701e+01
0.0000000000000000e+00 2.9573156605958701e+01
0.0000000000000000e+00 2.9573156605958701e+01
ITEM: ATOMS id type x y z
1 4 0 0 0
2 4 0.931496 0.931496 0
3 4 2.79449 0.931496 0
4 4 2.79449 0 0.931496
5 4 1.86299 0.931496 0.931496
32 4 0.931496 1.86299 0.931496
33 4 0 2.79449 0.931496
34 4 2.79449 1.86299 0.931496
35 4 1.86299 2.79449 0.931496
522 4 2.79449 0 2.79449
523 4 1.86299 0.931496 2.79449
553 4 0.931496 2.79449 1.86299
554 4 0 2.79449 2.79449
555 4 2.79449 2.79449 1.86299
556 4 2.79449 1.86299 2.79449
557 4 1.86299 2.79449 2.79449
8193 2 0 0 0
8194 2 0.931496 0.931496 0
8195 2 0.931496 0 0.931496
8196 2 0 0.931496 0.931496
8197 2 2.79449 0 0.931496
8226 2 0 1.86299 0
8227 2 0.931496 2.79449 0
8228 2 2.79449 1.86299 0.931496
8730 2 0.931496 0.931496 1.86299
8731 2 0 0.931496 2.79449
8732 2 2.79449 0.931496 1.86299
8733 2 2.79449 0 2.79449
8734 2 1.86299 0.931496 2.79449
8760 2 1.86299 1.86299 1.86299
8761 2 2.79449 2.79449 1.86299
6 4 4.65748 0 0.931496
7 4 3.72598 0.931496 0.931496
8 4 6.52047 0.931496 0
9 4 6.52047 0 0.931496
10 4 5.58898 0.931496 0.931496
36 4 3.72598 1.86299 0
37 4 4.65748 2.79449 0
38 4 4.65748 1.86299 0.931496
39 4 3.72598 2.79449 0.931496
40 4 6.52047 2.79449 0
41 4 6.52047 1.86299 0.931496
42 4 5.58898 2.79449 0.931496
524 4 4.65748 0 2.79449
525 4 6.52047 0.931496 1.86299
526 4 6.52047 0 2.79449
527 4 5.58898 0.931496 2.79449
558 4 3.72598 1.86299 1.86299
559 4 4.65748 1.86299 2.79449
560 4 3.72598 2.79449 2.79449
561 4 5.58898 1.86299 1.86299
562 4 6.52047 2.79449 1.86299
8198 2 3.72598 0 0
8199 2 4.65748 0.931496 0
8200 2 6.52047 0.931496 0
8229 2 3.72598 1.86299 0
8230 2 4.65748 2.79449 0
8735 2 3.72598 0 1.86299
8736 2 4.65748 0 2.79449
8737 2 3.72598 0.931496 2.79449
8738 2 6.52047 0 2.79449
8739 2 5.58898 0.931496 2.79449
8762 2 4.65748 2.79449 1.86299
8763 2 4.65748 1.86299 2.79449
8764 2 5.58898 2.79449 2.79449
11 4 7.45197 0 0
12 4 7.45197 0.931496 0.931496
43 4 7.45197 1.86299 0
44 4 8.38346 2.79449 0
45 4 7.45197 2.79449 0.931496
47 4 9.31496 2.79449 0.931496
528 4 7.45197 0 1.86299
529 4 8.38346 0 2.79449
531 4 9.31496 0.931496 2.79449
563 4 8.38346 2.79449 1.86299
564 4 8.38346 1.86299 2.79449
565 4 9.31496 1.86299 1.86299
8201 2 8.38346 0 0.931496
8203 2 9.31496 0.931496 0.931496
8231 2 7.45197 1.86299 0
8232 2 8.38346 1.86299 0.931496
8740 2 7.45197 0 1.86299
8741 2 7.45197 0.931496 2.79449
8742 2 9.31496 0.931496 2.79449
8765 2 8.38346 2.79449 1.86299
8766 2 8.38346 1.86299 2.79449
8767 2 7.45197 2.79449 2.79449
8769 2 9.31496 2.79449 2.79449
13 4 11.178 0 0
14 4 13.0409 0 0
16 4 13.0409 0.931496 0.931496
46 4 10.2465 1.86299 0.931496
48 4 11.178 1.86299 0
49 4 12.1094 2.79449 0
50 4 12.1094 1.86299 0.931496
51 4 11.178 2.79449 0.931496
52 4 13.0409 2.79449 0.931496
530 4 10.2465 0 2.79449
532 4 12.1094 0.931496 1.86299
533 4 12.1094 0 2.79449
534 4 13.0409 0 1.86299
535 4 13.0409 0.931496 2.79449
566 4 10.2465 2.79449 1.86299
567 4 10.2465 1.86299 2.79449
568 4 11.178 1.86299 1.86299
569 4 12.1094 2.79449 1.86299
570 4 12.1094 1.86299 2.79449
8202 2 10.2465 0 0.931496
8204 2 11.178 0 0
8205 2 12.1094 0.931496 0
8206 2 11.178 0.931496 0.931496
8207 2 13.0409 0 0
8233 2 10.2465 2.79449 0
8234 2 12.1094 2.79449 0
8235 2 12.1094 1.86299 0.931496
8236 2 13.0409 1.86299 0
8237 2 13.0409 2.79449 0.931496
8743 2 11.178 0 1.86299
8744 2 12.1094 0.931496 1.86299
8745 2 11.178 0.931496 2.79449
8746 2 13.0409 0 1.86299
8768 2 10.2465 2.79449 1.86299
8770 2 11.178 1.86299 1.86299
8771 2 12.1094 2.79449 1.86299
8772 2 11.178 2.79449 2.79449
8773 2 13.0409 1.86299 1.86299
8775 2 13.0409 2.79449 2.79449
15 4 13.9724 0 0.931496
17 4 14.9039 0 0
18 4 15.8354 0.931496 0
19 4 15.8354 0 0.931496
53 4 14.9039 1.86299 0
54 4 15.8354 2.79449 0
55 4 15.8354 1.86299 0.931496
56 4 14.9039 2.79449 0.931496
536 4 14.9039 0 1.86299
537 4 15.8354 0.931496 1.86299
538 4 15.8354 0 2.79449
539 4 14.9039 0.931496 2.79449
571 4 14.9039 1.86299 1.86299
572 4 15.8354 2.79449 1.86299
573 4 15.8354 1.86299 2.79449
574 4 14.9039 2.79449 2.79449
8208 2 13.9724 0 0.931496
8209 2 15.8354 0.931496 0
8238 2 14.9039 1.86299 0
8239 2 15.8354 2.79449 0
8747 2 13.9724 0 2.79449
8748 2 14.9039 0 1.86299
8749 2 14.9039 0.931496 2.79449
8774 2 13.9724 1.86299 2.79449
8776 2 15.8354 2.79449 1.86299
8777 2 14.9039 2.79449 2.79449
20 4 17.6984 0.931496 0
21 4 17.6984 0 0.931496
22 4 19.5614 0.931496 0
57 4 16.7669 1.86299 0
58 4 17.6984 2.79449 0
59 4 16.7669 2.79449 0.931496
60 4 19.5614 1.86299 0.931496
61 4 18.6299 2.79449 0.931496
540 4 18.6299 0 1.86299
575 4 16.7669 1.86299 1.86299
576 4 17.6984 2.79449 1.86299
577 4 16.7669 2.79449 2.79449
578 4 18.6299 2.79449 2.79449
8210 2 17.6984 0.931496 0
8211 2 17.6984 0 0.931496
8212 2 16.7669 0.931496 0.931496
8213 2 18.6299 0 0
8214 2 19.5614 0 0.931496
8215 2 18.6299 0.931496 0.931496
8240 2 17.6984 1.86299 0.931496
8241 2 16.7669 2.79449 0.931496
8242 2 19.5614 1.86299 0.931496
8750 2 17.6984 0.931496 1.86299
8751 2 17.6984 0 2.79449
8752 2 16.7669 0.931496 2.79449
8753 2 18.6299 0.931496 2.79449
8778 2 16.7669 1.86299 1.86299
8779 2 19.5614 1.86299 2.79449
8780 2 18.6299 2.79449 2.79449
23 4 20.4929 0 0
24 4 21.4244 0.931496 0
62 4 21.4244 1.86299 0.931496
63 4 22.3559 1.86299 0
541 4 20.4929 0 1.86299
542 4 21.4244 0.931496 1.86299
545 4 22.3559 0.931496 2.79449
579 4 21.4244 2.79449 1.86299
580 4 21.4244 1.86299 2.79449
581 4 20.4929 2.79449 2.79449
8216 2 21.4244 0.931496 0
8217 2 20.4929 0.931496 0.931496
8218 2 22.3559 0 0
8220 2 22.3559 0.931496 0.931496
8243 2 20.4929 1.86299 0
8244 2 21.4244 2.79449 0
8245 2 22.3559 1.86299 0
8754 2 21.4244 0.931496 1.86299
8755 2 21.4244 0 2.79449
8756 2 22.3559 0.931496 2.79449
8781 2 21.4244 1.86299 2.79449
8782 2 20.4929 2.79449 2.79449
8783 2 22.3559 1.86299 1.86299
8785 2 22.3559 2.79449 2.79449
25 4 23.2874 0.931496 0
26 4 25.1504 0.931496 0
27 4 26.0819 0 0
29 4 26.0819 0.931496 0.931496
64 4 23.2874 2.79449 0
65 4 23.2874 1.86299 0.931496
66 4 25.1504 2.79449 0
67 4 25.1504 1.86299 0.931496
68 4 26.0819 1.86299 0
543 4 23.2874 0.931496 1.86299
544 4 23.2874 0 2.79449
546 4 24.2189 0 1.86299
547 4 25.1504 0.931496 1.86299
548 4 25.1504 0 2.79449
549 4 24.2189 0.931496 2.79449
550 4 26.0819 0.931496 2.79449
582 4 23.2874 2.79449 1.86299
583 4 24.2189 1.86299 1.86299
584 4 25.1504 2.79449 1.86299
8219 2 23.2874 0.931496 0
8221 2 24.2189 0 0
8222 2 25.1504 0 0.931496
8223 2 24.2189 0.931496 0.931496
8246 2 23.2874 1.86299 0.931496
8247 2 24.2189 1.86299 0
8248 2 25.1504 2.79449 0
8249 2 25.1504 1.86299 0.931496
8250 2 24.2189 2.79449 0.931496
8251 2 26.0819 1.86299 0
8757 2 24.2189 0 1.86299
8758 2 25.1504 0 2.79449
8784 2 23.2874 2.79449 1.86299
8786 2 24.2189 2.79449 2.79449
8787 2 26.0819 1.86299 1.86299
28 4 27.0134 0 0.931496
30 4 27.9449 0 0
31 4 28.8764 0.931496 0
69 4 27.0134 2.79449 0
70 4 27.9449 1.86299 0
71 4 28.8764 2.79449 0
72 4 27.9449 2.79449 0.931496
551 4 27.9449 0 1.86299
552 4 27.9449 0.931496 2.79449
585 4 27.0134 1.86299 2.79449
586 4 28.8764 2.79449 1.86299
8224 2 27.0134 0 0.931496
8225 2 27.9449 0 0
8252 2 27.9449 1.86299 0
8253 2 28.8764 2.79449 0
8254 2 28.8764 1.86299 0.931496
8255 2 27.9449 2.79449 0.931496
8759 2 28.8764 0.931496 1.86299
8788 2 27.0134 1.86299 2.79449
8789 2 28.8764 2.79449 1.86299
73 4 0.931496 3.72598 0.931496
74 4 2.79449 3.72598 0.931496
75 4 1.86299 4.65748 0.931496
98 4 0.931496 6.52047 0
99 4 0.931496 5.58898 0.931496
100 4 0 6.52047 0.931496
101 4 1.86299 5.58898 0
102 4 2.79449 6.52047 0
103 4 2.79449 5.58898 0.931496
587 4 0 3.72598 1.86299
588 4 0.931496 4.65748 1.86299
589 4 0.931496 3.72598 2.79449
590 4 2.79449 4.65748 1.86299
591 4 1.86299 4.65748 2.79449
611 4 0 6.52047 2.79449
612 4 2.79449 6.52047 1.86299
8256 2 0.931496 3.72598 0.931496
8257 2 0 4.65748 0.931496
8258 2 1.86299 3.72598 0
8259 2 2.79449 4.65748 0
8295 2 0 5.58898 0
8296 2 1.86299 5.58898 0
8297 2 2.79449 6.52047 0
8298 2 2.79449 5.58898 0.931496
8790 2 0 3.72598 1.86299
8791 2 0.931496 3.72598 2.79449
8792 2 0 4.65748 2.79449
8793 2 1.86299 3.72598 1.86299
8794 2 2.79449 4.65748 1.86299
8795 2 1.86299 4.65748 2.79449
8824 2 0 5.58898 1.86299
8825 2 0.931496 6.52047 1.86299
8826 2 1.86299 5.58898 1.86299
76 4 5.58898 3.72598 0
77 4 6.52047 3.72598 0.931496
104 4 3.72598 5.58898 0
105 4 4.65748 5.58898 0.931496
106 4 6.52047 6.52047 0
107 4 6.52047 5.58898 0.931496
613 4 3.72598 5.58898 1.86299
614 4 4.65748 6.52047 1.86299
615 4 3.72598 6.52047 2.79449
616 4 6.52047 6.52047 1.86299
617 4 5.58898 6.52047 2.79449
8260 2 3.72598 3.72598 0
8261 2 4.65748 3.72598 0.931496
8262 2 3.72598 4.65748 0.931496
8263 2 5.58898 3.72598 0
8264 2 5.58898 4.65748 0.931496
8299 2 3.72598 5.58898 0
8300 2 4.65748 6.52047 0
8301 2 5.58898 5.58898 0
8302 2 6.52047 6.52047 0
8303 2 5.58898 6.52047 0.931496
8796 2 4.65748 3.72598 2.79449
8797 2 3.72598 4.65748 2.79449
8798 2 6.52047 4.65748 1.86299
8799 2 5.58898 4.65748 2.79449
8827 2 3.72598 5.58898 1.86299
8828 2 4.65748 6.52047 1.86299
8829 2 6.52047 6.52047 1.86299
8830 2 5.58898 6.52047 2.79449
78 4 8.38346 3.72598 0.931496
108 4 9.31496 5.58898 0
592 4 7.45197 3.72598 1.86299
593 4 8.38346 3.72598 2.79449
594 4 9.31496 3.72598 1.86299
618 4 9.31496 5.58898 1.86299
8265 2 7.45197 3.72598 0
8266 2 8.38346 4.65748 0
8267 2 8.38346 3.72598 0.931496
8268 2 9.31496 3.72598 0
8304 2 8.38346 6.52047 0
8305 2 8.38346 5.58898 0.931496
8800 2 7.45197 4.65748 2.79449
8831 2 7.45197 5.58898 1.86299
8832 2 7.45197 6.52047 2.79449
79 4 10.2465 4.65748 0
80 4 10.2465 3.72598 0.931496
81 4 11.178 3.72598 0
82 4 12.1094 3.72598 0.931496
83 4 13.0409 4.65748 0.931496
109 4 10.2465 6.52047 0
110 4 10.2465 5.58898 0.931496
111 4 11.178 5.58898 0
112 4 12.1094 5.58898 0.931496
113 4 11.178 6.52047 0.931496
114 4 13.0409 5.58898 0
117 4 13.0409 6.52047 0.931496
595 4 10.2465 4.65748 1.86299
596 4 11.178 3.72598 1.86299
597 4 12.1094 3.72598 2.79449
598 4 13.0409 3.72598 1.86299
619 4 10.2465 5.58898 2.79449
620 4 12.1094 6.52047 1.86299
622 4 13.0409 6.52047 2.79449
8269 2 10.2465 4.65748 0
8270 2 10.2465 3.72598 0.931496
8271 2 12.1094 4.65748 0
8272 2 11.178 4.65748 0.931496
8273 2 13.0409 4.65748 0.931496
8306 2 10.2465 6.52047 0
8307 2 12.1094 6.52047 0
8308 2 11.178 6.52047 0.931496
8309 2 13.0409 5.58898 0
8311 2 13.0409 6.52047 0.931496
8801 2 10.2465 4.65748 1.86299
8802 2 10.2465 3.72598 2.79449
8803 2 11.178 4.65748 2.79449
8804 2 13.0409 3.72598 1.86299
8833 2 12.1094 6.52047 1.86299
84 4 15.8354 3.72598 0.931496
115 4 13.9724 6.52047 0
116 4 13.9724 5.58898 0.931496
118 4 14.9039 6.52047 0.931496
599 4 13.9724 4.65748 1.86299
600 4 13.9724 3.72598 2.79449
601 4 15.8354 4.65748 1.86299
602 4 14.9039 4.65748 2.79449
621 4 13.9724 6.52047 1.86299
623 4 14.9039 5.58898 1.86299
624 4 15.8354 6.52047 1.86299
625 4 14.9039 6.52047 2.79449
8274 2 14.9039 3.72598 0
8275 2 15.8354 4.65748 0
8276 2 14.9039 4.65748 0.931496
8310 2 13.9724 5.58898 0.931496
8312 2 14.9039 5.58898 0
8313 2 15.8354 6.52047 0
8805 2 15.8354 4.65748 1.86299
8806 2 15.8354 3.72598 2.79449
8807 2 14.9039 4.65748 2.79449
8834 2 13.9724 6.52047 1.86299
8835 2 14.9039 5.58898 1.86299
8836 2 15.8354 6.52047 1.86299
8837 2 14.9039 6.52047 2.79449
85 4 17.6984 4.65748 0
86 4 16.7669 4.65748 0.931496
87 4 19.5614 3.72598 0.931496
88 4 18.6299 4.65748 0.931496
119 4 16.7669 5.58898 0
120 4 17.6984 6.52047 0
121 4 17.6984 5.58898 0.931496
122 4 16.7669 6.52047 0.931496
123 4 18.6299 5.58898 0
124 4 19.5614 5.58898 0.931496
603 4 16.7669 3.72598 1.86299
626 4 16.7669 5.58898 1.86299
627 4 17.6984 5.58898 2.79449
628 4 18.6299 5.58898 1.86299
629 4 19.5614 6.52047 1.86299
630 4 18.6299 6.52047 2.79449
8277 2 16.7669 3.72598 0
8278 2 17.6984 4.65748 0
8279 2 17.6984 3.72598 0.931496
8280 2 16.7669 4.65748 0.931496
8281 2 18.6299 3.72598 0
8282 2 19.5614 4.65748 0
8283 2 19.5614 3.72598 0.931496
8314 2 16.7669 5.58898 0
8315 2 17.6984 5.58898 0.931496
8316 2 18.6299 5.58898 0
8808 2 16.7669 4.65748 2.79449
8809 2 19.5614 4.65748 1.86299
8810 2 19.5614 3.72598 2.79449
8811 2 18.6299 4.65748 2.79449
8838 2 17.6984 6.52047 1.86299
8839 2 18.6299 5.58898 1.86299
8840 2 19.5614 6.52047 1.86299
8841 2 19.5614 5.58898 2.79449
8842 2 18.6299 6.52047 2.79449
89 4 21.4244 3.72598 0.931496
90 4 20.4929 4.65748 0.931496
92 4 22.3559 4.65748 0.931496
127 4 22.3559 6.52047 0.931496
604 4 20.4929 3.72598 1.86299
605 4 22.3559 4.65748 2.79449
631 4 21.4244 5.58898 2.79449
632 4 20.4929 6.52047 2.79449
633 4 22.3559 5.58898 1.86299
8284 2 21.4244 4.65748 0
8285 2 22.3559 3.72598 0
8317 2 20.4929 5.58898 0
8318 2 20.4929 6.52047 0.931496
8812 2 20.4929 3.72598 1.86299
8813 2 21.4244 4.65748 1.86299
8814 2 21.4244 3.72598 2.79449
8815 2 20.4929 4.65748 2.79449
8816 2 22.3559 3.72598 1.86299
8819 2 22.3559 4.65748 2.79449
8843 2 21.4244 6.52047 1.86299
8844 2 20.4929 6.52047 2.79449
8845 2 22.3559 6.52047 2.79449
91 4 23.2874 4.65748 0
93 4 24.2189 4.65748 0.931496
94 4 26.0819 3.72598 0
125 4 23.2874 6.52047 0
126 4 23.2874 5.58898 0.931496
128 4 24.2189 5.58898 0
129 4 25.1504 5.58898 0.931496
130 4 26.0819 5.58898 0
606 4 25.1504 3.72598 2.79449
607 4 24.2189 4.65748 2.79449
608 4 26.0819 4.65748 2.79449
634 4 24.2189 6.52047 2.79449
636 4 26.0819 6.52047 2.79449
8286 2 25.1504 4.65748 0
8287 2 25.1504 3.72598 0.931496
8288 2 24.2189 4.65748 0.931496
8289 2 26.0819 3.72598 0
8291 2 26.0819 4.65748 0.931496
8319 2 25.1504 5.58898 0.931496
8320 2 24.2189 6.52047 0.931496
8321 2 26.0819 5.58898 0
8322 2 26.0819 6.52047 0.931496
8817 2 23.2874 4.65748 1.86299
8818 2 23.2874 3.72598 2.79449
8820 2 25.1504 3.72598 2.79449
8821 2 26.0819 4.65748 2.79449
8846 2 24.2189 6.52047 2.79449
8847 2 26.0819 5.58898 1.86299
8850 2 26.0819 6.52047 2.79449
95 4 27.9449 3.72598 0
96 4 28.8764 4.65748 0
97 4 27.9449 4.65748 0.931496
131 4 28.8764 6.52047 0
609 4 27.9449 3.72598 1.86299
610 4 28.8764 4.65748 1.86299
635 4 27.0134 6.52047 1.86299
637 4 27.9449 5.58898 1.86299
638 4 28.8764 5.58898 2.79449
639 4 27.9449 6.52047 2.79449
8290 2 27.0134 4.65748 0
8292 2 27.9449 3.72598 0
8293 2 28.8764 4.65748 0
8294 2 27.9449 4.65748 0.931496
8323 2 27.9449 5.58898 0
8324 2 28.8764 6.52047 0
8325 2 27.9449 6.52047 0.931496
8822 2 28.8764 4.65748 1.86299
8823 2 28.8764 3.72598 2.79449
8848 2 27.0134 6.52047 1.86299
8849 2 27.0134 5.58898 2.79449
8851 2 28.8764 6.52047 1.86299
132 4 0.931496 8.38346 0
133 4 2.79449 8.38346 0
160 4 0 9.31496 0
162 4 0.931496 9.31496 0.931496
164 4 1.86299 9.31496 0
165 4 2.79449 9.31496 0.931496
640 4 0.931496 8.38346 1.86299
641 4 0.931496 7.45197 2.79449
642 4 0 8.38346 2.79449
643 4 2.79449 7.45197 2.79449
672 4 0 9.31496 1.86299
673 4 0.931496 9.31496 2.79449
675 4 1.86299 9.31496 1.86299
677 4 2.79449 9.31496 2.79449
8326 2 0.931496 8.38346 0
8327 2 0.931496 7.45197 0.931496
8328 2 0 8.38346 0.931496
8329 2 1.86299 7.45197 0
8330 2 2.79449 8.38346 0
8331 2 2.79449 7.45197 0.931496
8332 2 1.86299 8.38346 0.931496
8366 2 0 9.31496 0
8368 2 0.931496 9.31496 0.931496
8370 2 1.86299 9.31496 0
8372 2 2.79449 9.31496 0.931496
8852 2 0 7.45197 1.86299
8853 2 0.931496 8.38346 1.86299
8854 2 0.931496 7.45197 2.79449
8855 2 0 8.38346 2.79449
8856 2 1.86299 7.45197 1.86299
8857 2 2.79449 8.38346 1.86299
8858 2 2.79449 7.45197 2.79449
8859 2 1.86299 8.38346 2.79449
8880 2 0 9.31496 1.86299
8881 2 0.931496 9.31496 2.79449
8883 2 1.86299 9.31496 1.86299
8885 2 2.79449 9.31496 2.79449
134 4 4.65748 7.45197 0.931496
135 4 5.58898 8.38346 0.931496
167 4 4.65748 9.31496 0.931496
169 4 6.52047 9.31496 0.931496
644 4 6.52047 7.45197 2.79449
645 4 5.58898 8.38346 2.79449
679 4 3.72598 9.31496 1.86299
681 4 4.65748 9.31496 2.79449
682 4 5.58898 9.31496 1.86299
8333 2 3.72598 7.45197 0
8334 2 4.65748 8.38346 0
8335 2 3.72598 8.38346 0.931496
8336 2 6.52047 8.38346 0
8374 2 3.72598 9.31496 0
8377 2 6.52047 9.31496 0.931496
8860 2 4.65748 8.38346 1.86299
8861 2 3.72598 8.38346 2.79449
8862 2 5.58898 8.38346 2.79449
8886 2 3.72598 9.31496 1.86299
136 4 7.45197 8.38346 0.931496
137 4 9.31496 7.45197 0
171 4 7.45197 9.31496 0
173 4 8.38346 9.31496 0.931496
175 4 9.31496 9.31496 0
646 4 8.38346 7.45197 2.79449
647 4 7.45197 8.38346 2.79449
649 4 9.31496 8.38346 2.79449
685 4 7.45197 9.31496 1.86299
687 4 8.38346 9.31496 2.79449
688 4 9.31496 9.31496 1.86299
8337 2 8.38346 8.38346 0
8338 2 8.38346 7.45197 0.931496
8339 2 7.45197 8.38346 0.931496
8340 2 9.31496 7.45197 0
8342 2 9.31496 8.38346 0.931496
8378 2 7.45197 9.31496 0
8380 2 8.38346 9.31496 0.931496
8863 2 8.38346 8.38346 1.86299
8864 2 9.31496 7.45197 1.86299
8890 2 7.45197 9.31496 1.86299
138 4 10.2465 8.38346 0
139 4 11.178 7.45197 0
140 4 12.1094 8.38346 0
142 4 13.0409 8.38346 0.931496
177 4 11.178 9.31496 0
648 4 10.2465 7.45197 2.79449
650 4 12.1094 7.45197 2.79449
651 4 11.178 8.38346 2.79449
653 4 13.0409 8.38346 2.79449
690 4 10.2465 9.31496 2.79449
692 4 12.1094 9.31496 2.79449
8341 2 10.2465 7.45197 0.931496
8343 2 12.1094 8.38346 0
8344 2 12.1094 7.45197 0.931496
8345 2 11.178 8.38346 0.931496
8346 2 13.0409 8.38346 0.931496
8383 2 10.2465 9.31496 0.931496
8385 2 12.1094 9.31496 0.931496
8386 2 13.0409 9.31496 0
8865 2 10.2465 7.45197 2.79449
8866 2 11.178 7.45197 1.86299
8867 2 12.1094 8.38346 1.86299
8868 2 13.0409 7.45197 1.86299
8893 2 10.2465 9.31496 2.79449
8894 2 11.178 9.31496 1.86299
8897 2 13.0409 9.31496 1.86299
141 4 13.9724 8.38346 0
143 4 15.8354 7.45197 0.931496
144 4 14.9039 8.38346 0.931496
652 4 13.9724 8.38346 1.86299
654 4 14.9039 7.45197 1.86299
655 4 15.8354 8.38346 1.86299
656 4 15.8354 7.45197 2.79449
694 4 15.8354 9.31496 2.79449
8347 2 15.8354 8.38346 0
8348 2 14.9039 8.38346 0.931496
8869 2 13.9724 8.38346 1.86299
8870 2 15.8354 8.38346 1.86299
145 4 17.6984 8.38346 0
146 4 17.6984 7.45197 0.931496
147 4 16.7669 8.38346 0.931496
148 4 18.6299 7.45197 0
149 4 19.5614 8.38346 0
150 4 18.6299 8.38346 0.931496
180 4 16.7669 9.31496 0
183 4 18.6299 9.31496 0
657 4 16.7669 7.45197 1.86299
658 4 17.6984 8.38346 1.86299
659 4 19.5614 8.38346 1.86299
696 4 17.6984 9.31496 2.79449
8349 2 17.6984 7.45197 0.931496
8350 2 16.7669 8.38346 0.931496
8351 2 19.5614 8.38346 0
8352 2 18.6299 8.38346 0.931496
8390 2 17.6984 9.31496 0.931496
8391 2 18.6299 9.31496 0
8393 2 19.5614 9.31496 0.931496
8871 2 17.6984 8.38346 1.86299
8872 2 17.6984 7.45197 2.79449
8873 2 16.7669 8.38346 2.79449
8874 2 19.5614 8.38346 1.86299
8875 2 19.5614 7.45197 2.79449
8876 2 18.6299 8.38346 2.79449
8900 2 17.6984 9.31496 2.79449
8902 2 18.6299 9.31496 1.86299
151 4 21.4244 8.38346 0
152 4 22.3559 7.45197 0
154 4 22.3559 8.38346 0.931496
184 4 20.4929 9.31496 0
660 4 20.4929 7.45197 1.86299
661 4 21.4244 8.38346 1.86299
662 4 22.3559 7.45197 1.86299
698 4 20.4929 9.31496 1.86299
701 4 22.3559 9.31496 1.86299
8353 2 20.4929 7.45197 0
8354 2 21.4244 7.45197 0.931496
8355 2 20.4929 8.38346 0.931496
8356 2 22.3559 7.45197 0
8358 2 22.3559 8.38346 0.931496
8395 2 22.3559 9.31496 0
8905 2 21.4244 9.31496 2.79449
8906 2 22.3559 9.31496 1.86299
153 4 23.2874 8.38346 0
155 4 24.2189 7.45197 0
156 4 25.1504 7.45197 0.931496
157 4 24.2189 8.38346 0.931496
158 4 26.0819 7.45197 0
186 4 23.2874 9.31496 0.931496
188 4 25.1504 9.31496 0.931496
663 4 23.2874 8.38346 1.86299
664 4 24.2189 7.45197 1.86299
665 4 25.1504 7.45197 2.79449
666 4 24.2189 8.38346 2.79449
667 4 26.0819 7.45197 1.86299
702 4 24.2189 9.31496 1.86299
704 4 25.1504 9.31496 2.79449
705 4 26.0819 9.31496 1.86299
8357 2 23.2874 7.45197 0.931496
8359 2 25.1504 7.45197 0.931496
8360 2 24.2189 8.38346 0.931496
8396 2 23.2874 9.31496 0.931496
8398 2 24.2189 9.31496 0
8399 2 25.1504 9.31496 0.931496
8401 2 26.0819 9.31496 0
8877 2 23.2874 7.45197 2.79449
8878 2 24.2189 7.45197 1.86299
8908 2 23.2874 9.31496 2.79449
8909 2 24.2189 9.31496 1.86299
8911 2 25.1504 9.31496 2.79449
159 4 27.9449 8.38346 0.931496
192 4 28.8764 9.31496 0.931496
668 4 27.0134 8.38346 1.86299
669 4 27.0134 7.45197 2.79449
670 4 28.8764 7.45197 2.79449
671 4 27.9449 8.38346 2.79449
707 4 27.0134 9.31496 2.79449
709 4 27.9449 9.31496 1.86299
8361 2 27.0134 8.38346 0
8362 2 27.9449 7.45197 0
8363 2 28.8764 8.38346 0
8364 2 28.8764 7.45197 0.931496
8365 2 27.9449 8.38346 0.931496
8879 2 28.8764 7.45197 2.79449
8914 2 27.0134 9.31496 2.79449
8916 2 27.9449 9.31496 1.86299
8917 2 28.8764 9.31496 2.79449
161 4 0.931496 10.2465 0
163 4 0 10.2465 0.931496
193 4 0.931496 12.1094 0
194 4 0.931496 11.178 0.931496
195 4 0 12.1094 0.931496
196 4 1.86299 11.178 0
197 4 2.79449 12.1094 0
230 4 0 13.0409 0
232 4 0.931496 13.0409 0.931496
235 4 2.79449 13.0409 0.931496
674 4 0 10.2465 2.79449
676 4 2.79449 10.2465 1.86299
678 4 1.86299 10.2465 2.79449
711 4 0 11.178 1.86299
712 4 0.931496 12.1094 1.86299
713 4 1.86299 11.178 1.86299
714 4 1.86299 12.1094 2.79449
747 4 0 13.0409 1.86299
749 4 0.931496 13.0409 2.79449
750 4 1.86299 13.0409 1.86299
751 4 2.79449 13.0409 2.79449
8367 2 0.931496 10.2465 0
8369 2 0 10.2465 0.931496
8371 2 2.79449 10.2465 0
8373 2 1.86299 10.2465 0.931496
8404 2 1.86299 11.178 0
8405 2 1.86299 12.1094 0.931496
8431 2 0 13.0409 0
8433 2 0.931496 13.0409 0.931496
8436 2 2.79449 13.0409 0.931496
8882 2 0 10.2465 2.79449
8884 2 2.79449 10.2465 1.86299
8918 2 0 11.178 1.86299
8919 2 0.931496 12.1094 1.86299
8920 2 1.86299 11.178 1.86299
8921 2 2.79449 12.1094 1.86299
8922 2 2.79449 11.178 2.79449
8952 2 0 13.0409 1.86299
8955 2 2.79449 13.0409 2.79449
166 4 4.65748 10.2465 0
168 4 3.72598 10.2465 0.931496
170 4 5.58898 10.2465 0.931496
198 4 3.72598 11.178 0
199 4 4.65748 12.1094 0
200 4 4.65748 11.178 0.931496
201 4 3.72598 12.1094 0.931496
202 4 5.58898 11.178 0
203 4 6.52047 12.1094 0
204 4 6.52047 11.178 0.931496
237 4 4.65748 13.0409 0.931496
239 4 5.58898 13.0409 0
240 4 6.52047 13.0409 0.931496
680 4 4.65748 10.2465 1.86299
683 4 6.52047 10.2465 1.86299
684 4 5.58898 10.2465 2.79449
715 4 4.65748 12.1094 1.86299
716 4 4.65748 11.178 2.79449
717 4 3.72598 12.1094 2.79449
718 4 5.58898 11.178 1.86299
719 4 6.52047 12.1094 1.86299
720 4 5.58898 12.1094 2.79449
754 4 6.52047 13.0409 2.79449
8375 2 4.65748 10.2465 0
8376 2 6.52047 10.2465 0
8406 2 3.72598 11.178 0
8407 2 4.65748 12.1094 0
8408 2 5.58898 11.178 0
8409 2 5.58898 12.1094 0.931496
8437 2 3.72598 13.0409 0
8439 2 4.65748 13.0409 0.931496
8887 2 4.65748 10.2465 1.86299
8888 2 6.52047 10.2465 1.86299
8889 2 5.58898 10.2465 2.79449
8923 2 3.72598 11.178 1.86299
8924 2 4.65748 12.1094 1.86299
8925 2 4.65748 11.178 2.79449
8926 2 5.58898 11.178 1.86299
8927 2 6.52047 12.1094 1.86299
8956 2 3.72598 13.0409 1.86299
8957 2 4.65748 13.0409 2.79449
8959 2 6.52047 13.0409 2.79449
172 4 8.38346 10.2465 0
174 4 7.45197 10.2465 0.931496
176 4 9.31496 10.2465 0.931496
205 4 8.38346 12.1094 0
206 4 8.38346 11.178 0.931496
208 4 9.31496 12.1094 0.931496
243 4 8.38346 13.0409 0.931496
686 4 8.38346 10.2465 1.86299
721 4 7.45197 11.178 1.86299
722 4 7.45197 12.1094 2.79449
755 4 7.45197 13.0409 1.86299
8379 2 8.38346 10.2465 0
8381 2 7.45197 10.2465 0.931496
8410 2 7.45197 11.178 0
8411 2 8.38346 12.1094 0
8412 2 7.45197 12.1094 0.931496
8413 2 9.31496 11.178 0
8441 2 8.38346 13.0409 0.931496
8891 2 8.38346 10.2465 1.86299
8928 2 7.45197 11.178 1.86299
8929 2 8.38346 11.178 2.79449
8962 2 9.31496 13.0409 1.86299
178 4 12.1094 10.2465 0
207 4 10.2465 12.1094 0
209 4 11.178 11.178 0
210 4 12.1094 12.1094 0
245 4 11.178 13.0409 0
246 4 12.1094 13.0409 0.931496
689 4 10.2465 10.2465 1.86299
691 4 12.1094 10.2465 1.86299
693 4 11.178 10.2465 2.79449
723 4 10.2465 12.1094 1.86299
724 4 10.2465 11.178 2.79449
725 4 12.1094 11.178 2.79449
726 4 11.178 12.1094 2.79449
759 4 11.178 13.0409 1.86299
8382 2 10.2465 10.2465 0
8384 2 12.1094 10.2465 0
8414 2 10.2465 11.178 0.931496
8415 2 12.1094 12.1094 0
8416 2 12.1094 11.178 0.931496
8417 2 13.0409 11.178 0
8443 2 10.2465 13.0409 0.931496
8445 2 12.1094 13.0409 0.931496
8446 2 13.0409 13.0409 0
8892 2 10.2465 10.2465 1.86299
8895 2 12.1094 10.2465 1.86299
8896 2 11.178 10.2465 2.79449
8930 2 10.2465 12.1094 1.86299
8931 2 10.2465 11.178 2.79449
8932 2 11.178 12.1094 2.79449
8933 2 13.0409 11.178 1.86299
8935 2 13.0409 12.1094 2.79449
8965 2 13.0409 13.0409 1.86299
179 4 13.9724 10.2465 0
211 4 13.9724 12.1094 0
212 4 14.9039 11.178 0
213 4 15.8354 12.1094 0
214 4 15.8354 11.178 0.931496
215 4 14.9039 12.1094 0.931496
248 4 13.9724 13.0409 0.931496
695 4 14.9039 10.2465 2.79449
727 4 13.9724 12.1094 1.86299
728 4 14.9039 11.178 1.86299
729 4 15.8354 12.1094 1.86299
730 4 15.8354 11.178 2.79449
761 4 13.9724 13.0409 2.79449
763 4 15.8354 13.0409 2.79449
8387 2 13.9724 10.2465 0
8388 2 14.9039 10.2465 0.931496
8418 2 13.9724 11.178 0.931496
8419 2 14.9039 11.178 0
8420 2 15.8354 11.178 0.931496
8447 2 14.9039 13.0409 0
8898 2 15.8354 10.2465 1.86299
8934 2 13.9724 12.1094 1.86299
8936 2 15.8354 12.1094 1.86299
8966 2 14.9039 13.0409 1.86299
8967 2 15.8354 13.0409 2.79449
181 4 17.6984 10.2465 0
182 4 16.7669 10.2465 0.931496
216 4 17.6984 12.1094 0
217 4 17.6984 11.178 0.931496
218 4 18.6299 11.178 0
219 4 19.5614 11.178 0.931496
251 4 16.7669 13.0409 0
252 4 18.6299 13.0409 0
253 4 19.5614 13.0409 0.931496
697 4 18.6299 10.2465 2.79449
731 4 16.7669 11.178 1.86299
732 4 17.6984 11.178 2.79449
733 4 16.7669 12.1094 2.79449
734 4 18.6299 11.178 1.86299
735 4 19.5614 12.1094 1.86299
765 4 16.7669 13.0409 1.86299
766 4 17.6984 13.0409 2.79449
8389 2 17.6984 10.2465 0
8392 2 19.5614 10.2465 0
8421 2 16.7669 11.178 0
8422 2 17.6984 12.1094 0
8423 2 17.6984 11.178 0.931496
8424 2 18.6299 11.178 0
8425 2 19.5614 12.1094 0
8449 2 16.7669 13.0409 0
8450 2 17.6984 13.0409 0.931496
8451 2 18.6299 13.0409 0
8453 2 19.5614 13.0409 0.931496
8899 2 17.6984 10.2465 1.86299
8901 2 16.7669 10.2465 2.79449
8903 2 19.5614 10.2465 1.86299
8904 2 18.6299 10.2465 2.79449
8937 2 16.7669 11.178 1.86299
8938 2 17.6984 12.1094 1.86299
8939 2 17.6984 11.178 2.79449
8940 2 16.7669 12.1094 2.79449
8941 2 19.5614 12.1094 1.86299
8942 2 19.5614 11.178 2.79449
8968 2 16.7669 13.0409 1.86299
8972 2 19.5614 13.0409 2.79449
185 4 20.4929 10.2465 0.931496
220 4 20.4929 11.178 0
221 4 21.4244 12.1094 0
699 4 21.4244 10.2465 1.86299
700 4 20.4929 10.2465 2.79449
736 4 21.4244 12.1094 1.86299
737 4 21.4244 11.178 2.79449
738 4 20.4929 12.1094 2.79449
739 4 22.3559 11.178 1.86299
769 4 20.4929 13.0409 1.86299
8394 2 20.4929 10.2465 0.931496
8397 2 22.3559 10.2465 0.931496
8426 2 21.4244 12.1094 0
8427 2 20.4929 12.1094 0.931496
8428 2 22.3559 12.1094 0.931496
8454 2 20.4929 13.0409 0
8456 2 22.3559 13.0409 0
8943 2 20.4929 11.178 1.86299
8946 2 22.3559 12.1094 2.79449
187 4 25.1504 10.2465 0
189 4 24.2189 10.2465 0.931496
222 4 23.2874 12.1094 0
223 4 23.2874 11.178 0.931496
224 4 24.2189 11.178 0
225 4 24.2189 12.1094 0.931496
226 4 26.0819 11.178 0
228 4 26.0819 12.1094 0.931496
256 4 23.2874 13.0409 0.931496
703 4 25.1504 10.2465 1.86299
708 4 26.0819 10.2465 2.79449
740 4 23.2874 12.1094 1.86299
741 4 25.1504 11.178 2.79449
742 4 24.2189 12.1094 2.79449
770 4 23.2874 13.0409 2.79449
772 4 24.2189 13.0409 1.86299
8400 2 24.2189 10.2465 0.931496
8429 2 25.1504 11.178 0.931496
8907 2 23.2874 10.2465 1.86299
8910 2 25.1504 10.2465 1.86299
8912 2 24.2189 10.2465 2.79449
8915 2 26.0819 10.2465 2.79449
8944 2 23.2874 12.1094 1.86299
8945 2 23.2874 11.178 2.79449
8947 2 24.2189 11.178 1.86299
8948 2 25.1504 11.178 2.79449
8949 2 26.0819 11.178 1.86299
8950 2 26.0819 12.1094 2.79449
8977 2 25.1504 13.0409 2.79449
190 4 27.0134 10.2465 0
191 4 28.8764 10.2465 0
227 4 27.0134 12.1094 0
229 4 28.8764 12.1094 0
259 4 28.8764 13.0409 0.931496
706 4 27.0134 10.2465 1.86299
710 4 28.8764 10.2465 1.86299
743 4 27.0134 12.1094 1.86299
744 4 27.0134 11.178 2.79449
745 4 28.8764 12.1094 1.86299
746 4 28.8764 11.178 2.79449
775 4 27.0134 13.0409 2.79449
776 4 27.9449 13.0409 1.86299
8402 2 27.0134 10.2465 0
8403 2 28.8764 10.2465 0
8430 2 27.0134 12.1094 0
8913 2 27.0134 10.2465 1.86299
8951 2 28.8764 11.178 2.79449
8978 2 27.0134 13.0409 2.79449
231 4 0.931496 13.9724 0
233 4 0 13.9724 0.931496
234 4 2.79449 13.9724 0
236 4 1.86299 13.9724 0.931496
260 4 0 14.9039 0
261 4 0.931496 15.8354 0
262 4 0 15.8354 0.931496
263 4 1.86299 14.9039 0
264 4 2.79449 15.8354 0
265 4 2.79449 14.9039 0.931496
266 4 1.86299 15.8354 0.931496
748 4 0.931496 13.9724 1.86299
778 4 0 14.9039 1.86299
779 4 0.931496 15.8354 1.86299
780 4 0 15.8354 2.79449
781 4 1.86299 14.9039 1.86299
782 4 1.86299 15.8354 2.79449
8432 2 0.931496 13.9724 0
8434 2 0 13.9724 0.931496
8435 2 2.79449 13.9724 0
8463 2 0.931496 15.8354 0
8464 2 0.931496 14.9039 0.931496
8465 2 0 15.8354 0.931496
8466 2 1.86299 14.9039 0
8953 2 0.931496 13.9724 1.86299
8954 2 2.79449 13.9724 1.86299
8981 2 0 14.9039 1.86299
8982 2 0.931496 14.9039 2.79449
8983 2 0 15.8354 2.79449
8984 2 1.86299 14.9039 1.86299
8985 2 2.79449 15.8354 1.86299
238 4 3.72598 13.9724 0.931496
241 4 5.58898 13.9724 0.931496
267 4 3.72598 14.9039 0
268 4 4.65748 14.9039 0.931496
269 4 5.58898 14.9039 0
270 4 6.52047 15.8354 0
271 4 5.58898 15.8354 0.931496
752 4 4.65748 13.9724 1.86299
753 4 6.52047 13.9724 1.86299
783 4 4.65748 14.9039 2.79449
784 4 5.58898 15.8354 2.79449
8438 2 4.65748 13.9724 0
8440 2 3.72598 13.9724 0.931496
8467 2 3.72598 14.9039 0
8468 2 4.65748 15.8354 0
8469 2 4.65748 14.9039 0.931496
8470 2 5.58898 14.9039 0
8958 2 6.52047 13.9724 1.86299
8960 2 5.58898 13.9724 2.79449
8986 2 3.72598 14.9039 1.86299
8987 2 4.65748 15.8354 1.86299
8988 2 4.65748 14.9039 2.79449
8989 2 3.72598 15.8354 2.79449
8990 2 6.52047 15.8354 1.86299
8991 2 6.52047 14.9039 2.79449
242 4 8.38346 13.9724 0
244 4 7.45197 13.9724 0.931496
272 4 7.45197 15.8354 0.931496
275 4 9.31496 15.8354 0.931496
756 4 8.38346 13.9724 1.86299
757 4 7.45197 13.9724 2.79449
758 4 9.31496 13.9724 2.79449
785 4 7.45197 14.9039 1.86299
786 4 8.38346 15.8354 1.86299
787 4 7.45197 15.8354 2.79449
788 4 9.31496 14.9039 1.86299
8471 2 8.38346 14.9039 0.931496
8472 2 7.45197 15.8354 0.931496
8961 2 7.45197 13.9724 2.79449
8964 2 9.31496 13.9724 2.79449