ITEM: TIMESTEP
0
ITEM: NUMBER OF ATOMS
16384
ITEM: BOX BOUNDS pp pp pp
0.0000000000000000e+00 5.0921825871798703e+01
0.0000000000000000e+00 5.0921825871798703e+01
0.0000000000000000e+00 5.0921825871798703e+01
ITEM: ATOMS id type x y z
1 4 0 0 0
2 4 1.60394 1.60394 0
5 4 3.20787 1.60394 1.60394
32 4 1.60394 3.20787 1.60394
8193 2 0 0 0
8194 2 1.60394 1.60394 0
8195 2 1.60394 0 1.60394
8196 2 0 1.60394 1.60394
8226 2 0 3.20787 0
8730 2 1.60394 1.60394 3.20787
8760 2 3.20787 3.20787 3.20787
3 4 4.81181 1.60394 0
4 4 4.81181 0 1.60394
7 4 6.41575 1.60394 1.60394
34 4 4.81181 3.20787 1.60394
36 4 6.41575 3.20787 0
558 4 6.41575 3.20787 3.20787
8197 2 4.81181 0 1.60394
8198 2 6.41575 0 0
8228 2 4.81181 3.20787 1.60394
8229 2 6.41575 3.20787 0
8732 2 4.81181 1.60394 3.20787
8735 2 6.41575 0 3.20787
6 4 8.01969 0 1.60394
10 4 9.62362 1.60394 1.60394
38 4 8.01969 3.20787 1.60394
561 4 9.62362 3.20787 3.20787
8199 2 8.01969 1.60394 0
8 4 11.2276 1.60394 0
9 4 11.2276 0 1.60394
11 4 12.8315 0 0
12 4 12.8315 1.60394 1.60394
41 4 11.2276 3.20787 1.60394
43 4 12.8315 3.20787 0
525 4 11.2276 1.60394 3.20787
528 4 12.8315 0 3.20787
8200 2 11.2276 1.60394 0
8231 2 12.8315 3.20787 0
8740 2 12.8315 0 3.20787
565 4 16.0394 3.20787 3.20787
8201 2 14.4354 0 1.60394
8203 2 16.0394 1.60394 1.60394
8232 2 14.4354 3.20787 1.60394
13 4 19.2472 0 0
46 4 17.6433 3.20787 1.60394
48 4 19.2472 3.20787 0
568 4 19.2472 3.20787 3.20787
8202 2 17.6433 0 1.60394
8204 2 19.2472 0 0
8206 2 19.2472 1.60394 1.60394
8743 2 19.2472 0 3.20787
8770 2 19.2472 3.20787 3.20787
14 4 22.4551 0 0
16 4 22.4551 1.60394 1.60394
50 4 20.8512 3.20787 1.60394
532 4 20.8512 1.60394 3.20787
534 4 22.4551 0 3.20787
8205 2 20.8512 1.60394 0
8207 2 22.4551 0 0
8235 2 20.8512 3.20787 1.60394
8236 2 22.4551 3.20787 0
8744 2 20.8512 1.60394 3.20787
8746 2 22.4551 0 3.20787
8773 2 22.4551 3.20787 3.20787
15 4 24.0591 0 1.60394
17 4 25.663 0 0
53 4 25.663 3.20787 0
536 4 25.663 0 3.20787
571 4 25.663 3.20787 3.20787
8208 2 24.0591 0 1.60394
8238 2 25.663 3.20787 0
8748 2 25.663 0 3.20787
18 4 27.2669 1.60394 0
19 4 27.2669 0 1.60394
20 4 30.4748 1.60394 0
21 4 30.4748 0 1.60394
55 4 27.2669 3.20787 1.60394
57 4 28.8709 3.20787 0
537 4 27.2669 1.60394 3.20787
575 4 28.8709 3.20787 3.20787
8209 2 27.2669 1.60394 0
8210 2 30.4748 1.60394 0
8211 2 30.4748 0 1.60394
8212 2 28.8709 1.60394 1.60394
8240 2 30.4748 3.20787 1.60394
8750 2 30.4748 1.60394 3.20787
8778 2 28.8709 3.20787 3.20787
22 4 33.6827 1.60394 0
60 4 33.6827 3.20787 1.60394
540 4 32.0787 0 3.20787
8213 2 32.0787 0 0
8214 2 33.6827 0 1.60394
8215 2 32.0787 1.60394 1.60394
8242 2 33.6827 3.20787 1.60394
23 4 35.2866 0 0
24 4 36.8906 1.60394 0
62 4 36.8906 3.20787 1.60394
541 4 35.2866 0 3.20787
542 4 36.8906 1.60394 3.20787
8216 2 36.8906 1.60394 0
8217 2 35.2866 1.60394 1.60394
8243 2 35.2866 3.20787 0
8754 2 36.8906 1.60394 3.20787
25 4 40.0984 1.60394 0
63 4 38.4945 3.20787 0
65 4 40.0984 3.20787 1.60394
543 4 40.0984 1.60394 3.20787
8218 2 38.4945 0 0
8219 2 40.0984 1.60394 0
8220 2 38.4945 1.60394 1.60394
8245 2 38.4945 3.20787 0
8246 2 40.0984 3.20787 1.60394
8783 2 38.4945 3.20787 3.20787
26 4 43.3063 1.60394 0
67 4 43.3063 3.20787 1.60394
546 4 41.7024 0 3.20787
547 4 43.3063 1.60394 3.20787
583 4 41.7024 3.20787 3.20787
8221 2 41.7024 0 0
8222 2 43.3063 0 1.60394
8223 2 41.7024 1.60394 1.60394
8247 2 41.7024 3.20787 0
8249 2 43.3063 3.20787 1.60394
8757 2 41.7024 0 3.20787
27 4 44.9102 0 0
28 4 46.5142 0 1.60394
29 4 44.9102 1.60394 1.60394
68 4 44.9102 3.20787 0
8224 2 46.5142 0 1.60394
8251 2 44.9102 3.20787 0
8787 2 44.9102 3.20787 3.20787
30 4 48.1181 0 0
31 4 49.722 1.60394 0
70 4 48.1181 3.20787 0
551 4 48.1181 0 3.20787
8225 2 48.1181 0 0
8252 2 48.1181 3.20787 0
8254 2 49.722 3.20787 1.60394
8759 2 49.722 1.60394 3.20787
33 4 0 4.81181 1.60394
35 4 3.20787 4.81181 1.60394
73 4 1.60394 6.41575 1.60394
553 4 1.60394 4.81181 3.20787
587 4 0 6.41575 3.20787
8227 2 1.60394 4.81181 0
8256 2 1.60394 6.41575 1.60394
8258 2 3.20787 6.41575 0
8790 2 0 6.41575 3.20787
8793 2 3.20787 6.41575 3.20787
39 4 6.41575 4.81181 1.60394
74 4 4.81181 6.41575 1.60394
555 4 4.81181 4.81181 3.20787
8260 2 6.41575 6.41575 0
8761 2 4.81181 4.81181 3.20787
37 4 8.01969 4.81181 0
42 4 9.62362 4.81181 1.60394
76 4 9.62362 6.41575 0
8230 2 8.01969 4.81181 0
8261 2 8.01969 6.41575 1.60394
8263 2 9.62362 6.41575 0
8762 2 8.01969 4.81181 3.20787
40 4 11.2276 4.81181 0
45 4 12.8315 4.81181 1.60394
77 4 11.2276 6.41575 1.60394
562 4 11.2276 4.81181 3.20787
592 4 12.8315 6.41575 3.20787
8265 2 12.8315 6.41575 0
44 4 14.4354 4.81181 0
47 4 16.0394 4.81181 1.60394
78 4 14.4354 6.41575 1.60394
563 4 14.4354 4.81181 3.20787
594 4 16.0394 6.41575 3.20787
8267 2 14.4354 6.41575 1.60394
8268 2 16.0394 6.41575 0
8765 2 14.4354 4.81181 3.20787
51 4 19.2472 4.81181 1.60394
80 4 17.6433 6.41575 1.60394
81 4 19.2472 6.41575 0
566 4 17.6433 4.81181 3.20787
596 4 19.2472 6.41575 3.20787
8233 2 17.6433 4.81181 0
8270 2 17.6433 6.41575 1.60394
8768 2 17.6433 4.81181 3.20787
49 4 20.8512 4.81181 0
52 4 22.4551 4.81181 1.60394
82 4 20.8512 6.41575 1.60394
569 4 20.8512 4.81181 3.20787
598 4 22.4551 6.41575 3.20787
8234 2 20.8512 4.81181 0
8237 2 22.4551 4.81181 1.60394
8771 2 20.8512 4.81181 3.20787
8804 2 22.4551 6.41575 3.20787
56 4 25.663 4.81181 1.60394
8274 2 25.663 6.41575 0
54 4 27.2669 4.81181 0
58 4 30.4748 4.81181 0
59 4 28.8709 4.81181 1.60394
84 4 27.2669 6.41575 1.60394
572 4 27.2669 4.81181 3.20787
576 4 30.4748 4.81181 3.20787
603 4 28.8709 6.41575 3.20787
8239 2 27.2669 4.81181 0
8241 2 28.8709 4.81181 1.60394
8277 2 28.8709 6.41575 0
8279 2 30.4748 6.41575 1.60394
8776 2 27.2669 4.81181 3.20787
61 4 32.0787 4.81181 1.60394
87 4 33.6827 6.41575 1.60394
8281 2 32.0787 6.41575 0
8283 2 33.6827 6.41575 1.60394
89 4 36.8906 6.41575 1.60394
579 4 36.8906 4.81181 3.20787
604 4 35.2866 6.41575 3.20787
8244 2 36.8906 4.81181 0
8812 2 35.2866 6.41575 3.20787
64 4 40.0984 4.81181 0
582 4 40.0984 4.81181 3.20787
8285 2 38.4945 6.41575 0
8784 2 40.0984 4.81181 3.20787
8816 2 38.4945 6.41575 3.20787
66 4 43.3063 4.81181 0
584 4 43.3063 4.81181 3.20787
8248 2 43.3063 4.81181 0
8250 2 41.7024 4.81181 1.60394
8287 2 43.3063 6.41575 1.60394
69 4 46.5142 4.81181 0
94 4 44.9102 6.41575 0
8289 2 44.9102 6.41575 0
71 4 49.722 4.81181 0
72 4 48.1181 4.81181 1.60394
95 4 48.1181 6.41575 0
586 4 49.722 4.81181 3.20787
609 4 48.1181 6.41575 3.20787
8253 2 49.722 4.81181 0
8255 2 48.1181 4.81181 1.60394
8292 2 48.1181 6.41575 0
8789 2 49.722 4.81181 3.20787
75 4 3.20787 8.01969 1.60394
99 4 1.60394 9.62362 1.60394
101 4 3.20787 9.62362 0
588 4 1.60394 8.01969 3.20787
8257 2 0 8.01969 1.60394
8295 2 0 9.62362 0
8296 2 3.20787 9.62362 0
8824 2 0 9.62362 3.20787
8826 2 3.20787 9.62362 3.20787
103 4 4.81181 9.62362 1.60394
104 4 6.41575 9.62362 0
590 4 4.81181 8.01969 3.20787
613 4 6.41575 9.62362 3.20787
8259 2 4.81181 8.01969 0
8262 2 6.41575 8.01969 1.60394
8298 2 4.81181 9.62362 1.60394
8299 2 6.41575 9.62362 0
8794 2 4.81181 8.01969 3.20787
8827 2 6.41575 9.62362 3.20787
105 4 8.01969 9.62362 1.60394
8264 2 9.62362 8.01969 1.60394
8301 2 9.62362 9.62362 0
107 4 11.2276 9.62362 1.60394
8798 2 11.2276 8.01969 3.20787
8831 2 12.8315 9.62362 3.20787
108 4 16.0394 9.62362 0
618 4 16.0394 9.62362 3.20787
8266 2 14.4354 8.01969 0
8305 2 14.4354 9.62362 1.60394
79 4 17.6433 8.01969 0
110 4 17.6433 9.62362 1.60394
111 4 19.2472 9.62362 0
595 4 17.6433 8.01969 3.20787
8269 2 17.6433 8.01969 0
8272 2 19.2472 8.01969 1.60394
8801 2 17.6433 8.01969 3.20787
83 4 22.4551 8.01969 1.60394
112 4 20.8512 9.62362 1.60394
114 4 22.4551 9.62362 0
8271 2 20.8512 8.01969 0
8273 2 22.4551 8.01969 1.60394
8309 2 22.4551 9.62362 0
116 4 24.0591 9.62362 1.60394
599 4 24.0591 8.01969 3.20787
623 4 25.663 9.62362 3.20787
8276 2 25.663 8.01969 1.60394
8310 2 24.0591 9.62362 1.60394
8312 2 25.663 9.62362 0
8835 2 25.663 9.62362 3.20787
85 4 30.4748 8.01969 0
86 4 28.8709 8.01969 1.60394
119 4 28.8709 9.62362 0
121 4 30.4748 9.62362 1.60394
601 4 27.2669 8.01969 3.20787
626 4 28.8709 9.62362 3.20787
8275 2 27.2669 8.01969 0
8278 2 30.4748 8.01969 0
8280 2 28.8709 8.01969 1.60394
8314 2 28.8709 9.62362 0
8315 2 30.4748 9.62362 1.60394
8805 2 27.2669 8.01969 3.20787
88 4 32.0787 8.01969 1.60394
123 4 32.0787 9.62362 0
124 4 33.6827 9.62362 1.60394
628 4 32.0787 9.62362 3.20787
8282 2 33.6827 8.01969 0
8316 2 32.0787 9.62362 0
8809 2 33.6827 8.01969 3.20787
8839 2 32.0787 9.62362 3.20787
90 4 35.2866 8.01969 1.60394
8284 2 36.8906 8.01969 0
8317 2 35.2866 9.62362 0
8813 2 36.8906 8.01969 3.20787
91 4 40.0984 8.01969 0
92 4 38.4945 8.01969 1.60394
126 4 40.0984 9.62362 1.60394
633 4 38.4945 9.62362 3.20787
8817 2 40.0984 8.01969 3.20787
93 4 41.7024 8.01969 1.60394
128 4 41.7024 9.62362 0
129 4 43.3063 9.62362 1.60394
8286 2 43.3063 8.01969 0
8288 2 41.7024 8.01969 1.60394
8319 2 43.3063 9.62362 1.60394
130 4 44.9102 9.62362 0
8290 2 46.5142 8.01969 0
8291 2 44.9102 8.01969 1.60394
8321 2 44.9102 9.62362 0
8847 2 44.9102 9.62362 3.20787
96 4 49.722 8.01969 0
97 4 48.1181 8.01969 1.60394
610 4 49.722 8.01969 3.20787
637 4 48.1181 9.62362 3.20787
8293 2 49.722 8.01969 0
8294 2 48.1181 8.01969 1.60394
8323 2 48.1181 9.62362 0
8822 2 49.722 8.01969 3.20787
98 4 1.60394 11.2276 0
100 4 0 11.2276 1.60394
8327 2 1.60394 12.8315 1.60394
8329 2 3.20787 12.8315 0
8825 2 1.60394 11.2276 3.20787
8852 2 0 12.8315 3.20787
8856 2 3.20787 12.8315 3.20787
102 4 4.81181 11.2276 0
612 4 4.81181 11.2276 3.20787
8297 2 4.81181 11.2276 0
8331 2 4.81181 12.8315 1.60394
8333 2 6.41575 12.8315 0
134 4 8.01969 12.8315 1.60394
614 4 8.01969 11.2276 3.20787
8300 2 8.01969 11.2276 0
8303 2 9.62362 11.2276 1.60394
8828 2 8.01969 11.2276 3.20787
106 4 11.2276 11.2276 0
616 4 11.2276 11.2276 3.20787
8302 2 11.2276 11.2276 0
8829 2 11.2276 11.2276 3.20787
137 4 16.0394 12.8315 0
8304 2 14.4354 11.2276 0
8338 2 14.4354 12.8315 1.60394
8340 2 16.0394 12.8315 0
8864 2 16.0394 12.8315 3.20787
109 4 17.6433 11.2276 0
113 4 19.2472 11.2276 1.60394
139 4 19.2472 12.8315 0
8306 2 17.6433 11.2276 0
8308 2 19.2472 11.2276 1.60394
8341 2 17.6433 12.8315 1.60394
8866 2 19.2472 12.8315 3.20787
117 4 22.4551 11.2276 1.60394
620 4 20.8512 11.2276 3.20787
8307 2 20.8512 11.2276 0
8311 2 22.4551 11.2276 1.60394
8344 2 20.8512 12.8315 1.60394
8833 2 20.8512 11.2276 3.20787
8868 2 22.4551 12.8315 3.20787
115 4 24.0591 11.2276 0
118 4 25.663 11.2276 1.60394
621 4 24.0591 11.2276 3.20787
654 4 25.663 12.8315 3.20787
8834 2 24.0591 11.2276 3.20787
120 4 30.4748 11.2276 0
122 4 28.8709 11.2276 1.60394
143 4 27.2669 12.8315 1.60394
146 4 30.4748 12.8315 1.60394
624 4 27.2669 11.2276 3.20787
657 4 28.8709 12.8315 3.20787
8313 2 27.2669 11.2276 0
8349 2 30.4748 12.8315 1.60394
8836 2 27.2669 11.2276 3.20787
8838 2 30.4748 11.2276 3.20787
148 4 32.0787 12.8315 0
629 4 33.6827 11.2276 3.20787
8840 2 33.6827 11.2276 3.20787
660 4 35.2866 12.8315 3.20787
8318 2 35.2866 11.2276 1.60394
8353 2 35.2866 12.8315 0
8354 2 36.8906 12.8315 1.60394
8843 2 36.8906 11.2276 3.20787
125 4 40.0984 11.2276 0
127 4 38.4945 11.2276 1.60394
152 4 38.4945 12.8315 0
662 4 38.4945 12.8315 3.20787
8356 2 38.4945 12.8315 0
8357 2 40.0984 12.8315 1.60394
155 4 41.7024 12.8315 0
156 4 43.3063 12.8315 1.60394
664 4 41.7024 12.8315 3.20787
8320 2 41.7024 11.2276 1.60394
8359 2 43.3063 12.8315 1.60394
8878 2 41.7024 12.8315 3.20787
158 4 44.9102 12.8315 0
635 4 46.5142 11.2276 3.20787
667 4 44.9102 12.8315 3.20787
8322 2 44.9102 11.2276 1.60394
8848 2 46.5142 11.2276 3.20787
131 4 49.722 11.2276 0
8324 2 49.722 11.2276 0
8325 2 48.1181 11.2276 1.60394
8362 2 48.1181 12.8315 0
8364 2 49.722 12.8315 1.60394
8851 2 49.722 11.2276 3.20787
132 4 1.60394 14.4354 0
160 4 0 16.0394 0
162 4 1.60394 16.0394 1.60394
164 4 3.20787 16.0394 0
640 4 1.60394 14.4354 3.20787
672 4 0 16.0394 3.20787
675 4 3.20787 16.0394 3.20787
8326 2 1.60394 14.4354 0
8328 2 0 14.4354 1.60394
8332 2 3.20787 14.4354 1.60394
8366 2 0 16.0394 0
8368 2 1.60394 16.0394 1.60394
8370 2 3.20787 16.0394 0
8853 2 1.60394 14.4354 3.20787
8880 2 0 16.0394 3.20787
8883 2 3.20787 16.0394 3.20787
133 4 4.81181 14.4354 0
165 4 4.81181 16.0394 1.60394
679 4 6.41575 16.0394 3.20787
8330 2 4.81181 14.4354 0
8335 2 6.41575 14.4354 1.60394
8372 2 4.81181 16.0394 1.60394
8374 2 6.41575 16.0394 0
8857 2 4.81181 14.4354 3.20787
8886 2 6.41575 16.0394 3.20787
135 4 9.62362 14.4354 1.60394
167 4 8.01969 16.0394 1.60394
682 4 9.62362 16.0394 3.20787
8334 2 8.01969 14.4354 0
8860 2 8.01969 14.4354 3.20787
136 4 12.8315 14.4354 1.60394
169 4 11.2276 16.0394 1.60394
171 4 12.8315 16.0394 0
685 4 12.8315 16.0394 3.20787
8336 2 11.2276 14.4354 0
8339 2 12.8315 14.4354 1.60394
8377 2 11.2276 16.0394 1.60394
8378 2 12.8315 16.0394 0
8890 2 12.8315 16.0394 3.20787
173 4 14.4354 16.0394 1.60394
175 4 16.0394 16.0394 0
688 4 16.0394 16.0394 3.20787
8337 2 14.4354 14.4354 0
8342 2 16.0394 14.4354 1.60394
8380 2 14.4354 16.0394 1.60394
8863 2 14.4354 14.4354 3.20787
138 4 17.6433 14.4354 0
177 4 19.2472 16.0394 0
8345 2 19.2472 14.4354 1.60394
8383 2 17.6433 16.0394 1.60394
8894 2 19.2472 16.0394 3.20787
140 4 20.8512 14.4354 0
142 4 22.4551 14.4354 1.60394
8343 2 20.8512 14.4354 0
8346 2 22.4551 14.4354 1.60394
8385 2 20.8512 16.0394 1.60394
8386 2 22.4551 16.0394 0
8867 2 20.8512 14.4354 3.20787
8897 2 22.4551 16.0394 3.20787
141 4 24.0591 14.4354 0
144 4 25.663 14.4354 1.60394
652 4 24.0591 14.4354 3.20787
8348 2 25.663 14.4354 1.60394
8869 2 24.0591 14.4354 3.20787
145 4 30.4748 14.4354 0
147 4 28.8709 14.4354 1.60394
180 4 28.8709 16.0394 0
655 4 27.2669 14.4354 3.20787
658 4 30.4748 14.4354 3.20787
8347 2 27.2669 14.4354 0
8350 2 28.8709 14.4354 1.60394
8390 2 30.4748 16.0394 1.60394
8870 2 27.2669 14.4354 3.20787
8871 2 30.4748 14.4354 3.20787
149 4 33.6827 14.4354 0
150 4 32.0787 14.4354 1.60394
183 4 32.0787 16.0394 0
659 4 33.6827 14.4354 3.20787
8351 2 33.6827 14.4354 0
8352 2 32.0787 14.4354 1.60394
8391 2 32.0787 16.0394 0
8393 2 33.6827 16.0394 1.60394
8874 2 33.6827 14.4354 3.20787
8902 2 32.0787 16.0394 3.20787
151 4 36.8906 14.4354 0
184 4 35.2866 16.0394 0
661 4 36.8906 14.4354 3.20787
698 4 35.2866 16.0394 3.20787
8355 2 35.2866 14.4354 1.60394
153 4 40.0984 14.4354 0
154 4 38.4945 14.4354 1.60394
186 4 40.0984 16.0394 1.60394
663 4 40.0984 14.4354 3.20787
701 4 38.4945 16.0394 3.20787
8358 2 38.4945 14.4354 1.60394
8395 2 38.4945 16.0394 0
8396 2 40.0984 16.0394 1.60394
8906 2 38.4945 16.0394 3.20787
157 4 41.7024 14.4354 1.60394
188 4 43.3063 16.0394 1.60394
702 4 41.7024 16.0394 3.20787
8360 2 41.7024 14.4354 1.60394
8398 2 41.7024 16.0394 0
8399 2 43.3063 16.0394 1.60394
8909 2 41.7024 16.0394 3.20787
668 4 46.5142 14.4354 3.20787
705 4 44.9102 16.0394 3.20787
8361 2 46.5142 14.4354 0
8401 2 44.9102 16.0394 0
159 4 48.1181 14.4354 1.60394
192 4 49.722 16.0394 1.60394
709 4 48.1181 16.0394 3.20787
8363 2 49.722 14.4354 0
8365 2 48.1181 14.4354 1.60394
8916 2 48.1181 16.0394 3.20787
161 4 1.60394 17.6433 0
163 4 0 17.6433 1.60394
194 4 1.60394 19.2472 1.60394
196 4 3.20787 19.2472 0
711 4 0 19.2472 3.20787
713 4 3.20787 19.2472 3.20787
8367 2 1.60394 17.6433 0
8369 2 0 17.6433 1.60394
8373 2 3.20787 17.6433 1.60394
8404 2 3.20787 19.2472 0
8918 2 0 19.2472 3.20787
8920 2 3.20787 19.2472 3.20787
168 4 6.41575 17.6433 1.60394
198 4 6.41575 19.2472 0
676 4 4.81181 17.6433 3.20787
8371 2 4.81181 17.6433 0
8406 2 6.41575 19.2472 0
8884 2 4.81181 17.6433 3.20787
8923 2 6.41575 19.2472 3.20787
166 4 8.01969 17.6433 0
170 4 9.62362 17.6433 1.60394
200 4 8.01969 19.2472 1.60394
202 4 9.62362 19.2472 0
680 4 8.01969 17.6433 3.20787
718 4 9.62362 19.2472 3.20787
8375 2 8.01969 17.6433 0
8408 2 9.62362 19.2472 0
8887 2 8.01969 17.6433 3.20787
8926 2 9.62362 19.2472 3.20787
174 4 12.8315 17.6433 1.60394
204 4 11.2276 19.2472 1.60394
683 4 11.2276 17.6433 3.20787
721 4 12.8315 19.2472 3.20787
8376 2 11.2276 17.6433 0
8381 2 12.8315 17.6433 1.60394
8410 2 12.8315 19.2472 0
8888 2 11.2276 17.6433 3.20787
8928 2 12.8315 19.2472 3.20787
172 4 14.4354 17.6433 0
176 4 16.0394 17.6433 1.60394
206 4 14.4354 19.2472 1.60394
686 4 14.4354 17.6433 3.20787
8379 2 14.4354 17.6433 0
8413 2 16.0394 19.2472 0
8891 2 14.4354 17.6433 3.20787
209 4 19.2472 19.2472 0
689 4 17.6433 17.6433 3.20787
8382 2 17.6433 17.6433 0
8414 2 17.6433 19.2472 1.60394
8892 2 17.6433 17.6433 3.20787
178 4 20.8512 17.6433 0
691 4 20.8512 17.6433 3.20787
8384 2 20.8512 17.6433 0
8416 2 20.8512 19.2472 1.60394
8417 2 22.4551 19.2472 0
8895 2 20.8512 17.6433 3.20787
8933 2 22.4551 19.2472 3.20787
179 4 24.0591 17.6433 0
212 4 25.663 19.2472 0
728 4 25.663 19.2472 3.20787
8387 2 24.0591 17.6433 0
8388 2 25.663 17.6433 1.60394
8418 2 24.0591 19.2472 1.60394
8419 2 25.663 19.2472 0
181 4 30.4748 17.6433 0
182 4 28.8709 17.6433 1.60394
214 4 27.2669 19.2472 1.60394
217 4 30.4748 19.2472 1.60394
731 4 28.8709 19.2472 3.20787
8389 2 30.4748 17.6433 0
8420 2 27.2669 19.2472 1.60394
8421 2 28.8709 19.2472 0
8423 2 30.4748 19.2472 1.60394
8898 2 27.2669 17.6433 3.20787
8899 2 30.4748 17.6433 3.20787
8937 2 28.8709 19.2472 3.20787
218 4 32.0787 19.2472 0
219 4 33.6827 19.2472 1.60394
734 4 32.0787 19.2472 3.20787
8392 2 33.6827 17.6433 0
8424 2 32.0787 19.2472 0
8903 2 33.6827 17.6433 3.20787
185 4 35.2866 17.6433 1.60394
220 4 35.2866 19.2472 0
699 4 36.8906 17.6433 3.20787
8394 2 35.2866 17.6433 1.60394
8943 2 35.2866 19.2472 3.20787
223 4 40.0984 19.2472 1.60394
739 4 38.4945 19.2472 3.20787
8397 2 38.4945 17.6433 1.60394
8907 2 40.0984 17.6433 3.20787
187 4 43.3063 17.6433 0
189 4 41.7024 17.6433 1.60394
224 4 41.7024 19.2472 0
703 4 43.3063 17.6433 3.20787
8400 2 41.7024 17.6433 1.60394
8429 2 43.3063 19.2472 1.60394
8910 2 43.3063 17.6433 3.20787
8947 2 41.7024 19.2472 3.20787
190 4 46.5142 17.6433 0
226 4 44.9102 19.2472 0
706 4 46.5142 17.6433 3.20787
8402 2 46.5142 17.6433 0
8913 2 46.5142 17.6433 3.20787
8949 2 44.9102 19.2472 3.20787
191 4 49.722 17.6433 0
710 4 49.722 17.6433 3.20787
8403 2 49.722 17.6433 0
193 4 1.60394 20.8512 0
195 4 0 20.8512 1.60394
230 4 0 22.4551 0
232 4 1.60394 22.4551 1.60394
712 4 1.60394 20.8512 3.20787
747 4 0 22.4551 3.20787
750 4 3.20787 22.4551 3.20787
8405 2 3.20787 20.8512 1.60394
8431 2 0 22.4551 0
8433 2 1.60394 22.4551 1.60394
8919 2 1.60394 20.8512 3.20787
8952 2 0 22.4551 3.20787
197 4 4.81181 20.8512 0
201 4 6.41575 20.8512 1.60394
235 4 4.81181 22.4551 1.60394
8436 2 4.81181 22.4551 1.60394
8437 2 6.41575 22.4551 0
8921 2 4.81181 20.8512 3.20787
8956 2 6.41575 22.4551 3.20787
199 4 8.01969 20.8512 0
237 4 8.01969 22.4551 1.60394
239 4 9.62362 22.4551 0
715 4 8.01969 20.8512 3.20787
8407 2 8.01969 20.8512 0
8409 2 9.62362 20.8512 1.60394
8439 2 8.01969 22.4551 1.60394
8924 2 8.01969 20.8512 3.20787
203 4 11.2276 20.8512 0
240 4 11.2276 22.4551 1.60394
719 4 11.2276 20.8512 3.20787
755 4 12.8315 22.4551 3.20787
8412 2 12.8315 20.8512 1.60394
8927 2 11.2276 20.8512 3.20787
205 4 14.4354 20.8512 0
208 4 16.0394 20.8512 1.60394
243 4 14.4354 22.4551 1.60394
8411 2 14.4354 20.8512 0
8441 2 14.4354 22.4551 1.60394
8962 2 16.0394 22.4551 3.20787
207 4 17.6433 20.8512 0
245 4 19.2472 22.4551 0
723 4 17.6433 20.8512 3.20787
759 4 19.2472 22.4551 3.20787
8443 2 17.6433 22.4551 1.60394
8930 2 17.6433 20.8512 3.20787
210 4 20.8512 20.8512 0
246 4 20.8512 22.4551 1.60394
8415 2 20.8512 20.8512 0
8445 2 20.8512 22.4551 1.60394
8446 2 22.4551 22.4551 0
8965 2 22.4551 22.4551 3.20787
211 4 24.0591 20.8512 0
215 4 25.663 20.8512 1.60394
248 4 24.0591 22.4551 1.60394
727 4 24.0591 20.8512 3.20787
8447 2 25.663 22.4551 0
8934 2 24.0591 20.8512 3.20787
8966 2 25.663 22.4551 3.20787
213 4 27.2669 20.8512 0
216 4 30.4748 20.8512 0
251 4 28.8709 22.4551 0
729 4 27.2669 20.8512 3.20787
765 4 28.8709 22.4551 3.20787
8422 2 30.4748 20.8512 0
8449 2 28.8709 22.4551 0
8450 2 30.4748 22.4551 1.60394
8936 2 27.2669 20.8512 3.20787
8938 2 30.4748 20.8512 3.20787
8968 2 28.8709 22.4551 3.20787
252 4 32.0787 22.4551 0
253 4 33.6827 22.4551 1.60394
735 4 33.6827 20.8512 3.20787
8425 2 33.6827 20.8512 0
8451 2 32.0787 22.4551 0
8453 2 33.6827 22.4551 1.60394
8941 2 33.6827 20.8512 3.20787
221 4 36.8906 20.8512 0
736 4 36.8906 20.8512 3.20787
769 4 35.2866 22.4551 3.20787
8426 2 36.8906 20.8512 0
8427 2 35.2866 20.8512 1.60394
8454 2 35.2866 22.4551 0
222 4 40.0984 20.8512 0
256 4 40.0984 22.4551 1.60394
740 4 40.0984 20.8512 3.20787
8428 2 38.4945 20.8512 1.60394
8456 2 38.4945 22.4551 0
8944 2 40.0984 20.8512 3.20787
225 4 41.7024 20.8512 1.60394
772 4 41.7024 22.4551 3.20787
227 4 46.5142 20.8512 0
228 4 44.9102 20.8512 1.60394
743 4 46.5142 20.8512 3.20787
8430 2 46.5142 20.8512 0
229 4 49.722 20.8512 0
259 4 49.722 22.4551 1.60394
745 4 49.722 20.8512 3.20787
776 4 48.1181 22.4551 3.20787
231 4 1.60394 24.0591 0
233 4 0 24.0591 1.60394
236 4 3.20787 24.0591 1.60394
260 4 0 25.663 0
263 4 3.20787 25.663 0
748 4 1.60394 24.0591 3.20787
778 4 0 25.663 3.20787
781 4 3.20787 25.663 3.20787
8432 2 1.60394 24.0591 0
8434 2 0 24.0591 1.60394
8464 2 1.60394 25.663 1.60394
8466 2 3.20787 25.663 0
8953 2 1.60394 24.0591 3.20787
8981 2 0 25.663 3.20787
8984 2 3.20787 25.663 3.20787
234 4 4.81181 24.0591 0
238 4 6.41575 24.0591 1.60394
265 4 4.81181 25.663 1.60394
267 4 6.41575 25.663 0
8435 2 4.81181 24.0591 0
8440 2 6.41575 24.0591 1.60394
8467 2 6.41575 25.663 0
8954 2 4.81181 24.0591 3.20787
8986 2 6.41575 25.663 3.20787
241 4 9.62362 24.0591 1.60394
268 4 8.01969 25.663 1.60394
269 4 9.62362 25.663 0
752 4 8.01969 24.0591 3.20787
8438 2 8.01969 24.0591 0
8469 2 8.01969 25.663 1.60394
8470 2 9.62362 25.663 0
244 4 12.8315 24.0591 1.60394
753 4 11.2276 24.0591 3.20787
785 4 12.8315 25.663 3.20787
8958 2 11.2276 24.0591 3.20787
8992 2 12.8315 25.663 3.20787
242 4 14.4354 24.0591 0
756 4 14.4354 24.0591 3.20787
788 4 16.0394 25.663 3.20787
8471 2 14.4354 25.663 1.60394
274 4 17.6433 25.663 1.60394
8442 2 17.6433 24.0591 0
8474 2 19.2472 25.663 0
8963 2 17.6433 24.0591 3.20787
249 4 22.4551 24.0591 1.60394
276 4 20.8512 25.663 1.60394
278 4 22.4551 25.663 0
792 4 22.4551 25.663 3.20787
8444 2 20.8512 24.0591 0
8997 2 22.4551 25.663 3.20787
247 4 24.0591 24.0591 0
250 4 25.663 24.0591 1.60394
280 4 25.663 25.663 0
793 4 25.663 25.663 3.20787
8475 2 25.663 25.663 0
281 4 27.2669 25.663 1.60394
282 4 28.8709 25.663 0
284 4 30.4748 25.663 1.60394
8448 2 27.2669 24.0591 0
8477 2 27.2669 25.663 1.60394
8478 2 28.8709 25.663 0
8969 2 30.4748 24.0591 3.20787
9000 2 28.8709 25.663 3.20787
767 4 33.6827 24.0591 3.20787
797 4 32.0787 25.663 3.20787
8452 2 33.6827 24.0591 0
8480 2 32.0787 25.663 0
8482 2 33.6827 25.663 1.60394
8971 2 33.6827 24.0591 3.20787
9003 2 32.0787 25.663 3.20787
254 4 36.8906 24.0591 0
286 4 35.2866 25.663 0
798 4 35.2866 25.663 3.20787
8455 2 35.2866 24.0591 1.60394
8484 2 36.8906 25.663 1.60394
8974 2 36.8906 24.0591 3.20787
255 4 40.0984 24.0591 0
289 4 40.0984 25.663 1.60394
8457 2 40.0984 24.0591 0
8458 2 38.4945 24.0591 1.60394
8487 2 40.0984 25.663 1.60394
9007 2 38.4945 25.663 3.20787
257 4 41.7024 24.0591 1.60394
773 4 43.3063 24.0591 3.20787
8459 2 43.3063 24.0591 0
8489 2 43.3063 25.663 1.60394
8976 2 43.3063 24.0591 3.20787
258 4 46.5142 24.0591 0
291 4 46.5142 25.663 1.60394
8460 2 46.5142 24.0591 0
8461 2 44.9102 24.0591 1.60394
8491 2 44.9102 25.663 0
9011 2 44.9102 25.663 3.20787
292 4 49.722 25.663 1.60394
777 4 49.722 24.0591 3.20787
808 4 48.1181 25.663 3.20787
8462 2 49.722 24.0591 0
8493 2 49.722 25.663 1.60394
8980 2 49.722 24.0591 3.20787
261 4 1.60394 27.2669 0
262 4 0 27.2669 1.60394
266 4 3.20787 27.2669 1.60394
294 4 1.60394 30.4748 0
295 4 3.20787 28.8709 0
779 4 1.60394 27.2669 3.20787
811 4 3.20787 28.8709 3.20787
8463 2 1.60394 27.2669 0
8465 2 0 27.2669 1.60394
8495 2 0 28.8709 0
8496 2 1.60394 30.4748 0
9014 2 0 28.8709 3.20787
264 4 4.81181 27.2669 0
296 4 4.81181 30.4748 0
812 4 4.81181 30.4748 3.20787
814 4 6.41575 28.8709 3.20787
8497 2 4.81181 30.4748 0
8498 2 4.81181 28.8709 1.60394
8499 2 6.41575 28.8709 0
8500 2 6.41575 30.4748 1.60394
8985 2 4.81181 27.2669 3.20787
9015 2 4.81181 30.4748 3.20787
271 4 9.62362 27.2669 1.60394
297 4 8.01969 28.8709 1.60394
300 4 9.62362 30.4748 1.60394
817 4 9.62362 28.8709 3.20787
8468 2 8.01969 27.2669 0
8503 2 9.62362 30.4748 1.60394
8987 2 8.01969 27.2669 3.20787
270 4 11.2276 27.2669 0
272 4 12.8315 27.2669 1.60394
298 4 11.2276 30.4748 0
299 4 11.2276 28.8709 1.60394
301 4 12.8315 28.8709 0
8472 2 12.8315 27.2669 1.60394
8501 2 11.2276 30.4748 0
8502 2 11.2276 28.8709 1.60394
8504 2 12.8315 28.8709 0
8507 2 12.8315 30.4748 1.60394
8990 2 11.2276 27.2669 3.20787
9018 2 11.2276 30.4748 3.20787
9019 2 12.8315 28.8709 3.20787
275 4 16.0394 27.2669 1.60394
302 4 14.4354 28.8709 1.60394
304 4 16.0394 30.4748 1.60394
786 4 14.4354 27.2669 3.20787
819 4 16.0394 28.8709 3.20787
8505 2 14.4354 30.4748 0
8506 2 14.4354 28.8709 1.60394
8508 2 16.0394 28.8709 0
9020 2 14.4354 30.4748 3.20787
273 4 17.6433 27.2669 0
277 4 19.2472 27.2669 1.60394
303 4 17.6433 30.4748 0
820 4 17.6433 30.4748 3.20787
823 4 19.2472 28.8709 3.20787
8473 2 17.6433 27.2669 0
8509 2 17.6433 30.4748 0
8510 2 19.2472 28.8709 0
8512 2 19.2472 30.4748 1.60394
8994 2 17.6433 27.2669 3.20787
279 4 22.4551 27.2669 1.60394
305 4 20.8512 30.4748 0
306 4 20.8512 28.8709 1.60394
789 4 20.8512 27.2669 3.20787
825 4 22.4551 28.8709 3.20787
8511 2 20.8512 30.4748 0
8513 2 22.4551 28.8709 0
9023 2 22.4551 28.8709 3.20787
307 4 24.0591 30.4748 0
308 4 25.663 28.8709 0
826 4 24.0591 30.4748 3.20787
8516 2 25.663 30.4748 1.60394
8998 2 24.0591 27.2669 3.20787
9024 2 24.0591 30.4748 3.20787
9027 2 25.663 28.8709 3.20787
283 4 30.4748 27.2669 0
309 4 27.2669 30.4748 0
828 4 28.8709 28.8709 3.20787
8476 2 27.2669 27.2669 0
8479 2 30.4748 27.2669 0
8514 2 27.2669 30.4748 0
8515 2 27.2669 28.8709 1.60394
8517 2 30.4748 30.4748 0
8518 2 28.8709 30.4748 1.60394
9028 2 27.2669 30.4748 3.20787
285 4 32.0787 27.2669 1.60394
310 4 33.6827 30.4748 0
311 4 33.6827 28.8709 1.60394
312 4 32.0787 30.4748 1.60394
830 4 32.0787 28.8709 3.20787
8481 2 33.6827 27.2669 0
8483 2 32.0787 27.2669 1.60394
8519 2 32.0787 28.8709 0
8520 2 33.6827 28.8709 1.60394
8521 2 32.0787 30.4748 1.60394
9030 2 32.0787 28.8709 3.20787
9031 2 33.6827 30.4748 3.20787
287 4 36.8906 27.2669 0
313 4 36.8906 30.4748 0
799 4 36.8906 27.2669 3.20787
832 4 35.2866 28.8709 3.20787
833 4 36.8906 30.4748 3.20787
8485 2 35.2866 27.2669 1.60394
8522 2 36.8906 30.4748 0
9005 2 36.8906 27.2669 3.20787
288 4 40.0984 27.2669 0
290 4 38.4945 27.2669 1.60394
314 4 38.4945 28.8709 0
315 4 40.0984 30.4748 0
801 4 40.0984 27.2669 3.20787
834 4 40.0984 30.4748 3.20787
8486 2 40.0984 27.2669 0
8523 2 38.4945 28.8709 0
9008 2 40.0984 27.2669 3.20787
9035 2 38.4945 28.8709 3.20787
316 4 41.7024 28.8709 0
317 4 43.3063 30.4748 0
318 4 43.3063 28.8709 1.60394
319 4 41.7024 30.4748 1.60394
803 4 43.3063 27.2669 3.20787
837 4 41.7024 28.8709 3.20787
838 4 43.3063 30.4748 3.20787
8488 2 43.3063 27.2669 0
8490 2 41.7024 27.2669 1.60394
8524 2 43.3063 30.4748 0
9009 2 43.3063 27.2669 3.20787
9038 2 41.7024 28.8709 3.20787
320 4 44.9102 28.8709 0
806 4 46.5142 27.2669 3.20787
8492 2 46.5142 27.2669 0
8525 2 44.9102 28.8709 0
8526 2 46.5142 28.8709 1.60394
9040 2 46.5142 30.4748 3.20787
293 4 48.1181 27.2669 1.60394
321 4 49.722 30.4748 0
809 4 49.722 27.2669 3.20787
841 4 49.722 30.4748 3.20787
8494 2 48.1181 27.2669 1.60394
8527 2 49.722 30.4748 0
9042 2 48.1181 28.8709 3.20787
9043 2 49.722 30.4748 3.20787
322 4 1.60394 33.6827 0
323 4 1.60394 32.0787 1.60394
324 4 3.20787 32.0787 0
843 4 0 32.0787 3.20787
844 4 1.60394 33.6827 3.20787
846 4 3.20787 32.0787 3.20787
8528 2 0 32.0787 0
8529 2 0 33.6827 1.60394
8531 2 3.20787 33.6827 1.60394
9045 2 1.60394 33.6827 3.20787
325 4 4.81181 32.0787 1.60394
327 4 6.41575 33.6827 1.60394
8530 2 4.81181 33.6827 0
8532 2 6.41575 32.0787 0
9046 2 4.81181 33.6827 3.20787
9049 2 6.41575 32.0787 3.20787
326 4 8.01969 32.0787 1.60394
849 4 8.01969 33.6827 3.20787
8533 2 8.01969 33.6827 0
9050 2 8.01969 33.6827 3.20787
9053 2 9.62362 32.0787 3.20787
328 4 11.2276 32.0787 1.60394
329 4 12.8315 32.0787 0
331 4 12.8315 33.6827 1.60394
851 4 11.2276 33.6827 3.20787
852 4 12.8315 32.0787 3.20787
8534 2 11.2276 33.6827 0
9055 2 12.8315 32.0787 3.20787
330 4 14.4354 33.6827 0
332 4 16.0394 32.0787 0
853 4 14.4354 33.6827 3.20787
856 4 16.0394 32.0787 3.20787
8535 2 14.4354 33.6827 0
8536 2 14.4354 32.0787 1.60394
8537 2 16.0394 32.0787 0
8539 2 16.0394 33.6827 1.60394
9056 2 14.4354 33.6827 3.20787
333 4 17.6433 33.6827 0
334 4 19.2472 32.0787 0
336 4 19.2472 33.6827 1.60394
857 4 17.6433 33.6827 3.20787
8538 2 17.6433 32.0787 1.60394
8540 2 19.2472 32.0787 0
8543 2 19.2472 33.6827 1.60394
9057 2 17.6433 33.6827 3.20787
335 4 20.8512 33.6827 0
860 4 22.4551 32.0787 3.20787
8541 2 20.8512 33.6827 0
8542 2 20.8512 32.0787 1.60394
9060 2 20.8512 33.6827 3.20787
9063 2 22.4551 32.0787 3.20787
337 4 24.0591 33.6827 0
338 4 24.0591 32.0787 1.60394
339 4 25.663 32.0787 0
342 4 25.663 33.6827 1.60394
861 4 24.0591 33.6827 3.20787
8544 2 24.0591 33.6827 0
8545 2 24.0591 32.0787 1.60394
8546 2 25.663 32.0787 0
8549 2 25.663 33.6827 1.60394
340 4 27.2669 33.6827 0
341 4 27.2669 32.0787 1.60394
343 4 28.8709 32.0787 0
344 4 30.4748 33.6827 0
345 4 30.4748 32.0787 1.60394
865 4 30.4748 33.6827 3.20787
8547 2 27.2669 33.6827 0
8548 2 27.2669 32.0787 1.60394
8550 2 30.4748 32.0787 1.60394
8551 2 28.8709 33.6827 1.60394
9066 2 30.4748 33.6827 3.20787
346 4 32.0787 32.0787 0
866 4 32.0787 32.0787 3.20787
867 4 33.6827 33.6827 3.20787
8552 2 33.6827 32.0787 1.60394
8553 2 32.0787 33.6827 1.60394
347 4 35.2866 32.0787 0
870 4 35.2866 32.0787 3.20787
871 4 36.8906 33.6827 3.20787
9069 2 35.2866 32.0787 3.20787
9070 2 36.8906 33.6827 3.20787
348 4 38.4945 32.0787 0
349 4 40.0984 32.0787 1.60394
350 4 38.4945 33.6827 1.60394
8554 2 40.0984 33.6827 0
8555 2 38.4945 33.6827 1.60394
9073 2 40.0984 33.6827 3.20787
351 4 43.3063 33.6827 0
8556 2 41.7024 32.0787 0
8557 2 43.3063 32.0787 1.60394
9076 2 41.7024 32.0787 3.20787