ITEM: TIMESTEP
0
ITEM: NUMBER OF ATOMS
50688
ITEM: BOX BOUNDS xy xz yz pp pp pp
-20.3673 61.8391038 1.926804
-22.2210007 65.3610001 0.0
-22.2210007 65.3610001 0.0
ITEM: ATOMS id type x y z VoronoiIndex1 VoronoiIndex2 VoronoiIndex3 VoronoiIndex4 VoronoiIndex5 VoronoiIndex6 VoronoiIndex7 VoronoiIndex8 VoronoiIndex9 AtomicVolume
7 2 -8.896 -13.7700005 -3.1830001 0 0 0 2 10 1 0 0 0 11.5503645
21 2 -12.1400003 1.79 14.0200005 0 0 0 0 12 0 0 0 0 11.5459404
26 5 -13.0900002 -17.5 -9.2460003 0 0 0 1 10 4 0 0 0 13.1488018
61 4 -9.6940003 -8.7370005 -3.2939999 0 0 1 2 7 4 0 0 0 12.5528126
66 4 -15.5299998 -5.5640002 -2.3310001 0 0 0 2 8 5 0 0 0 13.0771942
68 1 -15.4700003 -0.5647 3.0009999 0 0 0 3 6 1 0 0 0 10.8324623
128 5 -9.993 6.119 -10.8299999 0 0 1 2 7 5 0 0 0 12.6912956
150 2 -12.25 7.8270002 9.2449999 0 0 0 3 6 4 0 0 0 11.825881
191 5 -10.3100004 5.7459998 -13.1199999 0 0 0 2 10 1 0 0 0 12.1477165
200 4 -14.1400003 -11.1000004 12.2299996 0 0 0 4 4 6 0 0 0 12.5606718
220 2 -5.2340002 17.5699997 -5.3189998 0 0 0 0 12 0 0 0 0 11.8646604
231 4 -13.1999998 3.51 7.0770001 0 0 1 2 7 3 0 0 0 11.8483478
260 2 -16.1599999 6.6069999 -15.3699999 0 0 0 1 10 2 0 0 0 11.8205252
263 1 -5.8610002 -2.95 -16.5200005 0 0 0 0 12 0 0 0 0 11.3957272
272 4 -17.5599995 -8.9829998 -18.5100003 0 0 0 0 12 2 0 0 0 12.8240042
277 4 -12.9799996 -0.1173 -6.5190001 0 0 0 2 10 2 0 0 0 11.6127424
298 4 -4.934 17.2600002 3.681 0 0 1 1 9 6 0 0 0 13.2939005
301 1 -12.4300003 18.6299992 20.2000008 0 0 0 2 8 2 0 0 0 11.2970743
311 5 -10.1700001 14.04 -4.6329999 0 0 0 3 8 4 1 0 0 12.9686252
322 4 -7.1160002 -8.4300003 3.0209999 0 0 1 1 9 3 0 0 0 12.5395937
335 1 -14.6099997 -18.3199997 -5.7410002 0 0 0 2 8 3 0 0 0 12.3195028
336 4 -8.2779999 -16.3899994 -2.312 0 0 0 1 10 3 0 0 0 11.8429174
362 5 -7.1560001 -9.7080002 -3.995 0 0 0 1 12 2 0 0 0 13.4547177
370 5 -13.2399998 -17.2299996 -11.75 0 0 0 0 12 2 0 0 0 12.0662336
416 2 -6.3210001 -21.1800003 -11.5600004 0 0 0 4 6 2 0 0 0 11.34863
437 2 -7.7820001 21.3799992 14.9099998 0 0 0 3 8 1 0 0 0 11.328475
439 4 -14.1400003 -8.3579998 15.3699999 0 0 0 3 8 3 0 0 0 12.8959694
452 4 -10.7799998 -21.8099995 -20.6200009 0 0 0 0 12 0 0 0 0 11.2118979
549 5 -13.8599998 12.5799999 -17.0100002 0 0 0 2 8 5 0 0 0 12.058733
570 4 -13.7299996 -20.5400009 -5.8119998 0 0 1 2 5 5 0 0 0 11.945425
571 5 -12.4399996 5.717 8.2110005 0 0 1 1 8 3 1 0 0 12.4606333
638 5 -9.6560002 -8.9099998 8.903 0 0 1 3 7 3 0 1 0 11.9622746
643 5 -9.672 4.191 2.247 0 0 0 2 8 2 0 0 0 11.0674439
645 5 -11.0 16.8799992 6.1459999 0 0 0 4 6 4 0 0 0 12.1188421
681 2 -14.5100003 20.2800007 -8.1850004 0 0 1 3 5 5 0 0 0 12.0398865
718 2 -18.1200008 -19.8899994 -17.9599992 0 0 0 3 6 3 0 0 0 11.840373
776 4 -18.6700001 16.0400009 9.2290001 0 0 1 1 8 3 1 0 0 12.1911821
870 2 -17.9899998 9.9940004 -1.318 0 0 0 0 12 0 0 0 0 11.3547421
882 3 -7.4590001 16.4899998 16.7299996 0 0 1 2 7 5 0 0 0 13.1091662
963 5 -6.4790001 -12.7700005 -15.3999996 0 0 0 3 6 4 0 0 0 11.8849898
978 4 -15.7200003 -19.6900006 13.4399996 0 0 0 1 10 3 0 0 0 11.9078122
1010 4 -14.5600004 3.7660001 -20.7999993 0 0 0 1 10 4 0 0 0 12.9146358
1047 4 -8.4429999 20.7800007 2.7809999 0 0 0 1 10 2 0 0 0 12.1763706
1063 5 -9.3039999 9.3579998 9.4759999 0 0 0 2 8 5 0 0 0 13.1889134
1068 5 -17.75 15.0 -3.0569999 0 0 0 1 10 3 0 0 0 11.722805
1094 5 -16.6599999 0.3095 11.0600004 0 0 0 3 6 6 0 0 0 12.748437
1167 4 -5.481 20.9300004 -12.2399998 0 0 0 3 6 4 0 0 0 12.007267
1173 5 -18.8899994 -17.6200009 -17.3799992 0 0 0 4 6 3 0 0 0 12.853262
1194 5 -15.9899998 12.7600003 17.4099999 0 0 1 1 9 2 0 0 0 11.5264874
1199 4 -12.4899998 -10.0600004 -15.1999998 0 0 2 0 10 4 0 0 0 12.7138882
1214 5 -7.9429998 9.1560001 -21.4799996 0 0 0 2 8 2 0 0 0 11.0717917
1222 1 -6.5320001 16.7299996 -1.724 0 0 0 1 10 2 0 0 0 12.6992588
1244 3 -6.0479999 -10.6400004 -9.4659996 0 0 0 0 12 0 0 0 0 11.232028
1276 4 -16.1399994 -20.75 9.0100002 0 0 0 3 6 5 0 0 0 11.6707325
1280 5 -5.5489998 1.295 -11.54 0 0 0 1 10 2 0 0 0 12.6485901
1288 5 -7.4650002 -9.2790003 16.0300007 0 0 0 3 8 2 0 0 0 11.7097168
1320 2 -9.7460003 12.6300001 12.3500004 0 0 0 0 12 0 0 0 0 11.3172312
1338 2 -5.9980002 20.5900002 -19.1299992 0 0 0 2 8 2 0 0 0 11.4017811
1342 4 -7.8990002 18.5799999 18.1399994 0 0 0 2 8 5 0 0 0 13.3486052
1370 4 -15.2399998 -20.1800003 15.8800002 0 0 0 3 8 2 2 0 0 12.611476
1387 3 -10.5100003 -22.0200005 6.625 0 0 0 1 10 4 0 0 0 13.1128826
1398 4 -17.2900009 -6.5209999 -17.2800007 0 0 0 2 10 3 0 0 0 13.3819294
1434 5 -8.6800003 9.2969999 -11.1899996 0 0 0 3 6 5 0 0 0 12.9366884
1435 4 -17.2099991 -11.8900004 -3.0639999 0 0 0 0 12 2 0 0 0 12.227169
1456 4 -5.4099999 -10.2299996 -19.9599992 0 0 0 3 6 6 0 0 0 12.1615067
1515 5 -6.289 0.8763 -19.4099999 0 0 0 0 12 0 0 0 0 11.4570923
1523 2 -7.6129999 13.3699999 -21.2900009 0 0 0 2 8 2 0 0 0 11.8567248
1565 2 -17.2700005 -7.5240002 -5.4990001 0 0 0 0 12 0 0 0 0 10.923316
1567 4 -18.4799996 18.2800007 -21.8600006 0 0 0 1 10 3 0 0 0 12.1280842
1587 5 -14.6499996 -0.2946 -14.3000002 0 0 0 1 10 2 0 0 0 12.1201487
1620 4 -10.3199997 -1.341 19.5100003 0 0 0 2 8 1 2 0 0 12.642767
1627 4 -16.4099999 -20.0599995 -9.1999998 0 0 0 0 12 0 0 0 0 11.3334332
1657 5 -7.0999999 15.2799997 14.4099999 0 0 0 3 8 4 0 0 0 13.262928
1669 4 -5.9590002 -20.4899998 -5.3460002 0 0 0 1 10 4 0 0 0 13.1568594
1692 5 -14.4300003 -20.8199997 11.6899996 0 0 0 2 8 3 0 0 0 11.3190708
1781 5 -17.3299999 19.5699997 7.198 0 0 0 2 8 4 0 0 0 12.1908197
1805 4 -14.3199997 17.7700005 9.6370001 0 0 1 0 11 3 0 0 0 12.9909192
1826 2 -18.5699997 -11.1199999 13.3299999 0 0 0 3 6 3 0 0 0 11.6800957
1829 5 -8.8739996 16.5499993 -19.4699993 0 0 0 0 12 0 0 0 0 11.0113497
1891 1 -18.4200001 -2.642 -5.2080002 0 0 1 2 7 2 0 0 0 10.6068526
1905 4 -7.9450002 -5.9959998 12.1700001 0 0 0 1 10 4 0 0 0 12.3550873
1906 2 -5.4180002 17.1100006 0.7131 0 0 0 1 10 2 0 0 0 11.4547053
2016 4 -17.5 -13.6700001 13.5600004 0 0 0 1 10 2 0 0 0 12.3943873
2039 4 -18.8299999 20.4200001 20.6599999 0 0 0 3 8 2 0 0 0 11.7582741
2046 2 -13.3000002 -9.8290005 4.415 0 0 0 0 12 0 0 0 0 12.0552549
2053 2 -13.9300004 6.3249998 -1.36 0 0 0 1 10 2 0 0 0 12.32864
2082 2 -12.6599999 -14.9899998 -12.7399998 0 0 2 4 4 2 2 1 0 11.9106054
2089 1 -10.2100001 -5.0479999 12.1899996 0 0 0 3 6 3 0 0 0 11.4805384
2112 4 -18.4899998 -2.949 1.303 0 0 1 1 9 4 0 0 0 12.3183947
2119 2 -12.5799999 14.5100003 -4.0229998 0 0 0 0 12 0 0 0 0 10.9733754
2151 2 -7.5910001 6.7839999 21.2800007 0 0 0 0 12 0 0 0 0 11.0605488
2169 1 -18.0900002 -21.3500004 -7.8410002 0 0 0 2 10 2 0 0 0 11.4700442
2202 4 -11.9899998 12.04 18.8600006 0 0 0 1 10 4 0 0 0 13.235611
2213 2 -16.4899998 -9.6730004 12.9700004 0 0 0 3 6 3 0 0 0 11.7961054
2224 5 -7.0440002 -18.5100003 -17.5599995 0 0 0 2 8 2 0 0 0 11.7473002
2225 4 -19.3899994 -7.797 18.4200001 0 0 3 2 2 5 2 0 1 12.7095595
2228 5 -8.9849998 16.3600006 -14.0699997 0 0 0 1 10 2 0 0 0 11.6006851
2256 2 -13.2700005 3.652 -16.2900009 0 0 0 3 8 2 0 0 0 12.3782997
2285 4 -5.5720001 -8.1730003 -21.75 0 0 0 1 10 2 0 0 0 11.7635479
2295 1 -12.6099997 12.1999998 5.9200002 0 0 0 0 12 0 0 0 0 11.1801672
2296 4 -15.1999998 2.6730001 8.375 0 0 1 2 6 5 1 0 0 13.0831633
2354 2 -16.5499993 19.2800007 -9.2089996 0 0 1 4 3 3 2 0 0 11.9591552
2380 4 -16.8600006 -14.3800001 11.3199997 0 0 0 2 8 3 0 0 0 12.3614111
2385 4 -7.1040001 2.7550001 14.2100001 0 0 0 0 12 4 0 0 0 13.3169737
2409 5 -17.1100006 19.3099995 -3.81 0 0 0 2 8 4 0 0 0 12.8935642
2418 4 -16.2299996 19.9699994 5.0910001 0 0 0 3 6 4 0 0 0 12.2307215
2427 4 -6.3239999 1.097 -16.8299999 0 0 0 1 10 3 0 0 0 12.0814505
2430 2 -16.9200002 1.267 -13.9799996 0 0 0 2 8 2 0 0 0 11.8406582
2441 2 -6.02 -16.9599992 8.3940001 0 0 0 1 10 3 0 0 0 13.2026539
2451 2 -9.4840002 -4.0489998 1.164 0 0 0 3 6 4 0 0 0 11.2756825
2466 2 -17.0 4.2319999 7.7030001 0 0 0 0 12 0 0 0 0 11.4159804
2482 5 -6.844 0.6367 -21.8199997 0 0 0 2 8 4 0 0 0 11.6263075
2494 2 -10.6800003 -4.3810001 -8.7119999 0 0 0 0 12 0 0 0 0 11.098711
2506 2 -7.9629998 20.0200005 0.4524 0 0 0 1 10 2 0 0 0 11.7147551
2507 4 -20.2399998 -17.1100006 3.8269999 0 0 1 1 9 4 0 0 0 12.2092533
2520 4 -14.7799998 -11.8400002 18.7600003 0 0 0 2 8 4 0 0 0 12.657692
2527 1 -7.132 -11.1599999 -13.6300001 0 0 0 2 8 4 0 0 0 12.4922772
2536 4 -18.9699994 4.8800002 -10.9399996 0 0 0 1 10 4 0 0 0 13.2369452
2541 2 -5.6700001 13.75 19.9099998 0 0 1 0 11 2 0 0 0 12.4099989
2543 5 -11.3100004 1.6210001 -1.136 0 0 0 2 10 3 0 0 0 13.1792984
2545 5 -10.7799998 3.6270001 10.9399996 0 0 0 2 8 5 0 0 0 12.2606182
2657 4 -9.0609999 18.7199993 -14.8299999 0 0 0 1 10 2 0 0 0 11.8329621
2664 5 -14.6099997 -5.0879998 -18.1499996 0 0 0 4 6 3 0 0 0 11.535533
2673 4 -16.5200005 -4.5710001 14.1700001 0 0 0 2 8 5 0 0 0 12.815094
2675 4 -7.975 4.5300002 10.3500004 0 0 0 1 10 3 0 0 0 12.167573
2680 4 -13.9799996 12.8400002 -2.2560001 0 0 0 0 12 3 0 0 0 13.0379171
2713 1 -19.5200005 14.3100004 18.0499992 0 0 0 4 6 3 0 0 0 11.9463816
2719 4 -14.9099998 -16.1599999 8.4639998 0 0 0 0 12 0 0 0 0 11.2445231
2722 5 -13.29 20.5400009 0.8963 0 0 1 1 9 3 0 0 0 11.7135544
2754 5 -13.6999998 8.9960004 16.0200005 0 0 0 1 10 2 0 0 0 11.0201406
2782 4 -7.974 -20.9599992 13.4399996 0 0 0 3 8 4 0 0 0 13.2164726
2787 4 -17.3400002 1.99 6.6420002 0 0 0 1 10 3 0 0 0 12.8075266
2800 4 -10.7600003 16.6100006 -20.6599999 0 0 1 3 5 4 0 0 0 11.4619313
2807 5 -18.8400002 14.5600004 -21.0499992 0 0 0 0 12 0 0 0 0 11.2030697
2814 4 -16.5499993 -7.8200002 8.0970001 0 0 0 3 7 5 1 0 0 12.7539501
2823 4 -9.2340002 12.4600001 18.4400006 0 0 0 0 12 0 0 0 0 13.1874008
2830 4 -13.75 -21.7099991 -16.2399998 0 0 0 3 8 3 0 0 0 12.6486941
2851 3 -11.1199999 2.2230001 -15.5699997 0 0 0 1 10 5 0 0 0 13.2609768
2932 4 -7.4250002 -14.3299999 -1.323 0 0 1 2 9 2 0 0 0 12.018322
2966 5 -16.5300007 10.2299996 11.87 0 0 0 0 12 0 0 0 0 11.4240027
2994 4 -7.625 -14.8999996 -14.4799996 0 0 0 1 10 4 0 0 0 12.6225558
3025 2 -13.75 -9.4239998 -3.5650001 0 0 0 1 10 2 0 0 0 12.1043873
3038 2 -14.8299999 6.3239999 19.9400006 0 0 0 0 12 0 0 0 0 11.4397812
3060 4 -8.0509996 20.9200002 -15.5 0 0 0 0 12 0 0 0 0 11.225337
3113 2 -16.1100006 -19.1800003 -14.5299998 0 0 1 1 9 2 0 0 0 11.8534994
3151 4 -13.7799998 16.4899998 20.5 0 0 0 2 10 2 0 0 0 12.2456989
3189 5 -16.8500004 -14.29 18.7999993 0 0 0 1 10 3 0 0 0 12.1134338
3201 5 -13.0200005 19.8600006 -12.9499998 0 0 0 3 8 3 0 0 0 12.6141014
3220 4 -6.5770002 19.5300007 -14.3800001 0 0 0 2 10 2 0 0 0 12.9022284
3230 5 -16.0200005 7.0339999 -6.98 0 0 0 2 8 4 0 0 0 11.9374762
3233 4 -18.2399998 -6.309 14.5500002 0 0 0 1 10 3 0 0 0 12.4338885
3241 4 -10.6300001 21.1800003 -14.4499998 0 0 0 0 12 4 0 0 0 14.2467489
3295 4 -16.5699997 -1.8380001 -19.9200002 0 0 0 0 12 2 0 0 0 12.3061943
3323 5 -14.0500002 0.9885 12.3599997 0 0 0 1 10 4 0 0 0 13.4365378
3343 5 -9.4779997 19.3500004 -6.4320002 0 0 0 0 12 0 0 0 0 11.4154539
3346 2 -14.1499996 -15.9200002 -4.3200002 0 0 0 1 10 2 0 0 0 11.5588265
3357 4 -10.3100004 12.7799998 -6.7789998 0 0 0 3 8 2 0 0 0 11.5398808
3362 1 -15.4899998 -5.6469999 -20.4099999 0 0 0 3 6 3 0 0 0 11.1630936
3365 5 -13.5 -2.7939999 -0.5218 0 0 0 3 5 4 1 0 0 12.0685053
3406 5 -7.8540002 6.3699999 -0.6217 0 0 0 0 12 0 0 0 0 11.3688412
3408 5 -12.8999996 4.4600001 -13.4300003 0 0 0 1 10 4 0 0 0 12.3736458
3456 5 -15.0799999 -19.7099991 6.8930002 0 0 4 1 6 3 0 2 0 12.4846239
3465 5 -9.7200003 0.4593 -8.995 0 0 0 0 12 0 0 0 0 11.2091522
3471 2 -13.0100002 -20.9699994 16.8199997 0 0 0 0 12 0 0 0 0 11.2966948
3482 3 -12.9799996 8.3269997 4.5060001 0 0 1 2 7 4 0 0 0 11.981599
3507 5 -16.9300004 -11.7399998 17.7399998 0 0 1 3 5 7 0 0 0 12.7608977
3536 5 -14.3299999 -22.1100006 1.526 0 0 0 2 9 3 0 0 0 12.106247
3544 4 -8.2080002 2.886 21.5599995 0 0 1 2 9 2 0 0 0 12.7741661
3563 2 -7.9790002 -7.481 -22.1499996 0 0 0 1 10 2 0 0 0 11.6721077
3569 2 -14.0200005 -6.6479998 -13.3599997 0 0 0 0 12 0 0 0 0 11.4353943
3589 4 -14.6300001 -7.2379999 -8.3509998 0 0 0 1 10 2 0 0 0 11.8229866
3694 4 -19.3700009 -3.3010001 17.4699993 0 0 0 1 10 4 0 0 0 12.6367312
3744 4 -11.79 -18.4300003 13.8999996 0 0 0 0 12 2 0 0 0 12.3031254
3752 4 -6.289 -5.2859998 -17.7399998 0 0 1 1 9 3 2 0 0 12.9990798
3825 4 -17.6000004 13.6300001 9.5349999 0 0 0 0 12 4 0 0 0 13.7406788
3896 4 -14.8900004 -3.478 -20.6499996 0 0 0 3 6 4 0 0 0 11.2122212
3898 4 -12.9899998 -5.744 18.6499996 0 0 1 3 8 3 1 0 0 12.821146
3909 5 -18.6100006 20.9799996 -18.5900002 0 0 1 3 5 5 0 0 0 12.5565176
3952 4 -8.0410004 -3.6229999 -15.7399998 0 0 1 1 8 3 1 0 0 12.2150822
3954 4 -11.8800002 20.2099991 -6.816 0 0 0 0 12 3 0 0 0 13.0754614
3973 4 -16.5599995 -3.5320001 -6.4419999 0 0 1 4 7 3 0 0 0 12.6873007
3978 5 -5.494 -15.7600003 20.7900009 0 0 0 3 6 4 0 0 0 12.0130863
3988 2 -8.2869997 11.0900002 -7.197 0 0 0 1 9 2 1 0 0 11.5612622
3991 2 -10.3500004 -8.9189998 -15.8100004 0 0 0 2 8 1 0 0 0 11.3111296
4029 2 -17.9799996 -21.4500008 7.8530002 0 0 2 2 5 1 3 0 0 11.3907404
4041 5 -13.1599999 1.999 -14.1000004 0 0 0 3 8 3 0 0 0 12.5453129
4078 5 -18.7299996 18.8400002 5.2940002 0 0 0 3 6 4 0 0 0 11.5295382
4085 2 -14.4799996 19.0400009 -2.615 0 0 0 1 10 2 0 0 0 12.1145811
4092 4 -9.0620003 -9.9329996 20.7399998 0 0 0 0 12 2 0 0 0 12.11514
4098 3 -12.5699997 18.8999996 16.0799999 0 0 0 0 12 0 0 0 0 11.1050043
4118 5 -15.3800001 14.6300001 19.1499996 0 0 0 1 10 3 0 0 0 12.0227232
4137 2 -5.3730002 -5.461 11.7700005 0 0 0 0 12 0 0 0 0 11.2103624
4152 2 -7.415 -3.2160001 2.7679999 0 0 0 5 6 2 0 0 0 11.6637888
4212 5 -18.2299996 -0.3495 -5.6409998 0 0 0 3 8 4 0 0 0 11.9176188
4219 4 -11.1499996 -19.9099998 15.8100004 0 0 0 0 12 0 0 0 0 11.0880642
4229 4 -13.29 -2.4830001 -14.2399998 0 0 0 0 12 2 0 0 0 12.0528221
4284 2 -6.5149999 11.9399996 -3.2590001 0 0 0 0 12 0 0 0 0 11.5699635
4294 4 -10.5299998 -21.8700008 17.5799999 0 0 0 2 10 3 0 0 0 12.9589634
4297 1 -13.5500002 -22.1599999 -7.6690002 0 0 1 1 8 3 1 0 0 11.7951317
4352 4 -13.9099998 4.7690001 -3.356 0 0 0 3 8 2 0 0 0 11.9001408
4353 4 -10.0600004 14.2200003 -15.2399998 0 0 2 2 10 2 0 0 0 13.1352682
4361 4 -5.3470001 17.4899998 14.8999996 0 0 1 3 5 5 0 0 0 12.8923408
4384 5 -12.5100003 -18.8899994 2.9660002 0 0 0 3 6 4 0 0 0 11.1643076
4385 5 -13.6499996 -1.428 8.3129997 0 0 1 2 9 3 0 0 0 12.9314052
4404 4 -12.4600001 -21.7000008 19.2800007 0 0 0 2 10 2 0 0 0 13.0157337
4408 4 -11.4700003 8.8389998 15.75 0 0 0 2 10 1 0 0 0 12.313035
4445 5 -19.5300007 -17.0799999 11.2399998 0 0 0 4 6 3 0 0 0 12.5263853
4446 2 -7.1929998 -20.9899998 -17.2999992 0 0 0 1 10 3 0 0 0 11.9261246
4462 2 -10.87 12.4300003 1.48 0 0 0 0 12 0 0 0 0 10.7842102
4466 4 -12.5699997 -7.936 19.7399998 0 0 0 0 12 3 0 0 0 12.2074022
4562 2 -12.8299999 -13.3999996 12.1700001 0 0 0 3 7 2 0 0 0 11.5054198
4581 2 -7.5809999 1.002 -2.79 0 0 0 0 12 0 0 0 0 11.1361094
4586 4 -8.922 13.4300003 14.5600004 0 0 0 0 12 0 0 0 0 11.9212704
4614 4 -15.6400004 16.8700008 0.9232 0 0 0 2 8 4 0 0 0 13.311635
4625 1 -6.7880001 -9.5200005 -17.9799996 0 0 0 0 12 0 0 0 0 10.7787781
4687 5 -10.6700001 5.1539998 15.7200003 0 0 0 2 10 0 0 0 0 11.079524
4741 2 -9.3839998 -11.6099997 18.7600003 0 0 0 0 12 0 0 0 0 11.6715946
4745 2 -16.9400006 -0.9852 20.2099991 0 0 0 0 12 0 0 0 0 11.7175608
4764 4 -10.9499998 -6.5300002 1.1210001 0 0 1 1 9 5 0 0 0 13.0341501
4790 4 -6.1690002 -7.5149999 5.1360002 0 0 1 1 9 3 0 0 0 12.5412798
4801 4 -17.7900009 17.6100006 -8.1040001 0 0 1 1 8 3 1 0 0 12.0241308
4824 2 -8.5749998 2.5280001 -9.3190003 0 0 0 0 12 0 0 0 0 11.1983461
4838 5 -13.6599999 -10.4399996 1.688 0 0 0 2 8 5 0 0 0 12.723217
4936 4 -7.9109998 4.961 -5.2100001 0 0 0 2 10 1 0 0 0 12.4924164
4941 2 -14.1800003 -15.2799997 -21.5499993 0 0 1 0 9 3 0 0 0 11.7254591
4976 5 -7.6550002 -2.7060001 -18.1900005 0 0 0 2 8 3 0 0 0 12.1813183
4981 4 -11.1599999 -7.5619998 7.131 0 0 0 2 8 3 0 0 0 11.9632006
4994 3 -16.3799992 9.8950006 0.8118 0 0 1 1 10 2 1 0 0 13.4862356
5027 4 -17.4099999 3.3380001 -15.2100001 0 0 0 2 8 5 0 0 0 12.4278345
5062 5 -19.3400002 -1.882 6.553 0 0 0 1 9 2 1 0 0 12.3680725
5072 4 -19.3500004 -4.1339998 10.4399996 0 0 0 0 12 2 0 0 0 12.3396063
5084 4 -6.2870002 4.092 7.389 0 0 0 4 4 7 0 0 0 13.1465845
5120 5 -5.9850002 5.717 -9.0679998 0 0 0 2 8 2 0 0 0 11.5219622
5123 4 -11.6499996 -10.6000004 -3.951 0 0 0 2 8 5 0 0 0 11.6883469
5142 2 -5.1659999 15.8500004 -19.0699997 0 0 1 0 9 3 0 0 0 11.6189204
5158 2 -18.9300004 7.1789999 9.4860001 0 0 0 3 5 4 1 0 0 11.2904139
5162 2 -16.9599992 4.9200002 -21.4899998 0 0 0 1 10 3 0 0 0 11.8927108
5169 2 -16.9799996 2.7219999 15.5500002 0 0 0 0 12 0 0 0 0 11.879736
5176 4 -9.6949997 -7.7989998 -0.5622 0 0 0 1 10 3 0 0 0 12.8462286
5206 5 -7.3759999 -17.4899998 -11.3599997 0 0 0 0 12 2 0 0 0 12.3547001
5221 2 -12.5100003 11.8199997 -6.8369999 0 0 0 2 8 2 0 0 0 11.3187485
5237 4 -9.2849999 -7.2020001 -20.0599995 0 0 0 1 10 2 0 0 0 11.77946
5261 4 -9.3070002 15.2700005 12.7700005 0 0 0 2 10 2 0 0 0 12.8270941
5270 2 -9.3520002 -10.9300004 10.5900002 0 0 0 2 8 3 0 0 0 11.7547817
5290 2 -11.7700005 15.4200001 4.2459998 0 0 2 2 4 4 0 1 0 11.7065153
5291 2 -19.3799992 -1.861 11.2700005 0 0 0 2 8 2 0 0 0 11.8779526
5321 5 -4.8369999 21.3299999 -21.1900005 0 0 0 3 8 4 0 0 0 12.1086874
5335 2 -14.9399996 -20.0499992 0.156 0 0 0 3 8 2 0 0 0 11.5466051
5457 4 -11.7399998 -16.0499992 -15.7100001 0 0 0 3 6 6 0 0 0 12.2506571
5465 5 -14.3699999 -3.744 -4.698 0 0 0 1 10 5 0 0 0 13.8173218
5481 5 -15.7600003 8.2040005 -4.5390001 0 0 0 0 12 2 0 0 0 12.6497555
5497 4 -10.8000002 -18.5699997 1.4170001 0 0 0 3 6 4 0 0 0 11.1309547
5511 2 -17.3199997 -20.0 20.7700005 0 0 0 2 8 2 0 0 0 11.5478144
5520 4 -9.7679997 6.4699998 -8.4350004 0 0 0 1 10 2 0 0 0 12.0042467
5543 5 -10.5600004 -20.6599999 13.4399996 0 0 0 0 12 0 0 0 0 11.5206013
5552 4 -15.96 -16.3899994 -6.0970001 0 0 0 1 10 2 0 0 0 12.3036833
5560 4 -15.2399998 -2.964 -2.421 0 0 0 1 10 3 0 0 0 13.2278443
5564 4 -11.7299996 -6.4749999 -21.2600002 0 0 0 3 6 4 0 0 0 11.1715126
5665 3 -7.217 16.6800003 2.48 0 0 0 1 10 2 0 0 0 11.7826262
5668 4 -13.6599999 13.7200003 4.2470002 0 0 0 2 8 5 0 0 0 12.9823284
5682 4 -8.3629999 -1.248 20.9799996 0 0 0 1 10 4 0 0 0 12.303587
5686 4 -7.8130002 3.454 -2.892 0 0 0 3 7 4 1 0 0 12.7925797
5693 4 -18.2600002 -1.614 8.9350004 0 0 0 0 12 2 0 0 0 12.4551363
5709 4 -17.9899998 -14.0200005 7.2399998 0 0 0 0 12 2 0 0 0 12.1399698
5734 2 -16.9699994 -10.2100001 2.0469999 0 0 0 2 8 4 0 0 0 12.3119307
5756 4 -9.7100001 -14.3400002 -8.4040003 0 0 1 1 8 4 1 0 0 12.2897921
5769 4 -19.3700009 10.3599997 -20.0599995 0 0 0 0 12 2 0 0 0 12.8643446
5776 2 -15.0 -0.1351 -18.3700009 0 0 0 1 10 3 0 0 0 12.5168448
5780 4 -19.5699997 -7.421 -5.0040002 0 0 0 1 10 3 0 0 0 11.9007292
5795 2 -10.4700003 -13.5699997 5.454 0 0 0 1 10 2 0 0 0 11.2228375
5810 4 -16.8799992 6.6030002 11.0 0 0 0 1 10 2 0 0 0 12.3076334
5817 4 -8.3900004 15.8999996 -21.8999996 0 0 0 0 12 3 0 0 0 13.478776
5859 1 -8.8830004 8.6800003 -16.3400002 0 0 0 0 12 0 0 0 0 11.0754051
5890 5 -16.1599999 -0.009082 -16.0799999 0 0 1 2 9 2 0 0 0 12.0862742
5915 5 -12.3800001 14.1300001 2.106 0 0 0 0 12 0 0 0 0 11.2350655
5938 4 -14.2799997 7.3200002 -8.5010004 0 0 1 0 11 1 0 0 0 11.6954222
5949 4 -17.0699997 -8.75 4.073 0 0 0 1 10 2 0 0 0 11.4535132
5979 2 -13.8500004 20.6599999 5.606 0 0 0 0 12 0 0 0 0 11.2531996
6007 5 -14.8000002 4.395 16.3999996 0 0 0 1 10 5 0 0 0 13.4593315
6021 2 -9.2329998 -17.3500004 -0.2414 0 0 0 1 10 2 0 0 0 11.4394264
6067 5 -7.5050001 -14.8000002 16.9799996 0 0 1 4 4 5 1 0 0 12.364255
6217 4 -12.0900002 -17.4699993 -4.4829998 0 0 1 3 6 3 1 0 0 12.5119019
6244 4 -8.2980003 -7.619 19.5699997 0 0 0 1 10 3 0 0 0 12.2554875
6254 4 -11.5799999 -8.4289999 -5.105 0 0 0 1 10 4 0 0 0 12.4812355
6269 5 -13.5 8.0389996 13.8800002 0 0 1 2 7 3 0 0 0 11.161006
6281 4 -9.4969998 -21.5 -16.2800007 0 0 0 0 12 0 0 0 0 11.1867828
6297 4 -14.0900002 13.7399998 -7.658 0 0 0 2 10 2 0 0 0 12.531476
6316 3 -15.4399996 21.0799999 7.605 0 0 0 0 12 2 0 0 0 12.5179377
6317 4 -13.7299996 -17.4300003 18.9099998 0 0 0 1 10 2 0 0 0 11.9251118
6330 2 -17.2800007 -15.7299996 -11.1800003 0 0 0 0 12 0 0 0 0 11.3559437
6339 2 -15.8400002 15.7100001 9.6300001 0 0 0 0 12 0 0 0 0 11.3402357
6346 4 -7.889 -15.7299996 -4.914 0 0 0 6 1 6 1 0 0 12.7222271
6361 5 -15.7100001 -15.3400002 14.7100001 0 0 1 1 11 2 0 0 0 13.0178003
6371 3 -18.5400009 -0.1918 12.8299999 0 0 0 2 8 5 0 0 0 12.5592995
6374 5 -17.1599999 15.0500002 11.7299996 0 0 0 2 8 3 0 0 0 12.1038466
6411 4 -5.9590002 19.1399994 -21.2099991 0 0 0 2 8 4 0 0 0 11.8101712
6425 4 -17.6000004 -4.3810001 -1.329 0 0 0 2 10 3 0 0 0 12.88548
6428 5 -16.1299992 12.5699997 -3.7560001 0 0 0 0 12 2 0 0 0 11.9889508
6429 4 -13.5600004 20.9699994 15.1000004 0 0 0 1 10 4 0 0 0 13.0018253
6458 2 -12.0 9.7060004 -3.4979999 0 0 0 0 12 0 0 0 0 11.5551243
6468 5 -8.7229996 15.1400003 -1.066 0 0 0 1 12 2 0 0 0 13.2388735
6473 2 -13.2399998 13.0 14.5900002 0 0 0 0 12 2 0 0 0 12.0966263
6522 1 -17.6100006 19.9599992 16.6900006 0 0 1 0 9 3 0 0 0 11.5959721
6587 4 -18.1399994 -1.236 -16.2800007 0 0 0 2 8 2 0 0 0 11.1691685
6599 5 -9.1490002 8.7030001 16.7000008 0 0 0 1 10 2 0 0 0 12.5562439
6614 4 -12.6099997 -3.5320001 -7.1479998 0 0 0 1 10 3 0 0 0 12.965315
6645 2 -10.3500004 18.2800007 -19.0 0 0 0 0 12 0 0 0 0 11.2594795
6664 2 -10.29 3.651 20.3600006 0 0 0 0 12 0 0 0 0 12.0422726
6672 1 -16.8999996 -4.6240001 -9.6079998 0 0 0 4 5 4 1 0 0 12.6376314
6682 5 -10.96 -19.2099991 -0.7438 0 0 0 2 8 3 0 0 0 11.8572398
6694 2 -12.6700001 -3.918 -9.7980004 0 0 0 0 12 0 0 0 0 11.0774279
6708 2 -15.29 -13.7200003 17.0100002 0 0 0 0 12 0 0 0 0 11.6308365
6714 2 -9.9200002 -8.1669998 -6.9780002 0 0 0 0 12 0 0 0 0 11.6119643
6735 4 -16.7700005 13.1599999 -10.9099998 0 0 0 2 10 2 0 0 0 12.8811436
6768 2 -15.1300001 7.9530002 5.0190001 0 0 0 2 8 3 0 0 0 11.6606446
6775 4 -17.9599992 17.5599995 -10.5799999 0 0 0 3 8 2 0 0 0 11.7760506
6779 5 -10.9499998 -16.7399998 -19.7999993 0 0 0 0 12 2 0 0 0 13.393158
6781 2 -9.7390003 -15.8100004 6.0149999 0 0 0 0 12 0 0 0 0 11.5648241
6791 2 -17.8500004 15.4899998 14.5799999 0 0 1 2 7 4 0 0 0 12.395462
6799 4 -9.3470001 -7.204 -14.29 0 0 0 2 10 3 0 0 0 13.0080185
6808 5 -8.0480003 4.5679999 5.6479998 0 0 0 3 6 4 0 0 0 11.9521676
6816 2 -6.6669998 11.4700003 -18.0599995 0 0 0 6 4 2 0 0 0 11.6156349
6826 4 -8.9560004 3.6700001 -11.4399996 0 0 1 2 9 3 0 0 0 12.943142
6887 4 -6.6220002 -11.1199999 -6.6360002 0 0 0 0 12 3 0 0 0 13.0136843
6891 4 -17.4300003 17.3400002 -5.6680002 0 0 0 2 10 4 0 0 0 13.1145735
6916 4 -5.6479998 -19.3600006 9.7270003 0 0 0 2 10 3 0 0 0 13.4860096
6994 4 -13.9799996 20.2000008 10.1300001 0 0 0 2 8 5 0 0 0 12.9548808
7014 2 -20.1200008 -21.8700008 -3.017 0 0 1 3 3 7 0 0 0 11.538002
7039 4 -7.1799998 0.2156 -14.0200005 0 0 0 0 12 3 0 0 0 12.837471
7058 5 -16.3400002 7.9980002 -13.5 0 0 0 2 8 4 0 0 0 12.0553694
7086 2 -12.8199997 -6.8299999 -18.2800007 0 0 0 1 10 3 0 0 0 12.6020193
7090 1 -7.277 -6.868 -0.9671 0 0 0 2 8 2 0 0 0 11.294344
7092 4 -8.8640004 18.3099995 6.085 0 0 1 0 9 3 0 0 0 11.8747932
7100 5 -8.2469998 -7.75 -8.9390002 0 0 0 2 8 4 0 0 0 13.0721159
7130 5 -13.4499998 -9.7530003 17.8600006 0 0 1 1 9 2 0 0 0 11.855857
7150 4 -12.4499998 -2.4370001 -2.8050001 0 0 0 3 8 5 0 0 0 13.3378182
7157 4 -15.3800001 2.675 0.8401 0 0 1 0 10 4 1 0 0 13.3863955
7187 4 -10.7100001 -17.3500004 4.276 0 0 0 1 10 2 0 0 0 11.7152195
7191 2 -5.665 9.9460002 17.9200002 0 0 0 0 12 0 0 0 0 11.6090737
7250 4 -5.4889999 16.9200002 9.7010002 0 0 1 2 7 2 2 0 0 12.0125723
7315 4 -7.5650001 -16.6700001 -16.2199993 0 0 1 2 9 3 0 0 0 12.2660446
7318 2 -16.7299996 -4.1409998 -18.6599999 0 0 0 3 6 4 0 0 0 11.8743344
7349 2 -7.309 -19.6599999 -13.1199999 0 0 0 3 6 4 0 0 0 11.3283138
7387 2 -6.5739999 -0.6635 8.375 0 0 0 0 12 0 0 0 0 11.5627346
7400 5 -17.8099995 -15.8999996 -18.75 0 0 0 2 8 4 0 0 0 12.3955345
7442 4 -11.1000004 6.8400002 17.7700005 0 0 0 1 12 2 0 0 0 13.3016968
7482 4 -16.7099991 -10.0100002 6.3390002 0 0 0 1 10 2 0 0 0 12.3854971
7510 4 -5.626 -21.9799996 18.2099991 0 0 0 4 4 7 0 0 0 12.5571747
7520 4 -13.5699997 -15.8800002 -19.2600002 0 0 1 2 7 5 0 0 0 12.8367996
7551 2 -8.6949997 6.5240002 -15.1999998 0 0 0 4 8 2 0 0 0 12.358552
7570 5 -16.8299999 6.9190002 8.5690003 0 0 0 1 10 3 0 0 0 12.0774326
7642 2 -17.1800003 7.7379999 15.4700003 0 0 0 0 12 0 0 0 0 11.1310778
7657 4 -18.6000004 9.0439997 11.0699997 0 0 0 2 8 4 0 0 0 12.3146143
7658 4 -9.2460003 16.9899998 -5.2100001 0 0 0 1 12 1 0 0 0 12.0341959
7664 4 -6.7160001 -11.1300001 4.2410002 0 0 0 0 12 3 0 0 0 13.2841978
7682 2 -15.7600003 9.3339996 16.6000004 0 0 1 1 9 1 0 0 0 10.832799
7700 4 -12.4399996 -15.5100003 -2.6070001 0 0 0 1 10 2 0 0 0 11.9379302
7702 4 -13.5500002 -13.9799996 -17.2700005 0 0 0 2 8 3 0 0 0 12.0921726
7736 2 -17.1900005 15.9300004 -0.8943 0 0 0 0 12 3 0 0 0 12.5256863
7792 4 -8.0200005 -10.7399998 2.1919999 0 0 0 0 12 2 0 0 0 12.1211643
7842 4 -14.7799998 17.7000008 -13.3500004 0 0 0 2 10 1 0 0 0 11.8524218
7846 5 -9.4700003 0.07965 -22.1299992 0 0 0 2 8 4 0 0 0 12.8094626
7849 4 -9.6859999 -20.8999996 -8.731 0 0 0 1 10 2 0 0 0 11.9257928
7851 1 -18.5699997 16.9300004 4.0890002 0 0 1 3 5 5 0 0 0 11.8025198
7859 5 -12.8500004 -20.7900009 -20.2000008 0 0 0 0 12 0 0 0 0 10.860385
7935 5 -9.3330002 16.2099991 -11.8400002 0 0 0 1 10 2 0 0 0 11.8369599
7950 2 -18.5 6.4169998 -7.0110002 0 0 0 4 6 2 0 0 0 11.170475
7953 4 -18.7700005 10.6000004 13.0900002 0 0 0 2 8 5 0 0 0 12.6170922
7977 5 -7.8379998 -9.3149996 -1.707 0 0 0 3 6 6 0 0 0 12.6445303
8006 4 -11.9499998 -12.0299997 7.3020001 0 0 0 1 10 2 0 0 0 12.3074179
8050 4 -6.875 -14.5200005 -10.6899996 0 0 0 3 8 4 0 0 0 13.1949349
8096 4 -20.0499992 -10.3900004 15.04 0 0 0 0 12 3 0 0 0 12.3603773
8113 2 -8.4840002 3.9630002 16.25 0 0 1 1 9 2 0 0 0 11.4955015
8133 4 -14.96 11.1800003 -11.6599999 0 0 0 3 5 5 1 0 0 12.0004311
8141 2 -15.1099997 20.4500008 -16.6700001 0 0 0 4 4 3 0 0 0 11.7829657
8161 2 -5.0630002 3.22 -16.3299999 0 0 0 1 10 2 0 0 0 12.177743
8177 4 -10.79 7.3369999 -3.4979999 0 0 0 2 10 2 0 0 0 12.9421244
8191 2 -10.4899998 11.7399998 10.3000002 0 0 0 0 12 0 0 0 0 11.3547239
8203 2 -14.5200005 -7.9629998 9.863 0 0 0 0 12 0 0 0 0 11.7198096
8215 5 -18.7000008 5.3629999 -15.8299999 0 0 0 0 12 3 0 0 0 12.6562996
8238 2 -11.8599998 11.0900002 -17.3799992 0 0 1 2 5 4 0 0 0 10.988865
8278 4 -19.0400009 -9.1160002 5.962 0 0 0 2 8 4 0 0 0 12.2738209
8281 4 -9.9139996 15.6400004 15.3699999 0 0 0 1 12 2 0 0 0 13.5965929
8378 5 -17.2199993 0.05677 -21.9300004 0 0 0 0 12 2 0 0 0 12.4072638
8384 4 -13.54 -1.833 13.0500002 0 0 0 3 6 5 0 0 0 12.3075314
8401 5 -6.8220001 -15.3999996 13.8500004 0 0 1 2 7 6 0 0 0 12.0265894
8406 2 -10.8400002 14.4300003 0.2719 0 0 0 1 10 2 0 0 0 12.2547627
8411 4 -14.3900004 12.3699999 -9.7229996 0 0 0 1 10 2 0 0 0 11.5860081
8426 2 -16.2999992 5.0139999 -11.4099999 0 0 0 0 12 0 0 0 0 11.1804953
8439 4 -18.7700005 -0.667 -9.7449999 0 0 0 3 6 5 0 0 0 12.6473313
8440 5 -15.8800002 19.6200009 1.018 0 0 0 1 10 2 0 0 0 12.3756666
8454 4 -17.9500008 10.1400003 -14.8500004 0 0 0 2 8 4 0 0 0 12.0045595
8495 4 -9.2370005 -18.9300004 14.5500002 0 0 0 3 7 4 1 0 0 12.584486
8505 5 -18.7000008 20.1800003 14.6899996 0 0 0 0 12 0 0 0 0 10.6831637
8526 5 -11.8199997 5.414 -2.355 0 0 1 2 5 6 0 0 0 13.0115042
8574 2 -12.1000004 9.5649996 -14.0 0 0 0 2 8 4 0 0 0 11.3833332
8695 5 -12.3599997 -16.3999996 15.4099999 0 0 1 2 7 3 0 0 0 12.1489515
8708 1 -15.0200005 20.8700008 -0.9938 0 0 0 0 12 0 0 0 0 11.5732508
8727 5 -11.4300003 12.9899998 8.3299999 0 0 0 0 12 2 0 0 0 12.5020027
8754 5 -10.1199999 -15.1599999 -1.414 0 0 1 2 7 4 0 0 0 12.4314394
8755 5 -9.8900004 4.809 18.1299992 0 0 0 0 12 2 0 0 0 12.1869869
8762 5 -8.4580002 -16.4400006 15.3500004 0 0 1 2 6 3 1 0 0 11.9779482
8763 4 -11.9499998 -20.0300007 11.3400002 0 0 0 1 10 4 0 0 0 12.817832
8775 5 -12.6300001 -9.6049996 6.9380002 0 0 0 1 10 4 0 0 0 12.8890562
8809 4 -7.857 -9.8870002 18.3099995 0 0 0 1 10 2 0 0 0 11.9018316
8822 5 -12.6499996 -2.401 10.6599999 0 0 0 2 8 4 0 0 0 11.8513508
8828 4 -15.3100004 17.7900009 -19.6499996 0 0 0 4 6 3 0 0 0 11.846798
8917 1 -5.2719998 6.2399998 2.649 0 0 1 0 10 1 1 0 0 11.3966522
8965 5 -13.0600004 -19.4099999 20.3500004 0 0 0 3 8 2 0 0 0 12.1840067
9001 1 -15.9899998 19.3299999 -21.4400006 0 0 0 1 10 3 0 0 0 12.0507698
9093 4 -6.6529999 -3.731 13.1300001 0 0 0 1 10 4 0 0 0 12.4002056
9108 4 -11.5 -4.1149998 -21.7099991 0 0 0 3 6 4 0 0 0 11.8096972
9118 2 -14.6700001 20.7299996 3.0710001 0 0 0 2 10 2 0 0 0 11.8107939
9181 4 -19.3999996 -21.3099995 3.672 0 0 1 1 9 3 0 0 0 12.0794315
9263 4 -6.3379998 3.681 19.4599991 0 0 0 1 10 2 0 0 0 11.5263367
9264 5 -8.165 10.1400003 18.6800003 0 0 0 0 12 4 0 0 0 14.2970963
9290 4 -11.1800003 -10.5500002 -6.6500001 0 0 0 0 12 2 0 0 0 12.0187941
9292 5 -6.7249999 -18.3400002 -1.115 0 0 0 1 10 4 0 0 0 12.7906494
9304 4 -18.9699994 -4.5380001 -8.0200005 0 0 2 3 5 4 1 0 0 13.1203356
9320 5 -17.3799992 -6.7119999 -20.0900002 0 0 0 3 8 2 0 0 0 12.8577538
9349 2 -6.3639999 -4.3569999 -9.9860002 0 0 0 1 10 2 0 0 0 12.6350594
9364 2 -11.6099997 -12.6800003 16.0200005 0 0 0 3 6 3 0 0 0 11.6015015
9390 5 -13.0500002 18.3899994 -8.7790003 0 0 0 1 10 2 0 0 0 13.0761118
9432 5 -5.6370001 15.2700005 -21.7000008 0 0 0 0 12 4 0 0 0 13.6775322
9433 4 -12.04 -9.4680004 13.0900002 0 0 0 1 10 4 0 0 0 13.453867
9438 4 -16.9300004 -16.8199997 10.1800003 0 0 0 0 12 3 0 0 0 13.1242371
9451 5 -11.1199999 20.9300004 15.8599998 0 0 0 4 6 4 0 0 0 12.5113964
9465 2 -16.8999996 -11.1599999 20.25 0 0 0 4 4 5 0 0 0 11.474123
9484 1 -8.969 4.7529998 -17.7800007 0 0 1 3 5 4 0 0 0 12.0802765
9510 5 -7.7529998 -12.5 12.8199997 0 0 0 2 10 4 0 0 0 13.6048889
9514 5 -13.7200003 16.1000004 3.1129999 0 0 2 2 5 4 1 0 0 12.9601822
9518 5 -6.4829998 -4.8070002 -1.803 0 0 0 3 8 4 0 0 0 12.8265496
9525 4 -15.6199999 -10.1999998 10.3999996 0 0 0 1 10 4 0 0 0 13.3991957
9542 5 -17.3299999 -5.027 16.6200009 0 0 0 0 12 0 0 0 0 11.0196323
9549 4 -6.8920002 -5.7340002 3.2620001 0 0 0 1 9 2 1 0 0 12.6229124
9645 5 -15.6700001 -12.6099997 -17.1000004 0 0 0 1 10 2 0 0 0 12.4190989
9646 2 -17.6399994 -9.5019999 -11.5500002 0 0 0 0 12 0 0 0 0 11.6745959