ITEM: TIMESTEP
0
ITEM: NUMBER OF ATOMS
16384
ITEM: BOX BOUNDS pp pp pp
0.0000000000000000e+00 3.1323047529388202e+01
0.0000000000000000e+00 3.1323047529388202e+01
0.0000000000000000e+00 3.1323047529388202e+01
ITEM: ATOMS id type x y z
1 4 0 0 0
2 4 0.986614 0.986614 0
3 4 2.95984 0.986614 0
4 4 2.95984 0 0.986614
5 4 1.97323 0.986614 0.986614
32 4 0.986614 1.97323 0.986614
33 4 0 2.95984 0.986614
34 4 2.95984 1.97323 0.986614
35 4 1.97323 2.95984 0.986614
522 4 2.95984 0 2.95984
523 4 1.97323 0.986614 2.95984
553 4 0.986614 2.95984 1.97323
554 4 0 2.95984 2.95984
555 4 2.95984 2.95984 1.97323
556 4 2.95984 1.97323 2.95984
557 4 1.97323 2.95984 2.95984
8193 2 0 0 0
8194 2 0.986614 0.986614 0
8195 2 0.986614 0 0.986614
8196 2 0 0.986614 0.986614
8197 2 2.95984 0 0.986614
8226 2 0 1.97323 0
8227 2 0.986614 2.95984 0
8228 2 2.95984 1.97323 0.986614
8730 2 0.986614 0.986614 1.97323
8731 2 0 0.986614 2.95984
8732 2 2.95984 0.986614 1.97323
8733 2 2.95984 0 2.95984
8734 2 1.97323 0.986614 2.95984
8760 2 1.97323 1.97323 1.97323
8761 2 2.95984 2.95984 1.97323
6 4 4.93307 0 0.986614
7 4 3.94646 0.986614 0.986614
8 4 6.9063 0.986614 0
9 4 6.9063 0 0.986614
10 4 5.91969 0.986614 0.986614
36 4 3.94646 1.97323 0
37 4 4.93307 2.95984 0
38 4 4.93307 1.97323 0.986614
39 4 3.94646 2.95984 0.986614
40 4 6.9063 2.95984 0
41 4 6.9063 1.97323 0.986614
42 4 5.91969 2.95984 0.986614
524 4 4.93307 0 2.95984
525 4 6.9063 0.986614 1.97323
526 4 6.9063 0 2.95984
527 4 5.91969 0.986614 2.95984
558 4 3.94646 1.97323 1.97323
559 4 4.93307 1.97323 2.95984
560 4 3.94646 2.95984 2.95984
561 4 5.91969 1.97323 1.97323
562 4 6.9063 2.95984 1.97323
8198 2 3.94646 0 0
8199 2 4.93307 0.986614 0
8200 2 6.9063 0.986614 0
8229 2 3.94646 1.97323 0
8230 2 4.93307 2.95984 0
8735 2 3.94646 0 1.97323
8736 2 4.93307 0 2.95984
8737 2 3.94646 0.986614 2.95984
8738 2 6.9063 0 2.95984
8739 2 5.91969 0.986614 2.95984
8762 2 4.93307 2.95984 1.97323
8763 2 4.93307 1.97323 2.95984
8764 2 5.91969 2.95984 2.95984
11 4 7.89291 0 0
12 4 7.89291 0.986614 0.986614
43 4 7.89291 1.97323 0
44 4 8.87953 2.95984 0
45 4 7.89291 2.95984 0.986614
47 4 9.86614 2.95984 0.986614
528 4 7.89291 0 1.97323
529 4 8.87953 0 2.95984
531 4 9.86614 0.986614 2.95984
563 4 8.87953 2.95984 1.97323
564 4 8.87953 1.97323 2.95984
565 4 9.86614 1.97323 1.97323
8201 2 8.87953 0 0.986614
8203 2 9.86614 0.986614 0.986614
8231 2 7.89291 1.97323 0
8232 2 8.87953 1.97323 0.986614
8740 2 7.89291 0 1.97323
8741 2 7.89291 0.986614 2.95984
8742 2 9.86614 0.986614 2.95984
8765 2 8.87953 2.95984 1.97323
8766 2 8.87953 1.97323 2.95984
8767 2 7.89291 2.95984 2.95984
8769 2 9.86614 2.95984 2.95984
13 4 11.8394 0 0
14 4 13.8126 0 0
16 4 13.8126 0.986614 0.986614
46 4 10.8528 1.97323 0.986614
48 4 11.8394 1.97323 0
49 4 12.826 2.95984 0
50 4 12.826 1.97323 0.986614
51 4 11.8394 2.95984 0.986614
52 4 13.8126 2.95984 0.986614
530 4 10.8528 0 2.95984
532 4 12.826 0.986614 1.97323
533 4 12.826 0 2.95984
534 4 13.8126 0 1.97323
535 4 13.8126 0.986614 2.95984
566 4 10.8528 2.95984 1.97323
567 4 10.8528 1.97323 2.95984
568 4 11.8394 1.97323 1.97323
569 4 12.826 2.95984 1.97323
570 4 12.826 1.97323 2.95984
8202 2 10.8528 0 0.986614
8204 2 11.8394 0 0
8205 2 12.826 0.986614 0
8206 2 11.8394 0.986614 0.986614
8207 2 13.8126 0 0
8233 2 10.8528 2.95984 0
8234 2 12.826 2.95984 0
8235 2 12.826 1.97323 0.986614
8236 2 13.8126 1.97323 0
8237 2 13.8126 2.95984 0.986614
8743 2 11.8394 0 1.97323
8744 2 12.826 0.986614 1.97323
8745 2 11.8394 0.986614 2.95984
8746 2 13.8126 0 1.97323
8768 2 10.8528 2.95984 1.97323
8770 2 11.8394 1.97323 1.97323
8771 2 12.826 2.95984 1.97323
8772 2 11.8394 2.95984 2.95984
8773 2 13.8126 1.97323 1.97323
8775 2 13.8126 2.95984 2.95984
15 4 14.7992 0 0.986614
17 4 15.7858 0 0
18 4 16.7724 0.986614 0
19 4 16.7724 0 0.986614
53 4 15.7858 1.97323 0
54 4 16.7724 2.95984 0
55 4 16.7724 1.97323 0.986614
56 4 15.7858 2.95984 0.986614
536 4 15.7858 0 1.97323
537 4 16.7724 0.986614 1.97323
538 4 16.7724 0 2.95984
539 4 15.7858 0.986614 2.95984
571 4 15.7858 1.97323 1.97323
572 4 16.7724 2.95984 1.97323
573 4 16.7724 1.97323 2.95984
574 4 15.7858 2.95984 2.95984
8208 2 14.7992 0 0.986614
8209 2 16.7724 0.986614 0
8238 2 15.7858 1.97323 0
8239 2 16.7724 2.95984 0
8747 2 14.7992 0 2.95984
8748 2 15.7858 0 1.97323
8749 2 15.7858 0.986614 2.95984
8774 2 14.7992 1.97323 2.95984
8776 2 16.7724 2.95984 1.97323
8777 2 15.7858 2.95984 2.95984
20 4 18.7457 0.986614 0
21 4 18.7457 0 0.986614
22 4 20.7189 0.986614 0
57 4 17.7591 1.97323 0
58 4 18.7457 2.95984 0
59 4 17.7591 2.95984 0.986614
60 4 20.7189 1.97323 0.986614
61 4 19.7323 2.95984 0.986614
540 4 19.7323 0 1.97323
575 4 17.7591 1.97323 1.97323
576 4 18.7457 2.95984 1.97323
577 4 17.7591 2.95984 2.95984
578 4 19.7323 2.95984 2.95984
8210 2 18.7457 0.986614 0
8211 2 18.7457 0 0.986614
8212 2 17.7591 0.986614 0.986614
8213 2 19.7323 0 0
8214 2 20.7189 0 0.986614
8215 2 19.7323 0.986614 0.986614
8240 2 18.7457 1.97323 0.986614
8241 2 17.7591 2.95984 0.986614
8242 2 20.7189 1.97323 0.986614
8750 2 18.7457 0.986614 1.97323
8751 2 18.7457 0 2.95984
8752 2 17.7591 0.986614 2.95984
8753 2 19.7323 0.986614 2.95984
8778 2 17.7591 1.97323 1.97323
8779 2 20.7189 1.97323 2.95984
8780 2 19.7323 2.95984 2.95984
23 4 21.7055 0 0
24 4 22.6921 0.986614 0
62 4 22.6921 1.97323 0.986614
63 4 23.6787 1.97323 0
541 4 21.7055 0 1.97323
542 4 22.6921 0.986614 1.97323
545 4 23.6787 0.986614 2.95984
579 4 22.6921 2.95984 1.97323
580 4 22.6921 1.97323 2.95984
581 4 21.7055 2.95984 2.95984
8216 2 22.6921 0.986614 0
8217 2 21.7055 0.986614 0.986614
8218 2 23.6787 0 0
8220 2 23.6787 0.986614 0.986614
8243 2 21.7055 1.97323 0
8244 2 22.6921 2.95984 0
8245 2 23.6787 1.97323 0
8754 2 22.6921 0.986614 1.97323
8755 2 22.6921 0 2.95984
8756 2 23.6787 0.986614 2.95984
8781 2 22.6921 1.97323 2.95984
8782 2 21.7055 2.95984 2.95984
8783 2 23.6787 1.97323 1.97323
8785 2 23.6787 2.95984 2.95984
25 4 24.6654 0.986614 0
26 4 26.6386 0.986614 0
27 4 27.6252 0 0
29 4 27.6252 0.986614 0.986614
64 4 24.6654 2.95984 0
65 4 24.6654 1.97323 0.986614
66 4 26.6386 2.95984 0
67 4 26.6386 1.97323 0.986614
68 4 27.6252 1.97323 0
543 4 24.6654 0.986614 1.97323
544 4 24.6654 0 2.95984
546 4 25.652 0 1.97323
547 4 26.6386 0.986614 1.97323
548 4 26.6386 0 2.95984
549 4 25.652 0.986614 2.95984
550 4 27.6252 0.986614 2.95984
582 4 24.6654 2.95984 1.97323
583 4 25.652 1.97323 1.97323
584 4 26.6386 2.95984 1.97323
8219 2 24.6654 0.986614 0
8221 2 25.652 0 0
8222 2 26.6386 0 0.986614
8223 2 25.652 0.986614 0.986614
8246 2 24.6654 1.97323 0.986614
8247 2 25.652 1.97323 0
8248 2 26.6386 2.95984 0
8249 2 26.6386 1.97323 0.986614
8250 2 25.652 2.95984 0.986614
8251 2 27.6252 1.97323 0
8757 2 25.652 0 1.97323
8758 2 26.6386 0 2.95984
8784 2 24.6654 2.95984 1.97323
8786 2 25.652 2.95984 2.95984
8787 2 27.6252 1.97323 1.97323
28 4 28.6118 0 0.986614
30 4 29.5984 0 0
31 4 30.585 0.986614 0
69 4 28.6118 2.95984 0
70 4 29.5984 1.97323 0
71 4 30.585 2.95984 0
72 4 29.5984 2.95984 0.986614
551 4 29.5984 0 1.97323
552 4 29.5984 0.986614 2.95984
585 4 28.6118 1.97323 2.95984
586 4 30.585 2.95984 1.97323
8224 2 28.6118 0 0.986614
8225 2 29.5984 0 0
8252 2 29.5984 1.97323 0
8253 2 30.585 2.95984 0
8254 2 30.585 1.97323 0.986614
8255 2 29.5984 2.95984 0.986614
8759 2 30.585 0.986614 1.97323
8788 2 28.6118 1.97323 2.95984
8789 2 30.585 2.95984 1.97323
73 4 0.986614 3.94646 0.986614
74 4 2.95984 3.94646 0.986614
75 4 1.97323 4.93307 0.986614
98 4 0.986614 6.9063 0
99 4 0.986614 5.91969 0.986614
100 4 0 6.9063 0.986614
101 4 1.97323 5.91969 0
102 4 2.95984 6.9063 0
103 4 2.95984 5.91969 0.986614
587 4 0 3.94646 1.97323
588 4 0.986614 4.93307 1.97323
589 4 0.986614 3.94646 2.95984
590 4 2.95984 4.93307 1.97323
591 4 1.97323 4.93307 2.95984
611 4 0 6.9063 2.95984
612 4 2.95984 6.9063 1.97323
8256 2 0.986614 3.94646 0.986614
8257 2 0 4.93307 0.986614
8258 2 1.97323 3.94646 0
8259 2 2.95984 4.93307 0
8295 2 0 5.91969 0
8296 2 1.97323 5.91969 0
8297 2 2.95984 6.9063 0
8298 2 2.95984 5.91969 0.986614
8790 2 0 3.94646 1.97323
8791 2 0.986614 3.94646 2.95984
8792 2 0 4.93307 2.95984
8793 2 1.97323 3.94646 1.97323
8794 2 2.95984 4.93307 1.97323
8795 2 1.97323 4.93307 2.95984
8824 2 0 5.91969 1.97323
8825 2 0.986614 6.9063 1.97323
8826 2 1.97323 5.91969 1.97323
76 4 5.91969 3.94646 0
77 4 6.9063 3.94646 0.986614
104 4 3.94646 5.91969 0
105 4 4.93307 5.91969 0.986614
106 4 6.9063 6.9063 0
107 4 6.9063 5.91969 0.986614
613 4 3.94646 5.91969 1.97323
614 4 4.93307 6.9063 1.97323
615 4 3.94646 6.9063 2.95984
616 4 6.9063 6.9063 1.97323
617 4 5.91969 6.9063 2.95984
8260 2 3.94646 3.94646 0
8261 2 4.93307 3.94646 0.986614
8262 2 3.94646 4.93307 0.986614
8263 2 5.91969 3.94646 0
8264 2 5.91969 4.93307 0.986614
8299 2 3.94646 5.91969 0
8300 2 4.93307 6.9063 0
8301 2 5.91969 5.91969 0
8302 2 6.9063 6.9063 0
8303 2 5.91969 6.9063 0.986614
8796 2 4.93307 3.94646 2.95984
8797 2 3.94646 4.93307 2.95984
8798 2 6.9063 4.93307 1.97323
8799 2 5.91969 4.93307 2.95984
8827 2 3.94646 5.91969 1.97323
8828 2 4.93307 6.9063 1.97323
8829 2 6.9063 6.9063 1.97323
8830 2 5.91969 6.9063 2.95984
78 4 8.87953 3.94646 0.986614
108 4 9.86614 5.91969 0
592 4 7.89291 3.94646 1.97323
593 4 8.87953 3.94646 2.95984
594 4 9.86614 3.94646 1.97323
618 4 9.86614 5.91969 1.97323
8265 2 7.89291 3.94646 0
8266 2 8.87953 4.93307 0
8267 2 8.87953 3.94646 0.986614
8268 2 9.86614 3.94646 0
8304 2 8.87953 6.9063 0
8305 2 8.87953 5.91969 0.986614
8800 2 7.89291 4.93307 2.95984
8831 2 7.89291 5.91969 1.97323
8832 2 7.89291 6.9063 2.95984
79 4 10.8528 4.93307 0
80 4 10.8528 3.94646 0.986614
81 4 11.8394 3.94646 0
82 4 12.826 3.94646 0.986614
83 4 13.8126 4.93307 0.986614
109 4 10.8528 6.9063 0
110 4 10.8528 5.91969 0.986614
111 4 11.8394 5.91969 0
112 4 12.826 5.91969 0.986614
113 4 11.8394 6.9063 0.986614
114 4 13.8126 5.91969 0
117 4 13.8126 6.9063 0.986614
595 4 10.8528 4.93307 1.97323
596 4 11.8394 3.94646 1.97323
597 4 12.826 3.94646 2.95984
598 4 13.8126 3.94646 1.97323
619 4 10.8528 5.91969 2.95984
620 4 12.826 6.9063 1.97323
622 4 13.8126 6.9063 2.95984
8269 2 10.8528 4.93307 0
8270 2 10.8528 3.94646 0.986614
8271 2 12.826 4.93307 0
8272 2 11.8394 4.93307 0.986614
8273 2 13.8126 4.93307 0.986614
8306 2 10.8528 6.9063 0
8307 2 12.826 6.9063 0
8308 2 11.8394 6.9063 0.986614
8309 2 13.8126 5.91969 0
8311 2 13.8126 6.9063 0.986614
8801 2 10.8528 4.93307 1.97323
8802 2 10.8528 3.94646 2.95984
8803 2 11.8394 4.93307 2.95984
8804 2 13.8126 3.94646 1.97323
8833 2 12.826 6.9063 1.97323
84 4 16.7724 3.94646 0.986614
115 4 14.7992 6.9063 0
116 4 14.7992 5.91969 0.986614
118 4 15.7858 6.9063 0.986614
599 4 14.7992 4.93307 1.97323
600 4 14.7992 3.94646 2.95984
601 4 16.7724 4.93307 1.97323
602 4 15.7858 4.93307 2.95984
621 4 14.7992 6.9063 1.97323
623 4 15.7858 5.91969 1.97323
624 4 16.7724 6.9063 1.97323
625 4 15.7858 6.9063 2.95984
8274 2 15.7858 3.94646 0
8275 2 16.7724 4.93307 0
8276 2 15.7858 4.93307 0.986614
8310 2 14.7992 5.91969 0.986614
8312 2 15.7858 5.91969 0
8313 2 16.7724 6.9063 0
8805 2 16.7724 4.93307 1.97323
8806 2 16.7724 3.94646 2.95984
8807 2 15.7858 4.93307 2.95984
8834 2 14.7992 6.9063 1.97323
8835 2 15.7858 5.91969 1.97323
8836 2 16.7724 6.9063 1.97323
8837 2 15.7858 6.9063 2.95984
85 4 18.7457 4.93307 0
86 4 17.7591 4.93307 0.986614
87 4 20.7189 3.94646 0.986614
88 4 19.7323 4.93307 0.986614
119 4 17.7591 5.91969 0
120 4 18.7457 6.9063 0
121 4 18.7457 5.91969 0.986614
122 4 17.7591 6.9063 0.986614
123 4 19.7323 5.91969 0
124 4 20.7189 5.91969 0.986614
603 4 17.7591 3.94646 1.97323
626 4 17.7591 5.91969 1.97323
627 4 18.7457 5.91969 2.95984
628 4 19.7323 5.91969 1.97323
629 4 20.7189 6.9063 1.97323
630 4 19.7323 6.9063 2.95984
8277 2 17.7591 3.94646 0
8278 2 18.7457 4.93307 0
8279 2 18.7457 3.94646 0.986614
8280 2 17.7591 4.93307 0.986614
8281 2 19.7323 3.94646 0
8282 2 20.7189 4.93307 0
8283 2 20.7189 3.94646 0.986614
8314 2 17.7591 5.91969 0
8315 2 18.7457 5.91969 0.986614
8316 2 19.7323 5.91969 0
8808 2 17.7591 4.93307 2.95984
8809 2 20.7189 4.93307 1.97323
8810 2 20.7189 3.94646 2.95984
8811 2 19.7323 4.93307 2.95984
8838 2 18.7457 6.9063 1.97323
8839 2 19.7323 5.91969 1.97323
8840 2 20.7189 6.9063 1.97323
8841 2 20.7189 5.91969 2.95984
8842 2 19.7323 6.9063 2.95984
89 4 22.6921 3.94646 0.986614
90 4 21.7055 4.93307 0.986614
92 4 23.6787 4.93307 0.986614
127 4 23.6787 6.9063 0.986614
604 4 21.7055 3.94646 1.97323
605 4 23.6787 4.93307 2.95984
631 4 22.6921 5.91969 2.95984
632 4 21.7055 6.9063 2.95984
633 4 23.6787 5.91969 1.97323
8284 2 22.6921 4.93307 0
8285 2 23.6787 3.94646 0
8317 2 21.7055 5.91969 0
8318 2 21.7055 6.9063 0.986614
8812 2 21.7055 3.94646 1.97323
8813 2 22.6921 4.93307 1.97323
8814 2 22.6921 3.94646 2.95984
8815 2 21.7055 4.93307 2.95984
8816 2 23.6787 3.94646 1.97323
8819 2 23.6787 4.93307 2.95984
8843 2 22.6921 6.9063 1.97323
8844 2 21.7055 6.9063 2.95984
8845 2 23.6787 6.9063 2.95984
91 4 24.6654 4.93307 0
93 4 25.652 4.93307 0.986614
94 4 27.6252 3.94646 0
125 4 24.6654 6.9063 0
126 4 24.6654 5.91969 0.986614
128 4 25.652 5.91969 0
129 4 26.6386 5.91969 0.986614
130 4 27.6252 5.91969 0
606 4 26.6386 3.94646 2.95984
607 4 25.652 4.93307 2.95984
608 4 27.6252 4.93307 2.95984
634 4 25.652 6.9063 2.95984
636 4 27.6252 6.9063 2.95984
8286 2 26.6386 4.93307 0
8287 2 26.6386 3.94646 0.986614
8288 2 25.652 4.93307 0.986614
8289 2 27.6252 3.94646 0
8291 2 27.6252 4.93307 0.986614
8319 2 26.6386 5.91969 0.986614
8320 2 25.652 6.9063 0.986614
8321 2 27.6252 5.91969 0
8322 2 27.6252 6.9063 0.986614
8817 2 24.6654 4.93307 1.97323
8818 2 24.6654 3.94646 2.95984
8820 2 26.6386 3.94646 2.95984
8821 2 27.6252 4.93307 2.95984
8846 2 25.652 6.9063 2.95984
8847 2 27.6252 5.91969 1.97323
8850 2 27.6252 6.9063 2.95984
95 4 29.5984 3.94646 0
96 4 30.585 4.93307 0
97 4 29.5984 4.93307 0.986614
131 4 30.585 6.9063 0
609 4 29.5984 3.94646 1.97323
610 4 30.585 4.93307 1.97323
635 4 28.6118 6.9063 1.97323
637 4 29.5984 5.91969 1.97323
638 4 30.585 5.91969 2.95984
639 4 29.5984 6.9063 2.95984
8290 2 28.6118 4.93307 0
8292 2 29.5984 3.94646 0
8293 2 30.585 4.93307 0
8294 2 29.5984 4.93307 0.986614
8323 2 29.5984 5.91969 0
8324 2 30.585 6.9063 0
8325 2 29.5984 6.9063 0.986614
8822 2 30.585 4.93307 1.97323
8823 2 30.585 3.94646 2.95984
8848 2 28.6118 6.9063 1.97323
8849 2 28.6118 5.91969 2.95984
8851 2 30.585 6.9063 1.97323
132 4 0.986614 8.87953 0
133 4 2.95984 8.87953 0
160 4 0 9.86614 0
162 4 0.986614 9.86614 0.986614
164 4 1.97323 9.86614 0
165 4 2.95984 9.86614 0.986614
640 4 0.986614 8.87953 1.97323
641 4 0.986614 7.89291 2.95984
642 4 0 8.87953 2.95984
643 4 2.95984 7.89291 2.95984
672 4 0 9.86614 1.97323
673 4 0.986614 9.86614 2.95984
675 4 1.97323 9.86614 1.97323
677 4 2.95984 9.86614 2.95984
8326 2 0.986614 8.87953 0
8327 2 0.986614 7.89291 0.986614
8328 2 0 8.87953 0.986614
8329 2 1.97323 7.89291 0
8330 2 2.95984 8.87953 0
8331 2 2.95984 7.89291 0.986614
8332 2 1.97323 8.87953 0.986614
8366 2 0 9.86614 0
8368 2 0.986614 9.86614 0.986614
8370 2 1.97323 9.86614 0
8372 2 2.95984 9.86614 0.986614
8852 2 0 7.89291 1.97323
8853 2 0.986614 8.87953 1.97323
8854 2 0.986614 7.89291 2.95984
8855 2 0 8.87953 2.95984
8856 2 1.97323 7.89291 1.97323
8857 2 2.95984 8.87953 1.97323
8858 2 2.95984 7.89291 2.95984
8859 2 1.97323 8.87953 2.95984
8880 2 0 9.86614 1.97323
8881 2 0.986614 9.86614 2.95984
8883 2 1.97323 9.86614 1.97323
8885 2 2.95984 9.86614 2.95984
134 4 4.93307 7.89291 0.986614
135 4 5.91969 8.87953 0.986614
167 4 4.93307 9.86614 0.986614
169 4 6.9063 9.86614 0.986614
644 4 6.9063 7.89291 2.95984
645 4 5.91969 8.87953 2.95984
679 4 3.94646 9.86614 1.97323
681 4 4.93307 9.86614 2.95984
682 4 5.91969 9.86614 1.97323
8333 2 3.94646 7.89291 0
8334 2 4.93307 8.87953 0
8335 2 3.94646 8.87953 0.986614
8336 2 6.9063 8.87953 0
8374 2 3.94646 9.86614 0
8377 2 6.9063 9.86614 0.986614
8860 2 4.93307 8.87953 1.97323
8861 2 3.94646 8.87953 2.95984
8862 2 5.91969 8.87953 2.95984
8886 2 3.94646 9.86614 1.97323
136 4 7.89291 8.87953 0.986614
137 4 9.86614 7.89291 0
171 4 7.89291 9.86614 0
173 4 8.87953 9.86614 0.986614
175 4 9.86614 9.86614 0
646 4 8.87953 7.89291 2.95984
647 4 7.89291 8.87953 2.95984
649 4 9.86614 8.87953 2.95984
685 4 7.89291 9.86614 1.97323
687 4 8.87953 9.86614 2.95984
688 4 9.86614 9.86614 1.97323
8337 2 8.87953 8.87953 0
8338 2 8.87953 7.89291 0.986614
8339 2 7.89291 8.87953 0.986614
8340 2 9.86614 7.89291 0
8342 2 9.86614 8.87953 0.986614
8378 2 7.89291 9.86614 0
8380 2 8.87953 9.86614 0.986614
8863 2 8.87953 8.87953 1.97323
8864 2 9.86614 7.89291 1.97323
8890 2 7.89291 9.86614 1.97323
138 4 10.8528 8.87953 0
139 4 11.8394 7.89291 0
140 4 12.826 8.87953 0
142 4 13.8126 8.87953 0.986614
177 4 11.8394 9.86614 0
648 4 10.8528 7.89291 2.95984
650 4 12.826 7.89291 2.95984
651 4 11.8394 8.87953 2.95984
653 4 13.8126 8.87953 2.95984
690 4 10.8528 9.86614 2.95984
692 4 12.826 9.86614 2.95984
8341 2 10.8528 7.89291 0.986614
8343 2 12.826 8.87953 0
8344 2 12.826 7.89291 0.986614
8345 2 11.8394 8.87953 0.986614
8346 2 13.8126 8.87953 0.986614
8383 2 10.8528 9.86614 0.986614
8385 2 12.826 9.86614 0.986614
8386 2 13.8126 9.86614 0
8865 2 10.8528 7.89291 2.95984
8866 2 11.8394 7.89291 1.97323
8867 2 12.826 8.87953 1.97323
8868 2 13.8126 7.89291 1.97323
8893 2 10.8528 9.86614 2.95984
8894 2 11.8394 9.86614 1.97323
8897 2 13.8126 9.86614 1.97323
141 4 14.7992 8.87953 0
143 4 16.7724 7.89291 0.986614
144 4 15.7858 8.87953 0.986614
652 4 14.7992 8.87953 1.97323
654 4 15.7858 7.89291 1.97323
655 4 16.7724 8.87953 1.97323
656 4 16.7724 7.89291 2.95984
694 4 16.7724 9.86614 2.95984
8347 2 16.7724 8.87953 0
8348 2 15.7858 8.87953 0.986614
8869 2 14.7992 8.87953 1.97323
8870 2 16.7724 8.87953 1.97323
145 4 18.7457 8.87953 0
146 4 18.7457 7.89291 0.986614
147 4 17.7591 8.87953 0.986614
148 4 19.7323 7.89291 0
149 4 20.7189 8.87953 0
150 4 19.7323 8.87953 0.986614
180 4 17.7591 9.86614 0
183 4 19.7323 9.86614 0
657 4 17.7591 7.89291 1.97323
658 4 18.7457 8.87953 1.97323
659 4 20.7189 8.87953 1.97323
696 4 18.7457 9.86614 2.95984
8349 2 18.7457 7.89291 0.986614
8350 2 17.7591 8.87953 0.986614
8351 2 20.7189 8.87953 0
8352 2 19.7323 8.87953 0.986614
8390 2 18.7457 9.86614 0.986614
8391 2 19.7323 9.86614 0
8393 2 20.7189 9.86614 0.986614
8871 2 18.7457 8.87953 1.97323
8872 2 18.7457 7.89291 2.95984
8873 2 17.7591 8.87953 2.95984
8874 2 20.7189 8.87953 1.97323
8875 2 20.7189 7.89291 2.95984
8876 2 19.7323 8.87953 2.95984
8900 2 18.7457 9.86614 2.95984
8902 2 19.7323 9.86614 1.97323
151 4 22.6921 8.87953 0
152 4 23.6787 7.89291 0
154 4 23.6787 8.87953 0.986614
184 4 21.7055 9.86614 0
660 4 21.7055 7.89291 1.97323
661 4 22.6921 8.87953 1.97323
662 4 23.6787 7.89291 1.97323
698 4 21.7055 9.86614 1.97323
701 4 23.6787 9.86614 1.97323
8353 2 21.7055 7.89291 0
8354 2 22.6921 7.89291 0.986614
8355 2 21.7055 8.87953 0.986614
8356 2 23.6787 7.89291 0
8358 2 23.6787 8.87953 0.986614
8395 2 23.6787 9.86614 0
8905 2 22.6921 9.86614 2.95984
8906 2 23.6787 9.86614 1.97323
153 4 24.6654 8.87953 0
155 4 25.652 7.89291 0
156 4 26.6386 7.89291 0.986614
157 4 25.652 8.87953 0.986614
158 4 27.6252 7.89291 0
186 4 24.6654 9.86614 0.986614
188 4 26.6386 9.86614 0.986614
663 4 24.6654 8.87953 1.97323
664 4 25.652 7.89291 1.97323
665 4 26.6386 7.89291 2.95984
666 4 25.652 8.87953 2.95984
667 4 27.6252 7.89291 1.97323
702 4 25.652 9.86614 1.97323
704 4 26.6386 9.86614 2.95984
705 4 27.6252 9.86614 1.97323
8357 2 24.6654 7.89291 0.986614
8359 2 26.6386 7.89291 0.986614
8360 2 25.652 8.87953 0.986614
8396 2 24.6654 9.86614 0.986614
8398 2 25.652 9.86614 0
8399 2 26.6386 9.86614 0.986614
8401 2 27.6252 9.86614 0
8877 2 24.6654 7.89291 2.95984
8878 2 25.652 7.89291 1.97323
8908 2 24.6654 9.86614 2.95984
8909 2 25.652 9.86614 1.97323
8911 2 26.6386 9.86614 2.95984
159 4 29.5984 8.87953 0.986614
192 4 30.585 9.86614 0.986614
668 4 28.6118 8.87953 1.97323
669 4 28.6118 7.89291 2.95984
670 4 30.585 7.89291 2.95984
671 4 29.5984 8.87953 2.95984
707 4 28.6118 9.86614 2.95984
709 4 29.5984 9.86614 1.97323
8361 2 28.6118 8.87953 0
8362 2 29.5984 7.89291 0
8363 2 30.585 8.87953 0
8364 2 30.585 7.89291 0.986614
8365 2 29.5984 8.87953 0.986614
8879 2 30.585 7.89291 2.95984
8914 2 28.6118 9.86614 2.95984
8916 2 29.5984 9.86614 1.97323
8917 2 30.585 9.86614 2.95984
161 4 0.986614 10.8528 0
163 4 0 10.8528 0.986614
193 4 0.986614 12.826 0
194 4 0.986614 11.8394 0.986614
195 4 0 12.826 0.986614
196 4 1.97323 11.8394 0
197 4 2.95984 12.826 0
230 4 0 13.8126 0
232 4 0.986614 13.8126 0.986614
235 4 2.95984 13.8126 0.986614
674 4 0 10.8528 2.95984
676 4 2.95984 10.8528 1.97323
678 4 1.97323 10.8528 2.95984
711 4 0 11.8394 1.97323
712 4 0.986614 12.826 1.97323
713 4 1.97323 11.8394 1.97323
714 4 1.97323 12.826 2.95984
747 4 0 13.8126 1.97323
749 4 0.986614 13.8126 2.95984
750 4 1.97323 13.8126 1.97323
751 4 2.95984 13.8126 2.95984
8367 2 0.986614 10.8528 0
8369 2 0 10.8528 0.986614
8371 2 2.95984 10.8528 0
8373 2 1.97323 10.8528 0.986614
8404 2 1.97323 11.8394 0
8405 2 1.97323 12.826 0.986614
8431 2 0 13.8126 0
8433 2 0.986614 13.8126 0.986614
8436 2 2.95984 13.8126 0.986614
8882 2 0 10.8528 2.95984
8884 2 2.95984 10.8528 1.97323
8918 2 0 11.8394 1.97323
8919 2 0.986614 12.826 1.97323
8920 2 1.97323 11.8394 1.97323
8921 2 2.95984 12.826 1.97323
8922 2 2.95984 11.8394 2.95984
8952 2 0 13.8126 1.97323
8955 2 2.95984 13.8126 2.95984
166 4 4.93307 10.8528 0
168 4 3.94646 10.8528 0.986614
170 4 5.91969 10.8528 0.986614
198 4 3.94646 11.8394 0
199 4 4.93307 12.826 0
200 4 4.93307 11.8394 0.986614
201 4 3.94646 12.826 0.986614
202 4 5.91969 11.8394 0
203 4 6.9063 12.826 0
204 4 6.9063 11.8394 0.986614
237 4 4.93307 13.8126 0.986614
239 4 5.91969 13.8126 0
240 4 6.9063 13.8126 0.986614
680 4 4.93307 10.8528 1.97323
683 4 6.9063 10.8528 1.97323
684 4 5.91969 10.8528 2.95984
715 4 4.93307 12.826 1.97323
716 4 4.93307 11.8394 2.95984
717 4 3.94646 12.826 2.95984
718 4 5.91969 11.8394 1.97323
719 4 6.9063 12.826 1.97323
720 4 5.91969 12.826 2.95984
754 4 6.9063 13.8126 2.95984
8375 2 4.93307 10.8528 0
8376 2 6.9063 10.8528 0
8406 2 3.94646 11.8394 0
8407 2 4.93307 12.826 0
8408 2 5.91969 11.8394 0
8409 2 5.91969 12.826 0.986614
8437 2 3.94646 13.8126 0
8439 2 4.93307 13.8126 0.986614
8887 2 4.93307 10.8528 1.97323
8888 2 6.9063 10.8528 1.97323
8889 2 5.91969 10.8528 2.95984
8923 2 3.94646 11.8394 1.97323
8924 2 4.93307 12.826 1.97323
8925 2 4.93307 11.8394 2.95984
8926 2 5.91969 11.8394 1.97323
8927 2 6.9063 12.826 1.97323
8956 2 3.94646 13.8126 1.97323
8957 2 4.93307 13.8126 2.95984
8959 2 6.9063 13.8126 2.95984
172 4 8.87953 10.8528 0
174 4 7.89291 10.8528 0.986614
176 4 9.86614 10.8528 0.986614
205 4 8.87953 12.826 0
206 4 8.87953 11.8394 0.986614
208 4 9.86614 12.826 0.986614
243 4 8.87953 13.8126 0.986614
686 4 8.87953 10.8528 1.97323
721 4 7.89291 11.8394 1.97323
722 4 7.89291 12.826 2.95984
755 4 7.89291 13.8126 1.97323
8379 2 8.87953 10.8528 0
8381 2 7.89291 10.8528 0.986614
8410 2 7.89291 11.8394 0
8411 2 8.87953 12.826 0
8412 2 7.89291 12.826 0.986614
8413 2 9.86614 11.8394 0
8441 2 8.87953 13.8126 0.986614
8891 2 8.87953 10.8528 1.97323
8928 2 7.89291 11.8394 1.97323
8929 2 8.87953 11.8394 2.95984
8962 2 9.86614 13.8126 1.97323
178 4 12.826 10.8528 0
207 4 10.8528 12.826 0
209 4 11.8394 11.8394 0
210 4 12.826 12.826 0
245 4 11.8394 13.8126 0
246 4 12.826 13.8126 0.986614
689 4 10.8528 10.8528 1.97323
691 4 12.826 10.8528 1.97323
693 4 11.8394 10.8528 2.95984
723 4 10.8528 12.826 1.97323
724 4 10.8528 11.8394 2.95984
725 4 12.826 11.8394 2.95984
726 4 11.8394 12.826 2.95984
759 4 11.8394 13.8126 1.97323
8382 2 10.8528 10.8528 0
8384 2 12.826 10.8528 0
8414 2 10.8528 11.8394 0.986614
8415 2 12.826 12.826 0
8416 2 12.826 11.8394 0.986614
8417 2 13.8126 11.8394 0
8443 2 10.8528 13.8126 0.986614
8445 2 12.826 13.8126 0.986614
8446 2 13.8126 13.8126 0
8892 2 10.8528 10.8528 1.97323
8895 2 12.826 10.8528 1.97323
8896 2 11.8394 10.8528 2.95984
8930 2 10.8528 12.826 1.97323
8931 2 10.8528 11.8394 2.95984
8932 2 11.8394 12.826 2.95984
8933 2 13.8126 11.8394 1.97323
8935 2 13.8126 12.826 2.95984
8965 2 13.8126 13.8126 1.97323
179 4 14.7992 10.8528 0
211 4 14.7992 12.826 0
212 4 15.7858 11.8394 0
213 4 16.7724 12.826 0
214 4 16.7724 11.8394 0.986614
215 4 15.7858 12.826 0.986614
248 4 14.7992 13.8126 0.986614
695 4 15.7858 10.8528 2.95984
727 4 14.7992 12.826 1.97323
728 4 15.7858 11.8394 1.97323
729 4 16.7724 12.826 1.97323
730 4 16.7724 11.8394 2.95984
761 4 14.7992 13.8126 2.95984
763 4 16.7724 13.8126 2.95984
8387 2 14.7992 10.8528 0
8388 2 15.7858 10.8528 0.986614
8418 2 14.7992 11.8394 0.986614
8419 2 15.7858 11.8394 0
8420 2 16.7724 11.8394 0.986614
8447 2 15.7858 13.8126 0
8898 2 16.7724 10.8528 1.97323
8934 2 14.7992 12.826 1.97323
8936 2 16.7724 12.826 1.97323
8966 2 15.7858 13.8126 1.97323
8967 2 16.7724 13.8126 2.95984
181 4 18.7457 10.8528 0
182 4 17.7591 10.8528 0.986614
216 4 18.7457 12.826 0
217 4 18.7457 11.8394 0.986614
218 4 19.7323 11.8394 0
219 4 20.7189 11.8394 0.986614
251 4 17.7591 13.8126 0
252 4 19.7323 13.8126 0
253 4 20.7189 13.8126 0.986614
697 4 19.7323 10.8528 2.95984
731 4 17.7591 11.8394 1.97323
732 4 18.7457 11.8394 2.95984
733 4 17.7591 12.826 2.95984
734 4 19.7323 11.8394 1.97323
735 4 20.7189 12.826 1.97323
765 4 17.7591 13.8126 1.97323
766 4 18.7457 13.8126 2.95984
8389 2 18.7457 10.8528 0
8392 2 20.7189 10.8528 0
8421 2 17.7591 11.8394 0
8422 2 18.7457 12.826 0
8423 2 18.7457 11.8394 0.986614
8424 2 19.7323 11.8394 0
8425 2 20.7189 12.826 0
8449 2 17.7591 13.8126 0
8450 2 18.7457 13.8126 0.986614
8451 2 19.7323 13.8126 0
8453 2 20.7189 13.8126 0.986614
8899 2 18.7457 10.8528 1.97323
8901 2 17.7591 10.8528 2.95984
8903 2 20.7189 10.8528 1.97323
8904 2 19.7323 10.8528 2.95984
8937 2 17.7591 11.8394 1.97323
8938 2 18.7457 12.826 1.97323
8939 2 18.7457 11.8394 2.95984
8940 2 17.7591 12.826 2.95984
8941 2 20.7189 12.826 1.97323
8942 2 20.7189 11.8394 2.95984
8968 2 17.7591 13.8126 1.97323
8972 2 20.7189 13.8126 2.95984
185 4 21.7055 10.8528 0.986614
220 4 21.7055 11.8394 0
221 4 22.6921 12.826 0
699 4 22.6921 10.8528 1.97323
700 4 21.7055 10.8528 2.95984
736 4 22.6921 12.826 1.97323
737 4 22.6921 11.8394 2.95984
738 4 21.7055 12.826 2.95984
739 4 23.6787 11.8394 1.97323
769 4 21.7055 13.8126 1.97323
8394 2 21.7055 10.8528 0.986614
8397 2 23.6787 10.8528 0.986614
8426 2 22.6921 12.826 0
8427 2 21.7055 12.826 0.986614
8428 2 23.6787 12.826 0.986614
8454 2 21.7055 13.8126 0
8456 2 23.6787 13.8126 0
8943 2 21.7055 11.8394 1.97323
8946 2 23.6787 12.826 2.95984
187 4 26.6386 10.8528 0
189 4 25.652 10.8528 0.986614
222 4 24.6654 12.826 0
223 4 24.6654 11.8394 0.986614
224 4 25.652 11.8394 0
225 4 25.652 12.826 0.986614
226 4 27.6252 11.8394 0
228 4 27.6252 12.826 0.986614
256 4 24.6654 13.8126 0.986614
703 4 26.6386 10.8528 1.97323
708 4 27.6252 10.8528 2.95984
740 4 24.6654 12.826 1.97323
741 4 26.6386 11.8394 2.95984
742 4 25.652 12.826 2.95984
770 4 24.6654 13.8126 2.95984
772 4 25.652 13.8126 1.97323
8400 2 25.652 10.8528 0.986614
8429 2 26.6386 11.8394 0.986614
8907 2 24.6654 10.8528 1.97323
8910 2 26.6386 10.8528 1.97323
8912 2 25.652 10.8528 2.95984
8915 2 27.6252 10.8528 2.95984
8944 2 24.6654 12.826 1.97323
8945 2 24.6654 11.8394 2.95984
8947 2 25.652 11.8394 1.97323
8948 2 26.6386 11.8394 2.95984
8949 2 27.6252 11.8394 1.97323
8950 2 27.6252 12.826 2.95984
8977 2 26.6386 13.8126 2.95984
190 4 28.6118 10.8528 0
191 4 30.585 10.8528 0
227 4 28.6118 12.826 0
229 4 30.585 12.826 0
259 4 30.585 13.8126 0.986614
706 4 28.6118 10.8528 1.97323
710 4 30.585 10.8528 1.97323
743 4 28.6118 12.826 1.97323
744 4 28.6118 11.8394 2.95984
745 4 30.585 12.826 1.97323
746 4 30.585 11.8394 2.95984
775 4 28.6118 13.8126 2.95984
776 4 29.5984 13.8126 1.97323
8402 2 28.6118 10.8528 0
8403 2 30.585 10.8528 0
8430 2 28.6118 12.826 0
8913 2 28.6118 10.8528 1.97323
8951 2 30.585 11.8394 2.95984
8978 2 28.6118 13.8126 2.95984
231 4 0.986614 14.7992 0
233 4 0 14.7992 0.986614
234 4 2.95984 14.7992 0
236 4 1.97323 14.7992 0.986614
260 4 0 15.7858 0
261 4 0.986614 16.7724 0
262 4 0 16.7724 0.986614
263 4 1.97323 15.7858 0
264 4 2.95984 16.7724 0
265 4 2.95984 15.7858 0.986614
266 4 1.97323 16.7724 0.986614
748 4 0.986614 14.7992 1.97323
778 4 0 15.7858 1.97323
779 4 0.986614 16.7724 1.97323
780 4 0 16.7724 2.95984
781 4 1.97323 15.7858 1.97323
782 4 1.97323 16.7724 2.95984
8432 2 0.986614 14.7992 0
8434 2 0 14.7992 0.986614
8435 2 2.95984 14.7992 0
8463 2 0.986614 16.7724 0
8464 2 0.986614 15.7858 0.986614
8465 2 0 16.7724 0.986614
8466 2 1.97323 15.7858 0
8953 2 0.986614 14.7992 1.97323
8954 2 2.95984 14.7992 1.97323
8981 2 0 15.7858 1.97323
8982 2 0.986614 15.7858 2.95984
8983 2 0 16.7724 2.95984
8984 2 1.97323 15.7858 1.97323
8985 2 2.95984 16.7724 1.97323
238 4 3.94646 14.7992 0.986614
241 4 5.91969 14.7992 0.986614
267 4 3.94646 15.7858 0
268 4 4.93307 15.7858 0.986614
269 4 5.91969 15.7858 0
270 4 6.9063 16.7724 0
271 4 5.91969 16.7724 0.986614
752 4 4.93307 14.7992 1.97323
753 4 6.9063 14.7992 1.97323
783 4 4.93307 15.7858 2.95984
784 4 5.91969 16.7724 2.95984
8438 2 4.93307 14.7992 0
8440 2 3.94646 14.7992 0.986614
8467 2 3.94646 15.7858 0
8468 2 4.93307 16.7724 0
8469 2 4.93307 15.7858 0.986614
8470 2 5.91969 15.7858 0
8958 2 6.9063 14.7992 1.97323
8960 2 5.91969 14.7992 2.95984
8986 2 3.94646 15.7858 1.97323
8987 2 4.93307 16.7724 1.97323
8988 2 4.93307 15.7858 2.95984
8989 2 3.94646 16.7724 2.95984
8990 2 6.9063 16.7724 1.97323
8991 2 6.9063 15.7858 2.95984
242 4 8.87953 14.7992 0
244 4 7.89291 14.7992 0.986614
272 4 7.89291 16.7724 0.986614
275 4 9.86614 16.7724 0.986614
756 4 8.87953 14.7992 1.97323
757 4 7.89291 14.7992 2.95984
758 4 9.86614 14.7992 2.95984
785 4 7.89291 15.7858 1.97323
786 4 8.87953 16.7724 1.97323
787 4 7.89291 16.7724 2.95984
788 4 9.86614 15.7858 1.97323
8471 2 8.87953 15.7858 0.986614
8472 2 7.89291 16.7724 0.986614
8961 2 7.89291 14.7992 2.95984
8964 2 9.86614 14.7992 2.95984
8992 2 7.89291 15.7858 1.97323
8993 2 7.89291 16.7724 2.95984
8996 2 9.86614 16.7724 2.95984
249 4 13.8126 14.7992 0.986614
273 4 10.8528 16.7724 0