ITEM: TIMESTEP
0
ITEM: NUMBER OF ATOMS
16384
ITEM: BOX BOUNDS pp pp pp
0.0000000000000000e+00 6.5620909628606697e+01
0.0000000000000000e+00 6.5620909628606697e+01
0.0000000000000000e+00 6.5620909628606697e+01
ITEM: ATOMS id type x y z
1 4 0 0 0
2 4 2.06693 2.06693 0
8193 2 0 0 0
8194 2 2.06693 2.06693 0
8195 2 2.06693 0 2.06693
8196 2 0 2.06693 2.06693
3 4 6.20079 2.06693 0
4 4 6.20079 0 2.06693
5 4 4.13386 2.06693 2.06693
8197 2 6.20079 0 2.06693
7 4 8.26772 2.06693 2.06693
8198 2 8.26772 0 0
6 4 10.3346 0 2.06693
10 4 12.4016 2.06693 2.06693
8199 2 10.3346 2.06693 0
8 4 14.4685 2.06693 0
9 4 14.4685 0 2.06693
8200 2 14.4685 2.06693 0
11 4 16.5354 0 0
12 4 16.5354 2.06693 2.06693
8201 2 18.6024 0 2.06693
8202 2 22.7362 0 2.06693
8203 2 20.6693 2.06693 2.06693
13 4 24.8031 0 0
8204 2 24.8031 0 0
8206 2 24.8031 2.06693 2.06693
14 4 28.937 0 0
16 4 28.937 2.06693 2.06693
8205 2 26.8701 2.06693 0
8207 2 28.937 0 0
15 4 31.0039 0 2.06693
8208 2 31.0039 0 2.06693
17 4 33.0709 0 0
18 4 35.1378 2.06693 0
19 4 35.1378 0 2.06693
8209 2 35.1378 2.06693 0
20 4 39.2717 2.06693 0
21 4 39.2717 0 2.06693
8210 2 39.2717 2.06693 0
8211 2 39.2717 0 2.06693
8212 2 37.2047 2.06693 2.06693
8213 2 41.3386 0 0
8215 2 41.3386 2.06693 2.06693
22 4 43.4055 2.06693 0
23 4 45.4724 0 0
8214 2 43.4055 0 2.06693
8217 2 45.4724 2.06693 2.06693
24 4 47.5394 2.06693 0
8216 2 47.5394 2.06693 0
25 4 51.6732 2.06693 0
8218 2 49.6063 0 0
8219 2 51.6732 2.06693 0
8220 2 49.6063 2.06693 2.06693
8221 2 53.7402 0 0
8223 2 53.7402 2.06693 2.06693
26 4 55.8071 2.06693 0
27 4 57.874 0 0
29 4 57.874 2.06693 2.06693
8222 2 55.8071 0 2.06693
28 4 59.9409 0 2.06693
30 4 62.0079 0 0
8224 2 59.9409 0 2.06693
8225 2 62.0079 0 0
31 4 64.0748 2.06693 0
32 4 2.06693 4.13386 2.06693
33 4 0 6.20079 2.06693
8226 2 0 4.13386 0
8227 2 2.06693 6.20079 0
34 4 6.20079 4.13386 2.06693
35 4 4.13386 6.20079 2.06693
8228 2 6.20079 4.13386 2.06693
36 4 8.26772 4.13386 0
39 4 8.26772 6.20079 2.06693
8229 2 8.26772 4.13386 0
37 4 10.3346 6.20079 0
38 4 10.3346 4.13386 2.06693
42 4 12.4016 6.20079 2.06693
8230 2 10.3346 6.20079 0
40 4 14.4685 6.20079 0
41 4 14.4685 4.13386 2.06693
43 4 16.5354 4.13386 0
44 4 18.6024 6.20079 0
45 4 16.5354 6.20079 2.06693
8231 2 16.5354 4.13386 0
8232 2 18.6024 4.13386 2.06693
46 4 22.7362 4.13386 2.06693
47 4 20.6693 6.20079 2.06693
8233 2 22.7362 6.20079 0
48 4 24.8031 4.13386 0
51 4 24.8031 6.20079 2.06693
49 4 26.8701 6.20079 0
50 4 26.8701 4.13386 2.06693
52 4 28.937 6.20079 2.06693
8234 2 26.8701 6.20079 0
8235 2 26.8701 4.13386 2.06693
8236 2 28.937 4.13386 0
8237 2 28.937 6.20079 2.06693
53 4 33.0709 4.13386 0
54 4 35.1378 6.20079 0
55 4 35.1378 4.13386 2.06693
56 4 33.0709 6.20079 2.06693
8238 2 33.0709 4.13386 0
8239 2 35.1378 6.20079 0
57 4 37.2047 4.13386 0
58 4 39.2717 6.20079 0
59 4 37.2047 6.20079 2.06693
8240 2 39.2717 4.13386 2.06693
8241 2 37.2047 6.20079 2.06693
61 4 41.3386 6.20079 2.06693
60 4 43.4055 4.13386 2.06693
8242 2 43.4055 4.13386 2.06693
8243 2 45.4724 4.13386 0
62 4 47.5394 4.13386 2.06693
8244 2 47.5394 6.20079 0
63 4 49.6063 4.13386 0
64 4 51.6732 6.20079 0
65 4 51.6732 4.13386 2.06693
8245 2 49.6063 4.13386 0
8246 2 51.6732 4.13386 2.06693
8247 2 53.7402 4.13386 0
8250 2 53.7402 6.20079 2.06693
66 4 55.8071 6.20079 0
67 4 55.8071 4.13386 2.06693
68 4 57.874 4.13386 0
8248 2 55.8071 6.20079 0
8249 2 55.8071 4.13386 2.06693
8251 2 57.874 4.13386 0
69 4 59.9409 6.20079 0
70 4 62.0079 4.13386 0
72 4 62.0079 6.20079 2.06693
8252 2 62.0079 4.13386 0
8255 2 62.0079 6.20079 2.06693
71 4 64.0748 6.20079 0
8253 2 64.0748 6.20079 0
8254 2 64.0748 4.13386 2.06693
73 4 2.06693 8.26772 2.06693
8256 2 2.06693 8.26772 2.06693
74 4 6.20079 8.26772 2.06693
8258 2 4.13386 8.26772 0
8260 2 8.26772 8.26772 0
76 4 12.4016 8.26772 0
8261 2 10.3346 8.26772 2.06693
8263 2 12.4016 8.26772 0
77 4 14.4685 8.26772 2.06693
78 4 18.6024 8.26772 2.06693
8265 2 16.5354 8.26772 0
8267 2 18.6024 8.26772 2.06693
80 4 22.7362 8.26772 2.06693
8268 2 20.6693 8.26772 0
8270 2 22.7362 8.26772 2.06693
81 4 24.8031 8.26772 0
82 4 26.8701 8.26772 2.06693
84 4 35.1378 8.26772 2.06693
8274 2 33.0709 8.26772 0
8277 2 37.2047 8.26772 0
8279 2 39.2717 8.26772 2.06693
8281 2 41.3386 8.26772 0
87 4 43.4055 8.26772 2.06693
8283 2 43.4055 8.26772 2.06693
89 4 47.5394 8.26772 2.06693
8285 2 49.6063 8.26772 0
94 4 57.874 8.26772 0
8287 2 55.8071 8.26772 2.06693
8289 2 57.874 8.26772 0
95 4 62.0079 8.26772 0
8292 2 62.0079 8.26772 0
99 4 2.06693 12.4016 2.06693
8257 2 0 10.3346 2.06693
8295 2 0 12.4016 0
75 4 4.13386 10.3346 2.06693
101 4 4.13386 12.4016 0
103 4 6.20079 12.4016 2.06693
8259 2 6.20079 10.3346 0
8296 2 4.13386 12.4016 0
8298 2 6.20079 12.4016 2.06693
104 4 8.26772 12.4016 0
8262 2 8.26772 10.3346 2.06693
8299 2 8.26772 12.4016 0
105 4 10.3346 12.4016 2.06693
8264 2 12.4016 10.3346 2.06693
8301 2 12.4016 12.4016 0
107 4 14.4685 12.4016 2.06693
8266 2 18.6024 10.3346 0
8305 2 18.6024 12.4016 2.06693
79 4 22.7362 10.3346 0
108 4 20.6693 12.4016 0
110 4 22.7362 12.4016 2.06693
8269 2 22.7362 10.3346 0
111 4 24.8031 12.4016 0
8272 2 24.8031 10.3346 2.06693
83 4 28.937 10.3346 2.06693
112 4 26.8701 12.4016 2.06693
114 4 28.937 12.4016 0
8271 2 26.8701 10.3346 0
8273 2 28.937 10.3346 2.06693
8309 2 28.937 12.4016 0
116 4 31.0039 12.4016 2.06693
8310 2 31.0039 12.4016 2.06693
8275 2 35.1378 10.3346 0
8276 2 33.0709 10.3346 2.06693
8312 2 33.0709 12.4016 0
85 4 39.2717 10.3346 0
86 4 37.2047 10.3346 2.06693
119 4 37.2047 12.4016 0
121 4 39.2717 12.4016 2.06693
8278 2 39.2717 10.3346 0
8280 2 37.2047 10.3346 2.06693
8314 2 37.2047 12.4016 0
8315 2 39.2717 12.4016 2.06693
88 4 41.3386 10.3346 2.06693
123 4 41.3386 12.4016 0
8316 2 41.3386 12.4016 0
90 4 45.4724 10.3346 2.06693
124 4 43.4055 12.4016 2.06693
8282 2 43.4055 10.3346 0
8317 2 45.4724 12.4016 0
8284 2 47.5394 10.3346 0
91 4 51.6732 10.3346 0
92 4 49.6063 10.3346 2.06693
126 4 51.6732 12.4016 2.06693
93 4 53.7402 10.3346 2.06693
128 4 53.7402 12.4016 0
8288 2 53.7402 10.3346 2.06693
129 4 55.8071 12.4016 2.06693
130 4 57.874 12.4016 0
8286 2 55.8071 10.3346 0
8291 2 57.874 10.3346 2.06693
8319 2 55.8071 12.4016 2.06693
8321 2 57.874 12.4016 0
97 4 62.0079 10.3346 2.06693
8290 2 59.9409 10.3346 0
8294 2 62.0079 10.3346 2.06693
8323 2 62.0079 12.4016 0
96 4 64.0748 10.3346 0
8293 2 64.0748 10.3346 0
98 4 2.06693 14.4685 0
100 4 0 14.4685 2.06693
102 4 6.20079 14.4685 0
8297 2 6.20079 14.4685 0
8300 2 10.3346 14.4685 0
8303 2 12.4016 14.4685 2.06693
106 4 14.4685 14.4685 0
8302 2 14.4685 14.4685 0
8304 2 18.6024 14.4685 0
109 4 22.7362 14.4685 0
8306 2 22.7362 14.4685 0
113 4 24.8031 14.4685 2.06693
8308 2 24.8031 14.4685 2.06693
117 4 28.937 14.4685 2.06693
8307 2 26.8701 14.4685 0
8311 2 28.937 14.4685 2.06693
115 4 31.0039 14.4685 0
118 4 33.0709 14.4685 2.06693
8313 2 35.1378 14.4685 0
120 4 39.2717 14.4685 0
122 4 37.2047 14.4685 2.06693
8318 2 45.4724 14.4685 2.06693
125 4 51.6732 14.4685 0
127 4 49.6063 14.4685 2.06693
8320 2 53.7402 14.4685 2.06693
8322 2 57.874 14.4685 2.06693
8325 2 62.0079 14.4685 2.06693
131 4 64.0748 14.4685 0
8324 2 64.0748 14.4685 0
132 4 2.06693 18.6024 0
8326 2 2.06693 18.6024 0
8327 2 2.06693 16.5354 2.06693
8328 2 0 18.6024 2.06693
133 4 6.20079 18.6024 0
8329 2 4.13386 16.5354 0
8330 2 6.20079 18.6024 0
8331 2 6.20079 16.5354 2.06693
8332 2 4.13386 18.6024 2.06693
8333 2 8.26772 16.5354 0
8335 2 8.26772 18.6024 2.06693
134 4 10.3346 16.5354 2.06693
135 4 12.4016 18.6024 2.06693
8334 2 10.3346 18.6024 0
8336 2 14.4685 18.6024 0
136 4 16.5354 18.6024 2.06693
8337 2 18.6024 18.6024 0
8338 2 18.6024 16.5354 2.06693
8339 2 16.5354 18.6024 2.06693
137 4 20.6693 16.5354 0
138 4 22.7362 18.6024 0
8340 2 20.6693 16.5354 0
8341 2 22.7362 16.5354 2.06693
8342 2 20.6693 18.6024 2.06693
139 4 24.8031 16.5354 0
8345 2 24.8031 18.6024 2.06693
140 4 26.8701 18.6024 0
142 4 28.937 18.6024 2.06693
8343 2 26.8701 18.6024 0
8344 2 26.8701 16.5354 2.06693
8346 2 28.937 18.6024 2.06693
141 4 31.0039 18.6024 0
143 4 35.1378 16.5354 2.06693
144 4 33.0709 18.6024 2.06693
8347 2 35.1378 18.6024 0
8348 2 33.0709 18.6024 2.06693
145 4 39.2717 18.6024 0
146 4 39.2717 16.5354 2.06693
147 4 37.2047 18.6024 2.06693
8349 2 39.2717 16.5354 2.06693
8350 2 37.2047 18.6024 2.06693
148 4 41.3386 16.5354 0
150 4 41.3386 18.6024 2.06693
8352 2 41.3386 18.6024 2.06693
149 4 43.4055 18.6024 0
8351 2 43.4055 18.6024 0
8353 2 45.4724 16.5354 0
8355 2 45.4724 18.6024 2.06693
151 4 47.5394 18.6024 0
8354 2 47.5394 16.5354 2.06693
152 4 49.6063 16.5354 0
153 4 51.6732 18.6024 0
154 4 49.6063 18.6024 2.06693
8356 2 49.6063 16.5354 0
8357 2 51.6732 16.5354 2.06693
8358 2 49.6063 18.6024 2.06693
155 4 53.7402 16.5354 0
157 4 53.7402 18.6024 2.06693
8360 2 53.7402 18.6024 2.06693
156 4 55.8071 16.5354 2.06693
158 4 57.874 16.5354 0
8359 2 55.8071 16.5354 2.06693
159 4 62.0079 18.6024 2.06693
8361 2 59.9409 18.6024 0
8362 2 62.0079 16.5354 0
8365 2 62.0079 18.6024 2.06693
8363 2 64.0748 18.6024 0
8364 2 64.0748 16.5354 2.06693
160 4 0 20.6693 0
161 4 2.06693 22.7362 0
162 4 2.06693 20.6693 2.06693
163 4 0 22.7362 2.06693
8366 2 0 20.6693 0
8367 2 2.06693 22.7362 0
8368 2 2.06693 20.6693 2.06693
8369 2 0 22.7362 2.06693
164 4 4.13386 20.6693 0
165 4 6.20079 20.6693 2.06693
8370 2 4.13386 20.6693 0
8371 2 6.20079 22.7362 0
8372 2 6.20079 20.6693 2.06693
8373 2 4.13386 22.7362 2.06693
168 4 8.26772 22.7362 2.06693
8374 2 8.26772 20.6693 0
166 4 10.3346 22.7362 0
167 4 10.3346 20.6693 2.06693
170 4 12.4016 22.7362 2.06693
8375 2 10.3346 22.7362 0
169 4 14.4685 20.6693 2.06693
8376 2 14.4685 22.7362 0
8377 2 14.4685 20.6693 2.06693
171 4 16.5354 20.6693 0
172 4 18.6024 22.7362 0
173 4 18.6024 20.6693 2.06693
174 4 16.5354 22.7362 2.06693
8378 2 16.5354 20.6693 0
8379 2 18.6024 22.7362 0
8380 2 18.6024 20.6693 2.06693
8381 2 16.5354 22.7362 2.06693
175 4 20.6693 20.6693 0
176 4 20.6693 22.7362 2.06693
8382 2 22.7362 22.7362 0
8383 2 22.7362 20.6693 2.06693
177 4 24.8031 20.6693 0
178 4 26.8701 22.7362 0
8384 2 26.8701 22.7362 0
8385 2 26.8701 20.6693 2.06693
8386 2 28.937 20.6693 0
179 4 31.0039 22.7362 0
8387 2 31.0039 22.7362 0
8388 2 33.0709 22.7362 2.06693
180 4 37.2047 20.6693 0
181 4 39.2717 22.7362 0
182 4 37.2047 22.7362 2.06693
8389 2 39.2717 22.7362 0
8390 2 39.2717 20.6693 2.06693
183 4 41.3386 20.6693 0
8391 2 41.3386 20.6693 0
184 4 45.4724 20.6693 0
185 4 45.4724 22.7362 2.06693
8392 2 43.4055 22.7362 0
8393 2 43.4055 20.6693 2.06693
8394 2 45.4724 22.7362 2.06693
186 4 51.6732 20.6693 2.06693
8395 2 49.6063 20.6693 0
8396 2 51.6732 20.6693 2.06693
8397 2 49.6063 22.7362 2.06693
189 4 53.7402 22.7362 2.06693
8398 2 53.7402 20.6693 0
8400 2 53.7402 22.7362 2.06693
187 4 55.8071 22.7362 0
188 4 55.8071 20.6693 2.06693
8399 2 55.8071 20.6693 2.06693
8401 2 57.874 20.6693 0
190 4 59.9409 22.7362 0
8402 2 59.9409 22.7362 0
191 4 64.0748 22.7362 0
192 4 64.0748 20.6693 2.06693
8403 2 64.0748 22.7362 0
194 4 2.06693 24.8031 2.06693
196 4 4.13386 24.8031 0
8404 2 4.13386 24.8031 0
198 4 8.26772 24.8031 0
8406 2 8.26772 24.8031 0
200 4 10.3346 24.8031 2.06693
202 4 12.4016 24.8031 0
8408 2 12.4016 24.8031 0
204 4 14.4685 24.8031 2.06693
206 4 18.6024 24.8031 2.06693
8410 2 16.5354 24.8031 0
8413 2 20.6693 24.8031 0
8414 2 22.7362 24.8031 2.06693
209 4 24.8031 24.8031 0
8416 2 26.8701 24.8031 2.06693
8417 2 28.937 24.8031 0
8418 2 31.0039 24.8031 2.06693
212 4 33.0709 24.8031 0
214 4 35.1378 24.8031 2.06693
8419 2 33.0709 24.8031 0
8420 2 35.1378 24.8031 2.06693
217 4 39.2717 24.8031 2.06693
8421 2 37.2047 24.8031 0
8423 2 39.2717 24.8031 2.06693
218 4 41.3386 24.8031 0
8424 2 41.3386 24.8031 0
219 4 43.4055 24.8031 2.06693
220 4 45.4724 24.8031 0
223 4 51.6732 24.8031 2.06693
224 4 53.7402 24.8031 0
226 4 57.874 24.8031 0
8429 2 55.8071 24.8031 2.06693
193 4 2.06693 26.8701 0
195 4 0 26.8701 2.06693
230 4 0 28.937 0
232 4 2.06693 28.937 2.06693
8431 2 0 28.937 0
8433 2 2.06693 28.937 2.06693
197 4 6.20079 26.8701 0
235 4 6.20079 28.937 2.06693
8405 2 4.13386 26.8701 2.06693
8436 2 6.20079 28.937 2.06693
201 4 8.26772 26.8701 2.06693
8437 2 8.26772 28.937 0
199 4 10.3346 26.8701 0
237 4 10.3346 28.937 2.06693
239 4 12.4016 28.937 0
8407 2 10.3346 26.8701 0
8409 2 12.4016 26.8701 2.06693
8439 2 10.3346 28.937 2.06693
203 4 14.4685 26.8701 0
240 4 14.4685 28.937 2.06693
205 4 18.6024 26.8701 0
243 4 18.6024 28.937 2.06693
8411 2 18.6024 26.8701 0
8412 2 16.5354 26.8701 2.06693
8441 2 18.6024 28.937 2.06693
207 4 22.7362 26.8701 0
208 4 20.6693 26.8701 2.06693
8443 2 22.7362 28.937 2.06693
245 4 24.8031 28.937 0
210 4 26.8701 26.8701 0
246 4 26.8701 28.937 2.06693
8415 2 26.8701 26.8701 0
8445 2 26.8701 28.937 2.06693
8446 2 28.937 28.937 0
211 4 31.0039 26.8701 0
248 4 31.0039 28.937 2.06693
213 4 35.1378 26.8701 0
215 4 33.0709 26.8701 2.06693
8447 2 33.0709 28.937 0
216 4 39.2717 26.8701 0
251 4 37.2047 28.937 0
8422 2 39.2717 26.8701 0
8449 2 37.2047 28.937 0
8450 2 39.2717 28.937 2.06693
252 4 41.3386 28.937 0
8451 2 41.3386 28.937 0
253 4 43.4055 28.937 2.06693
8425 2 43.4055 26.8701 0
8427 2 45.4724 26.8701 2.06693
8453 2 43.4055 28.937 2.06693
8454 2 45.4724 28.937 0
221 4 47.5394 26.8701 0
8426 2 47.5394 26.8701 0
222 4 51.6732 26.8701 0
256 4 51.6732 28.937 2.06693
8428 2 49.6063 26.8701 2.06693
8456 2 49.6063 28.937 0
225 4 53.7402 26.8701 2.06693
228 4 57.874 26.8701 2.06693
227 4 59.9409 26.8701 0
8430 2 59.9409 26.8701 0
229 4 64.0748 26.8701 0
259 4 64.0748 28.937 2.06693
231 4 2.06693 31.0039 0
233 4 0 31.0039 2.06693
8432 2 2.06693 31.0039 0
8434 2 0 31.0039 2.06693
234 4 6.20079 31.0039 0
236 4 4.13386 31.0039 2.06693
8435 2 6.20079 31.0039 0
238 4 8.26772 31.0039 2.06693
8440 2 8.26772 31.0039 2.06693
241 4 12.4016 31.0039 2.06693
8438 2 10.3346 31.0039 0
242 4 18.6024 31.0039 0
244 4 16.5354 31.0039 2.06693
8442 2 22.7362 31.0039 0
249 4 28.937 31.0039 2.06693
8444 2 26.8701 31.0039 0
247 4 31.0039 31.0039 0
250 4 33.0709 31.0039 2.06693
8448 2 35.1378 31.0039 0
8452 2 43.4055 31.0039 0
8455 2 45.4724 31.0039 2.06693
254 4 47.5394 31.0039 0
255 4 51.6732 31.0039 0
8457 2 51.6732 31.0039 0
8458 2 49.6063 31.0039 2.06693
257 4 53.7402 31.0039 2.06693
8459 2 55.8071 31.0039 0
8461 2 57.874 31.0039 2.06693
258 4 59.9409 31.0039 0
8460 2 59.9409 31.0039 0
8462 2 64.0748 31.0039 0
260 4 0 33.0709 0
261 4 2.06693 35.1378 0
262 4 0 35.1378 2.06693
8463 2 2.06693 35.1378 0
8464 2 2.06693 33.0709 2.06693
8465 2 0 35.1378 2.06693
263 4 4.13386 33.0709 0
264 4 6.20079 35.1378 0
265 4 6.20079 33.0709 2.06693
266 4 4.13386 35.1378 2.06693
8466 2 4.13386 33.0709 0
267 4 8.26772 33.0709 0
8467 2 8.26772 33.0709 0
268 4 10.3346 33.0709 2.06693
269 4 12.4016 33.0709 0
271 4 12.4016 35.1378 2.06693
8468 2 10.3346 35.1378 0
8469 2 10.3346 33.0709 2.06693
8470 2 12.4016 33.0709 0
270 4 14.4685 35.1378 0
272 4 16.5354 35.1378 2.06693
8471 2 18.6024 33.0709 2.06693
8472 2 16.5354 35.1378 2.06693
273 4 22.7362 35.1378 0
274 4 22.7362 33.0709 2.06693
275 4 20.6693 35.1378 2.06693
8473 2 22.7362 35.1378 0
277 4 24.8031 35.1378 2.06693
8474 2 24.8031 33.0709 0
276 4 26.8701 33.0709 2.06693
278 4 28.937 33.0709 0
279 4 28.937 35.1378 2.06693
280 4 33.0709 33.0709 0
281 4 35.1378 33.0709 2.06693
8475 2 33.0709 33.0709 0
8476 2 35.1378 35.1378 0
8477 2 35.1378 33.0709 2.06693
282 4 37.2047 33.0709 0
283 4 39.2717 35.1378 0
284 4 39.2717 33.0709 2.06693
8478 2 37.2047 33.0709 0
8479 2 39.2717 35.1378 0
285 4 41.3386 35.1378 2.06693
8480 2 41.3386 33.0709 0
8483 2 41.3386 35.1378 2.06693
286 4 45.4724 33.0709 0
8481 2 43.4055 35.1378 0
8482 2 43.4055 33.0709 2.06693
8485 2 45.4724 35.1378 2.06693
287 4 47.5394 35.1378 0
8484 2 47.5394 33.0709 2.06693
288 4 51.6732 35.1378 0
289 4 51.6732 33.0709 2.06693
290 4 49.6063 35.1378 2.06693
8486 2 51.6732 35.1378 0
8487 2 51.6732 33.0709 2.06693
8490 2 53.7402 35.1378 2.06693
8488 2 55.8071 35.1378 0
8489 2 55.8071 33.0709 2.06693
8491 2 57.874 33.0709 0
291 4 59.9409 33.0709 2.06693
293 4 62.0079 35.1378 2.06693
8492 2 59.9409 35.1378 0
8494 2 62.0079 35.1378 2.06693
292 4 64.0748 33.0709 2.06693
8493 2 64.0748 33.0709 2.06693
294 4 2.06693 39.2717 0
8495 2 0 37.2047 0
8496 2 2.06693 39.2717 0
295 4 4.13386 37.2047 0
296 4 6.20079 39.2717 0
8497 2 6.20079 39.2717 0
8498 2 6.20079 37.2047 2.06693
8499 2 8.26772 37.2047 0
8500 2 8.26772 39.2717 2.06693
297 4 10.3346 37.2047 2.06693
300 4 12.4016 39.2717 2.06693
8503 2 12.4016 39.2717 2.06693
298 4 14.4685 39.2717 0
299 4 14.4685 37.2047 2.06693
8501 2 14.4685 39.2717 0
8502 2 14.4685 37.2047 2.06693
301 4 16.5354 37.2047 0
302 4 18.6024 37.2047 2.06693
8504 2 16.5354 37.2047 0
8505 2 18.6024 39.2717 0
8506 2 18.6024 37.2047 2.06693
8507 2 16.5354 39.2717 2.06693
303 4 22.7362 39.2717 0
304 4 20.6693 39.2717 2.06693
8508 2 20.6693 37.2047 0
8509 2 22.7362 39.2717 0
8510 2 24.8031 37.2047 0
8512 2 24.8031 39.2717 2.06693
305 4 26.8701 39.2717 0
306 4 26.8701 37.2047 2.06693
8511 2 26.8701 39.2717 0
8513 2 28.937 37.2047 0
307 4 31.0039 39.2717 0
308 4 33.0709 37.2047 0
309 4 35.1378 39.2717 0
8514 2 35.1378 39.2717 0
8515 2 35.1378 37.2047 2.06693
8516 2 33.0709 39.2717 2.06693
8517 2 39.2717 39.2717 0
8518 2 37.2047 39.2717 2.06693
312 4 41.3386 39.2717 2.06693
8519 2 41.3386 37.2047 0
8521 2 41.3386 39.2717 2.06693
310 4 43.4055 39.2717 0
311 4 43.4055 37.2047 2.06693
8520 2 43.4055 37.2047 2.06693
313 4 47.5394 39.2717 0
8522 2 47.5394 39.2717 0
314 4 49.6063 37.2047 0
315 4 51.6732 39.2717 0
8523 2 49.6063 37.2047 0
316 4 53.7402 37.2047 0
319 4 53.7402 39.2717 2.06693
317 4 55.8071 39.2717 0
318 4 55.8071 37.2047 2.06693
320 4 57.874 37.2047 0
8524 2 55.8071 39.2717 0
8525 2 57.874 37.2047 0
8526 2 59.9409 37.2047 2.06693
321 4 64.0748 39.2717 0
8527 2 64.0748 39.2717 0
323 4 2.06693 41.3386 2.06693
8528 2 0 41.3386 0
324 4 4.13386 41.3386 0
325 4 6.20079 41.3386 2.06693
8532 2 8.26772 41.3386 0
326 4 10.3346 41.3386 2.06693
328 4 14.4685 41.3386 2.06693
329 4 16.5354 41.3386 0
8536 2 18.6024 41.3386 2.06693
332 4 20.6693 41.3386 0
8537 2 20.6693 41.3386 0
8538 2 22.7362 41.3386 2.06693
334 4 24.8031 41.3386 0
8540 2 24.8031 41.3386 0
8542 2 26.8701 41.3386 2.06693
338 4 31.0039 41.3386 2.06693
8545 2 31.0039 41.3386 2.06693
339 4 33.0709 41.3386 0
341 4 35.1378 41.3386 2.06693
8546 2 33.0709 41.3386 0
8548 2 35.1378 41.3386 2.06693
343 4 37.2047 41.3386 0
345 4 39.2717 41.3386 2.06693
8550 2 39.2717 41.3386 2.06693
346 4 41.3386 41.3386 0
347 4 45.4724 41.3386 0
8552 2 43.4055 41.3386 2.06693
348 4 49.6063 41.3386 0
349 4 51.6732 41.3386 2.06693
8556 2 53.7402 41.3386 0
352 4 57.874 41.3386 0
8557 2 55.8071 41.3386 2.06693
354 4 59.9409 41.3386 2.06693
322 4 2.06693 43.4055 0
357 4 0 45.4724 0
359 4 2.06693 45.4724 2.06693
8529 2 0 43.4055 2.06693
8561 2 0 45.4724 0
8562 2 2.06693 45.4724 2.06693
361 4 4.13386 45.4724 0
8530 2 6.20079 43.4055 0
8531 2 4.13386 43.4055 2.06693
8563 2 4.13386 45.4724 0
8564 2 6.20079 45.4724 2.06693
327 4 8.26772 43.4055 2.06693
363 4 8.26772 45.4724 0
8565 2 8.26772 45.4724 0
364 4 10.3346 45.4724 2.06693
365 4 12.4016 45.4724 0
8533 2 10.3346 43.4055 0
8566 2 10.3346 45.4724 2.06693
366 4 14.4685 45.4724 2.06693
8534 2 14.4685 43.4055 0
8569 2 14.4685 45.4724 2.06693
330 4 18.6024 43.4055 0
331 4 16.5354 43.4055 2.06693
368 4 18.6024 45.4724 2.06693
8535 2 18.6024 43.4055 0
8570 2 18.6024 45.4724 2.06693
333 4 22.7362 43.4055 0
370 4 22.7362 45.4724 2.06693
8539 2 20.6693 43.4055 2.06693
336 4 24.8031 43.4055 2.06693
8543 2 24.8031 43.4055 2.06693
335 4 26.8701 43.4055 0
372 4 26.8701 45.4724 2.06693
374 4 28.937 45.4724 0
8541 2 26.8701 43.4055 0
8573 2 26.8701 45.4724 2.06693
8575 2 28.937 45.4724 0
337 4 31.0039 43.4055 0
376 4 31.0039 45.4724 2.06693
8544 2 31.0039 43.4055 0
8576 2 31.0039 45.4724 2.06693
340 4 35.1378 43.4055 0
342 4 33.0709 43.4055 2.06693
378 4 33.0709 45.4724 0
379 4 35.1378 45.4724 2.06693
8547 2 35.1378 43.4055 0
8549 2 33.0709 43.4055 2.06693
344 4 39.2717 43.4055 0
380 4 37.2047 45.4724 0
381 4 39.2717 45.4724 2.06693
8551 2 37.2047 43.4055 2.06693
8578 2 37.2047 45.4724 0
8553 2 41.3386 43.4055 2.06693
383 4 43.4055 45.4724 2.06693
385 4 47.5394 45.4724 2.06693
8581 2 47.5394 45.4724 2.06693
350 4 49.6063 43.4055 2.06693
8554 2 51.6732 43.4055 0
8555 2 49.6063 43.4055 2.06693
387 4 53.7402 45.4724 0
351 4 55.8071 43.4055 0
390 4 57.874 45.4724 0
8582 2 55.8071 45.4724 2.06693
353 4 59.9409 43.4055 0
356 4 62.0079 43.4055 2.06693
391 4 59.9409 45.4724 2.06693
8558 2 59.9409 43.4055 0
8560 2 62.0079 43.4055 2.06693
8584 2 59.9409 45.4724 2.06693
355 4 64.0748 43.4055 0
8559 2 64.0748 43.4055 0
8586 2 64.0748 45.4724 2.06693
358 4 2.06693 47.5394 0
360 4 0 47.5394 2.06693
362 4 4.13386 47.5394 2.06693
8567 2 8.26772 47.5394 2.06693
367 4 12.4016 47.5394 2.06693
8568 2 14.4685 47.5394 0
369 4 22.7362 47.5394 0
371 4 20.6693 47.5394 2.06693
8571 2 22.7362 47.5394 0
8572 2 20.6693 47.5394 2.06693
373 4 24.8031 47.5394 2.06693
8574 2 24.8031 47.5394 2.06693
377 4 28.937 47.5394 2.06693
8577 2 28.937 47.5394 2.06693
375 4 31.0039 47.5394 0
8579 2 37.2047 47.5394 2.06693
382 4 43.4055 47.5394 0
8580 2 43.4055 47.5394 0
384 4 47.5394 47.5394 0
386 4 49.6063 47.5394 2.06693
389 4 53.7402 47.5394 2.06693
388 4 55.8071 47.5394 0
8585 2 57.874 47.5394 2.06693
393 4 62.0079 47.5394 2.06693
8583 2 59.9409 47.5394 0
8587 2 62.0079 47.5394 2.06693
392 4 64.0748 47.5394 0
394 4 0 51.6732 2.06693
8588 2 2.06693 51.6732 0
8589 2 0 51.6732 2.06693
395 4 4.13386 49.6063 0
396 4 4.13386 51.6732 2.06693
8590 2 6.20079 51.6732 0
8591 2 6.20079 49.6063 2.06693
8592 2 4.13386 51.6732 2.06693
397 4 8.26772 49.6063 0
400 4 8.26772 51.6732 2.06693
8593 2 8.26772 49.6063 0
398 4 10.3346 51.6732 0
399 4 10.3346 49.6063 2.06693
8594 2 10.3346 51.6732 0
8595 2 10.3346 49.6063 2.06693
401 4 14.4685 49.6063 2.06693
8596 2 14.4685 51.6732 0
402 4 16.5354 49.6063 0
403 4 18.6024 51.6732 0
404 4 16.5354 51.6732 2.06693
8597 2 18.6024 49.6063 2.06693
405 4 20.6693 51.6732 2.06693
8598 2 20.6693 49.6063 0
8599 2 22.7362 49.6063 2.06693
406 4 24.8031 49.6063 0
8600 2 24.8031 49.6063 0
407 4 28.937 49.6063 0
8601 2 26.8701 49.6063 2.06693
8602 2 28.937 49.6063 0
8603 2 28.937 51.6732 2.06693
8604 2 35.1378 51.6732 0
8605 2 35.1378 49.6063 2.06693
8606 2 33.0709 51.6732 2.06693
408 4 39.2717 49.6063 2.06693
409 4 37.2047 51.6732 2.06693
8607 2 37.2047 49.6063 0
8608 2 39.2717 49.6063 2.06693
8609 2 37.2047 51.6732 2.06693
410 4 41.3386 49.6063 0
8610 2 41.3386 49.6063 0
8613 2 41.3386 51.6732 2.06693
411 4 43.4055 51.6732 0
412 4 43.4055 49.6063 2.06693
413 4 45.4724 49.6063 0
8611 2 43.4055 51.6732 0
8612 2 43.4055 49.6063 2.06693
8614 2 45.4724 49.6063 0
414 4 47.5394 51.6732 0
415 4 47.5394 49.6063 2.06693
8615 2 47.5394 49.6063 2.06693
416 4 51.6732 51.6732 0
417 4 49.6063 51.6732 2.06693
8616 2 49.6063 49.6063 0
8617 2 51.6732 49.6063 2.06693
418 4 53.7402 49.6063 0
8618 2 53.7402 49.6063 0
8620 2 53.7402 51.6732 2.06693
419 4 55.8071 49.6063 2.06693
420 4 57.874 49.6063 0
8619 2 55.8071 51.6732 0
8621 2 57.874 51.6732 2.06693
421 4 59.9409 51.6732 0
422 4 62.0079 49.6063 0
424 4 62.0079 51.6732 2.06693
8622 2 62.0079 49.6063 0
423 4 64.0748 51.6732 0
8623 2 0 53.7402 0
8624 2 2.06693 53.7402 2.06693
426 4 4.13386 53.7402 0
8625 2 6.20079 53.7402 2.06693
8627 2 8.26772 53.7402 0
429 4 12.4016 53.7402 0
8628 2 10.3346 53.7402 2.06693
8631 2 14.4685 53.7402 2.06693
432 4 16.5354 53.7402 0
435 4 20.6693 53.7402 0
8635 2 22.7362 53.7402 2.06693
436 4 24.8031 53.7402 0
8636 2 24.8031 53.7402 0
438 4 26.8701 53.7402 2.06693
440 4 31.0039 53.7402 2.06693
8638 2 31.0039 53.7402 2.06693
441 4 33.0709 53.7402 0
443 4 39.2717 53.7402 2.06693
8641 2 39.2717 53.7402 2.06693
445 4 41.3386 53.7402 0
448 4 45.4724 53.7402 0
8644 2 45.4724 53.7402 0
449 4 47.5394 53.7402 2.06693
450 4 49.6063 53.7402 0
452 4 51.6732 53.7402 2.06693
8647 2 51.6732 53.7402 2.06693
454 4 53.7402 53.7402 0
8649 2 53.7402 53.7402 0
456 4 55.8071 53.7402 2.06693
8651 2 55.8071 53.7402 2.06693
8652 2 57.874 53.7402 0
457 4 59.9409 53.7402 2.06693
459 4 62.0079 53.7402 0
8655 2 62.0079 53.7402 0
460 4 64.0748 53.7402 2.06693
8657 2 64.0748 53.7402 2.06693
425 4 0 55.8071 2.06693
8658 2 0 57.874 0
8660 2 2.06693 57.874 2.06693
427 4 4.13386 55.8071 2.06693
8626 2 4.13386 55.8071 2.06693
8629 2 8.26772 55.8071 2.06693
8662 2 8.26772 57.874 0
428 4 10.3346 55.8071 0
431 4 12.4016 55.8071 2.06693
463 4 10.3346 57.874 2.06693
464 4 12.4016 57.874 0
8632 2 12.4016 55.8071 2.06693
8665 2 12.4016 57.874 0
430 4 14.4685 55.8071 0
8630 2 14.4685 55.8071 0
8667 2 14.4685 57.874 2.06693
433 4 18.6024 55.8071 0
434 4 16.5354 55.8071 2.06693
465 4 16.5354 57.874 0
8633 2 18.6024 55.8071 0
8634 2 16.5354 55.8071 2.06693
8668 2 16.5354 57.874 0
467 4 20.6693 57.874 0
468 4 22.7362 57.874 2.06693
8669 2 20.6693 57.874 0
8671 2 24.8031 57.874 0
437 4 26.8701 55.8071 0
470 4 26.8701 57.874 2.06693
471 4 28.937 57.874 0
8637 2 26.8701 55.8071 0
8639 2 28.937 55.8071 2.06693
439 4 31.0039 55.8071 0
473 4 31.0039 57.874 2.06693
8673 2 31.0039 57.874 2.06693
475 4 35.1378 57.874 2.06693
8640 2 33.0709 55.8071 2.06693
8674 2 33.0709 57.874 0
442 4 39.2717 55.8071 0
444 4 37.2047 55.8071 2.06693
477 4 39.2717 57.874 2.06693
8676 2 37.2047 57.874 0
8677 2 39.2717 57.874 2.06693
447 4 41.3386 55.8071 2.06693
478 4 41.3386 57.874 0
8643 2 41.3386 55.8071 2.06693
446 4 43.4055 55.8071 0
479 4 43.4055 57.874 2.06693
8642 2 43.4055 55.8071 0
8646 2 45.4724 55.8071 2.06693
8680 2 43.4055 57.874 2.06693
481 4 47.5394 57.874 2.06693
8645 2 47.5394 55.8071 0
451 4 51.6732 55.8071 0
453 4 49.6063 55.8071 2.06693
483 4 49.6063 57.874 0
484 4 51.6732 57.874 2.06693
8648 2 49.6063 55.8071 2.06693
8684 2 53.7402 57.874 0
455 4 55.8071 55.8071 0
458 4 57.874 55.8071 2.06693
8650 2 55.8071 55.8071 0
8654 2 57.874 55.8071 2.06693
8687 2 57.874 57.874 0
488 4 59.9409 57.874 2.06693
489 4 62.0079 57.874 0
8653 2 59.9409 55.8071 0
491 4 64.0748 57.874 2.06693
8656 2 64.0748 55.8071 0
8659 2 2.06693 59.9409 0
8689 2 0 62.0079 0
461 4 6.20079 59.9409 0
493 4 4.13386 62.0079 0
8661 2 4.13386 59.9409 2.06693
8692 2 4.13386 62.0079 0
8693 2 6.20079 62.0079 2.06693
496 4 8.26772 62.0079 0
8664 2 8.26772 59.9409 2.06693
462 4 10.3346 59.9409 0
497 4 10.3346 62.0079 2.06693
8663 2 10.3346 59.9409 0
8697 2 12.4016 62.0079 0
8666 2 14.4685 59.9409 0
8698 2 14.4685 62.0079 2.06693
466 4 16.5354 59.9409 2.06693
8699 2 16.5354 62.0079 0
8701 2 18.6024 62.0079 2.06693
469 4 20.6693 59.9409 2.06693
500 4 22.7362 62.0079 2.06693
8670 2 22.7362 59.9409 0
8703 2 20.6693 62.0079 0
502 4 24.8031 62.0079 0
8672 2 24.8031 59.9409 2.06693
474 4 28.937 59.9409 2.06693
503 4 28.937 62.0079 0
8705 2 26.8701 62.0079 2.06693
8707 2 28.937 62.0079 0
472 4 31.0039 59.9409 0
505 4 31.0039 62.0079 2.06693
8708 2 31.0039 62.0079 2.06693
507 4 35.1378 62.0079 2.06693
8675 2 35.1378 59.9409 0
476 4 39.2717 59.9409 0
509 4 37.2047 62.0079 0
511 4 39.2717 62.0079 2.06693
8678 2 37.2047 59.9409 2.06693
8712 2 37.2047 62.0079 0
8713 2 39.2717 62.0079 2.06693
512 4 41.3386 62.0079 0
8681 2 41.3386 59.9409 2.06693
8715 2 41.3386 62.0079 0
482 4 45.4724 59.9409 2.06693
513 4 45.4724 62.0079 0
8679 2 43.4055 59.9409 0
8682 2 45.4724 59.9409 2.06693
8717 2 43.4055 62.0079 2.06693
8719 2 45.4724 62.0079 0
480 4 47.5394 59.9409 0
514 4 47.5394 62.0079 2.06693
515 4 51.6732 62.0079 2.06693
8683 2 49.6063 59.9409 2.06693
8721 2 51.6732 62.0079 2.06693
486 4 53.7402 59.9409 2.06693
517 4 53.7402 62.0079 0
8686 2 53.7402 59.9409 2.06693
8722 2 53.7402 62.0079 0
485 4 55.8071 59.9409 0
518 4 55.8071 62.0079 2.06693
8685 2 55.8071 59.9409 0
8724 2 55.8071 62.0079 2.06693
487 4 59.9409 59.9409 0
8688 2 59.9409 59.9409 0
8727 2 59.9409 62.0079 2.06693
490 4 64.0748 59.9409 0
521 4 64.0748 62.0079 2.06693
8729 2 64.0748 62.0079 2.06693
492 4 2.06693 64.0748 0
8690 2 2.06693 64.0748 0
8691 2 0 64.0748 2.06693
494 4 6.20079 64.0748 0
495 4 4.13386 64.0748 2.06693
8694 2 4.13386 64.0748 2.06693
8696 2 8.26772 64.0748 2.06693
8695 2 10.3346 64.0748 0
498 4 14.4685 64.0748 0
8700 2 18.6024 64.0748 0
8702 2 16.5354 64.0748 2.06693
499 4 22.7362 64.0748 0
501 4 20.6693 64.0748 2.06693
8706 2 24.8031 64.0748 2.06693
8704 2 26.8701 64.0748 0
8709 2 28.937 64.0748 2.06693
504 4 31.0039 64.0748 0
506 4 35.1378 64.0748 0
508 4 33.0709 64.0748 2.06693
8710 2 35.1378 64.0748 0
8711 2 33.0709 64.0748 2.06693
510 4 39.2717 64.0748 0
8714 2 37.2047 64.0748 2.06693
8718 2 41.3386 64.0748 2.06693
8716 2 43.4055 64.0748 0
8720 2 47.5394 64.0748 0
516 4 49.6063 64.0748 2.06693
519 4 53.7402 64.0748 2.06693
8725 2 53.7402 64.0748 2.06693
8723 2 55.8071 64.0748 0
8726 2 59.9409 64.0748 0
520 4 64.0748 64.0748 0
8728 2 64.0748 64.0748 0
8730 2 2.06693 2.06693 4.13386
8731 2 0 2.06693 6.20079
522 4 6.20079 0 6.20079
523 4 4.13386 2.06693 6.20079
8732 2 6.20079 2.06693 4.13386
8733 2 6.20079 0 6.20079
8734 2 4.13386 2.06693 6.20079
8735 2 8.26772 0 4.13386
8737 2 8.26772 2.06693 6.20079
524 4 10.3346 0 6.20079
527 4 12.4016 2.06693 6.20079
8736 2 10.3346 0 6.20079
8739 2 12.4016 2.06693 6.20079
525 4 14.4685 2.06693 4.13386
526 4 14.4685 0 6.20079
8738 2 14.4685 0 6.20079
528 4 16.5354 0 4.13386
529 4 18.6024 0 6.20079
8740 2 16.5354 0 4.13386
8741 2 16.5354 2.06693 6.20079
530 4 22.7362 0 6.20079
531 4 20.6693 2.06693 6.20079
8742 2 20.6693 2.06693 6.20079
8743 2 24.8031 0 4.13386
8745 2 24.8031 2.06693 6.20079
532 4 26.8701 2.06693 4.13386
533 4 26.8701 0 6.20079
534 4 28.937 0 4.13386
535 4 28.937 2.06693 6.20079
8744 2 26.8701 2.06693 4.13386
8746 2 28.937 0 4.13386
8747 2 31.0039 0 6.20079
536 4 33.0709 0 4.13386
537 4 35.1378 2.06693 4.13386
538 4 35.1378 0 6.20079
539 4 33.0709 2.06693 6.20079
8748 2 33.0709 0 4.13386
8749 2 33.0709 2.06693 6.20079
8750 2 39.2717 2.06693 4.13386
8751 2 39.2717 0 6.20079
8752 2 37.2047 2.06693 6.20079
540 4 41.3386 0 4.13386
8753 2 41.3386 2.06693 6.20079
541 4 45.4724 0 4.13386
542 4 47.5394 2.06693 4.13386
8754 2 47.5394 2.06693 4.13386
8755 2 47.5394 0 6.20079
543 4 51.6732 2.06693 4.13386
544 4 51.6732 0 6.20079
545 4 49.6063 2.06693 6.20079