ITEM: TIMESTEP
0
ITEM: NUMBER OF ATOMS
50688
ITEM: BOX BOUNDS xy xz yz pp pp pp
-20.3679009 65.6926346 5.7797456
-22.2159996 65.355896 0.0
-22.2159996 65.355896 0.0
ITEM: ATOMS id type x y z VoronoiIndex1 VoronoiIndex2 VoronoiIndex3 VoronoiIndex4 VoronoiIndex5 VoronoiIndex6 VoronoiIndex7 VoronoiIndex8 VoronoiIndex9 AtomicVolume
9 1 -7.6880002 -13.0600004 3.2490001 0 0 0 0 12 0 0 0 0 10.9734688
23 4 15.4099999 20.9400006 -0.4888 0 0 0 5 5 4 1 0 0 13.7240286
25 2 7.954 18.2299996 18.1700001 0 0 0 3 6 4 0 0 0 10.8139487
35 2 21.4500008 14.9300004 -13.1899996 0 0 0 5 6 3 0 0 0 12.2519369
57 5 7.1020002 -5.2719998 -19.5499993 0 0 0 1 10 2 0 0 0 12.2047901
71 2 3.3610001 16.4599991 -13.9300004 0 0 1 0 9 3 0 0 0 11.7139492
80 5 -0.7369 20.4699993 -15.7399998 0 0 2 2 3 5 1 0 0 12.4451189
81 4 15.5 -3.8670002 -9.1890001 0 0 0 0 12 0 0 0 0 10.8735418
82 5 -12.4399996 -15.8199997 -21.3700009 0 0 0 1 10 2 0 0 0 12.3910246
91 2 2.6300001 17.4099999 -9.9449998 0 0 0 2 10 2 0 0 0 12.3784628
101 1 -6.369 -19.25 -4.3829999 0 0 1 1 9 3 0 0 0 11.4323693
102 2 -19.6800003 -15.75 -3.329 0 0 0 1 10 2 0 0 0 12.1679916
105 4 3.0090001 11.4200001 -15.9499998 0 0 0 3 6 4 0 0 0 11.6531849
110 5 -5.1849999 -18.5699997 2.6889999 0 0 0 2 10 3 0 0 0 12.9375086
112 2 13.2200003 -4.1929998 15.1400003 0 0 0 3 6 4 0 0 0 11.5846167
128 5 -12.8299999 -12.8000002 7.1240001 0 0 0 2 10 2 0 0 0 12.9182674
141 5 4.1529999 6.8340001 -9.2060003 0 0 0 3 7 5 1 0 0 13.4790097
147 5 13.5500002 -3.1259999 10.4700003 0 0 0 2 8 5 0 0 0 13.5182505
157 4 0.3446 20.4300003 13.1899996 0 0 0 3 6 4 0 0 0 11.7191286
159 4 15.8599998 -3.3800001 15.0500002 0 0 0 3 6 4 0 0 0 11.6237355
168 5 5.2649999 -8.8269997 -14.9700004 0 0 1 0 11 1 0 0 0 11.5760222
171 2 -0.7419001 6.2080002 -10.1499996 0 0 0 0 12 0 0 0 0 11.3724718
174 4 -6.2189999 14.7600003 11.6099997 0 0 0 0 12 0 0 0 0 11.085721
184 2 14.96 -1.972 12.6300001 0 0 1 2 7 3 0 0 0 11.5807104
186 5 14.0799999 11.6099997 -15.8199997 0 0 0 3 6 4 0 0 0 12.1636152
196 5 12.3500004 -8.29 -1.949 0 0 0 1 10 3 0 0 0 12.2209091
214 2 1.7640001 14.6000004 -17.9400006 0 0 0 3 6 4 0 0 0 12.1059799
217 2 -13.6499996 -7.0019999 19.3999996 0 0 1 3 5 5 0 0 0 11.8583766
220 2 -17.6000004 -20.2800007 -10.3699999 0 0 0 2 8 2 0 0 0 11.4531069
243 4 4.1339998 0.762 14.0200005 0 0 1 3 5 5 0 0 0 12.3363447
244 5 13.1999998 -13.0200005 19.0499992 0 0 0 2 8 4 0 0 0 12.319129
245 1 -7.7600003 3.0350001 -21.5699997 0 0 0 3 6 4 0 0 0 11.5766135
247 2 11.4099999 13.0500002 -4.935 0 0 0 1 10 2 0 0 0 11.9907056
254 2 -7.375 18.0699997 -7.2179999 0 0 0 0 12 0 0 0 0 11.8863984
275 4 17.0 -0.7072 11.8900004 0 0 0 2 8 4 0 0 0 12.1977215
291 4 -15.29 13.0900002 -13.8999996 0 0 0 0 12 3 0 0 0 12.4513645
295 4 -2.878 1.902 -9.592 0 0 0 2 10 3 0 0 0 12.703455
299 5 0.1956 18.0100002 -19.75 0 0 0 1 10 2 0 0 0 11.9230318
300 2 20.1399994 -8.6049996 1.545 0 0 0 4 4 6 0 0 0 12.0970936
302 5 -17.8600006 13.1499996 -8.2749996 0 0 0 0 12 0 0 0 0 11.7125712
313 5 1.458 -14.7399998 3.6870001 0 0 1 1 7 4 0 1 0 12.9667864
314 5 -14.4099999 -21.4400006 3.5520001 0 0 0 3 8 4 0 0 0 12.6549263
327 4 -0.7968 -3.336 15.3500004 0 0 0 2 10 4 0 0 0 14.0173121
335 1 -8.2209997 16.9799996 -15.4600001 0 0 0 1 10 2 0 0 0 11.4832249
348 4 -8.0030003 2.1849999 11.5799999 0 0 1 1 8 3 1 0 0 12.0710602
360 4 13.3100004 -21.7099991 -7.6859999 0 0 0 2 10 5 0 0 0 13.7442322
364 4 -8.0389996 4.164 -15.4600001 0 0 0 1 10 3 0 0 0 13.5589876
387 4 17.4599991 -11.9399996 0.7218001 0 0 0 1 10 4 0 0 0 12.4855938
397 1 -6.625 0.2398 19.2299996 0 0 0 1 10 2 0 0 0 12.1525583
401 4 -13.8500004 13.1499996 11.4600001 0 0 1 1 8 4 1 0 0 12.2107916
410 4 9.6490002 -4.8590002 7.6770001 0 0 0 1 10 3 0 0 0 12.4158926
412 1 -5.4250002 12.4700003 -7.592 0 0 0 0 12 0 0 0 0 11.0938063
415 2 -6.467 1.119 -13.04 0 0 0 1 10 2 0 0 0 11.5321636
419 2 6.6919999 -10.7399998 -11.1899996 0 0 1 4 3 4 2 0 0 12.1580114
420 5 11.3800001 -10.6499996 -10.6899996 0 0 0 3 6 4 0 0 0 12.0628605
432 5 4.8509998 8.5089998 8.1300001 0 0 0 1 10 3 0 0 0 12.3664065
438 4 -11.04 -19.7600003 16.2800007 0 0 0 1 10 3 0 0 0 12.3306627
439 4 -6.501 19.7099991 -15.8800002 0 0 0 4 4 6 0 0 0 12.9085866
442 4 6.1929998 16.3500004 -18.1700001 0 0 0 0 12 2 0 0 0 12.4378615
446 4 -17.3500004 6.046 3.6830001 0 0 0 3 8 2 0 0 0 12.0984983
453 4 1.9450002 0.3137 7.6960001 0 0 0 1 10 3 0 0 0 12.9322958
459 4 -8.863 0.5748 -21.1599999 0 0 0 1 10 4 0 0 0 13.0824099
475 2 -0.8216 21.25 11.1700001 0 0 3 2 5 6 0 0 0 12.6672201
477 5 -11.6499996 -4.4689999 -3.411 0 0 0 5 6 4 0 0 0 13.0863457
485 4 8.1619997 3.9530002 -15.4399996 0 0 0 1 10 3 0 0 0 12.0959806
515 5 1.087 -14.8299999 17.0200005 0 0 1 0 11 3 0 0 0 12.1307335
520 5 7.4190002 -17.2299996 11.7100001 0 0 0 3 6 5 0 0 0 12.2935944
533 4 11.8599998 4.4850002 -4.7319999 0 0 0 0 14 2 0 0 0 13.2375927
537 2 17.6800003 8.3210001 -9.2390003 0 0 0 2 8 1 0 0 0 10.909525
539 2 -6.4840002 7.2839999 -21.8700008 0 0 0 2 8 2 0 0 0 11.3823757
540 5 -6.4260001 -17.6499996 0.4669 0 0 0 0 12 0 0 0 0 10.986539
550 4 10.0200005 -10.9399996 12.29 0 0 1 1 9 2 2 0 0 12.3432875
562 2 5.349 -13.3000002 -21.8899994 0 0 0 3 6 4 0 0 0 11.5606594
564 4 15.8900004 -1.355 16.6399994 0 0 1 3 7 3 0 0 0 11.4140749
567 4 8.9580002 -14.4799996 21.0200005 0 0 0 0 12 0 0 0 0 11.3913765
574 5 19.0200005 -16.7199993 -13.04 0 0 0 1 10 2 0 0 0 12.2291441
576 5 -15.8199997 6.605 -17.0100002 0 0 0 0 12 0 0 0 0 11.8924122
580 2 17.8099995 -16.5499993 -10.75 0 0 0 4 6 4 0 0 0 11.6889563
585 4 13.3699999 -9.4770003 -11.6800003 0 0 0 1 10 3 0 0 0 12.5959406
603 5 -8.0459995 -19.3099995 -0.3904 0 0 0 1 10 2 0 0 0 11.2851906
620 4 2.3540001 15.8199997 7.9629998 0 0 1 0 11 1 0 0 0 12.2222729
622 5 3.165 -5.5630002 5.204 0 0 0 0 12 2 0 0 0 12.4644223
642 4 -4.0079999 2.2360001 -20.0599995 0 0 0 2 8 5 0 0 0 13.0131102
643 5 16.3799992 -0.3488 -17.5699997 0 0 0 2 6 4 0 0 0 11.8727342
650 2 19.4200001 -12.9899998 17.2199993 0 0 0 0 12 0 0 0 0 11.2804556
653 4 2.0669999 -17.3199997 3.401 0 0 0 0 12 4 0 0 0 13.6506043
654 4 2.896 -9.2770004 -0.6949 0 0 0 2 8 4 0 0 0 12.7000733
656 4 8.1680002 -14.6099997 15.1899996 0 0 0 1 12 1 0 0 0 12.4145126
665 4 -6.842 -7.8520002 -22.1499996 0 0 1 3 5 5 0 0 0 12.1316557
666 4 -8.4720001 -10.8800002 -0.2713 0 0 0 1 10 3 0 0 0 12.40417
671 2 19.9899998 -0.9238 17.1599999 0 0 0 0 12 0 0 0 0 11.6027365
673 2 10.9300004 5.3200002 12.5200005 0 0 0 2 8 2 0 0 0 11.849826
679 4 10.29 13.0299997 17.3999996 0 0 0 1 10 2 0 0 0 12.0734758
683 5 -5.1869998 10.6499996 18.9099998 0 0 0 1 10 2 0 0 0 12.0529213
687 5 16.3700009 -10.7600003 19.7999993 0 0 0 2 8 3 0 0 0 11.4559527
694 5 -14.96 15.9499998 5.4169998 0 0 0 0 12 2 0 0 0 12.6109495
697 4 -17.2700005 17.9099998 19.3999996 0 0 1 1 9 5 0 0 0 13.2051392
706 5 -18.1100006 -0.8059 1.4650001 0 0 0 3 6 4 0 0 0 12.6427202
716 4 2.1849999 3.7590001 4.2319999 0 0 0 1 10 1 1 0 0 11.4965077
717 4 8.3780003 -20.3600006 2.1229999 0 0 0 1 10 4 0 0 0 12.6944371
728 5 6.592 0.01545 3.675 0 0 1 4 4 4 3 0 0 12.5057869
745 4 3.22 -15.7700005 -17.5400009 0 0 0 6 6 2 0 0 0 13.0570421
761 5 -3.8039999 11.8800002 -12.6499996 0 0 0 4 4 6 0 0 0 12.7204046
770 4 -16.8600006 -19.7999993 18.9500008 0 0 0 2 8 4 0 0 0 12.4363413
775 2 -0.8726 -14.5 21.5599995 0 0 1 0 11 1 0 0 0 11.7221852
776 4 20.4500008 6.362 4.844 0 0 0 1 10 2 0 0 0 12.3415814
781 4 -4.9390002 -20.4400006 -11.4399996 0 0 1 2 7 5 0 0 0 12.2990351
787 2 -18.4899998 -12.1899996 14.8199997 0 0 0 0 12 0 0 0 0 11.2459192
798 5 -6.7740002 20.7600003 -3.7219999 0 0 0 1 10 4 0 0 0 12.297123
806 4 -6.3020001 4.3270002 16.5900002 0 0 1 3 7 2 0 0 0 12.371378
831 4 -19.7099991 -12.5900002 16.9699994 0 0 0 2 8 5 0 0 0 13.025816
841 5 -10.4899998 21.4300003 -11.3199997 0 0 1 5 3 5 0 0 0 12.0904131
843 2 4.5409999 -4.2459998 -8.3120003 0 0 0 4 5 4 0 0 0 11.9663706
864 2 7.1040001 -4.0359998 0.904 0 0 0 2 10 1 0 0 0 11.6879044
897 5 7.698 -5.0300002 11.1400003 0 0 0 2 8 2 0 0 0 11.5666952
917 5 10.9799996 -13.8299999 20.2299996 0 0 0 0 12 0 0 0 0 11.341465
947 5 -16.3199997 14.8800002 -11.8999996 0 0 0 1 10 2 0 0 0 12.4624853
949 2 15.1899996 3.593 21.1499996 0 0 1 4 4 3 1 0 0 11.0413666
952 2 12.4499998 0.3212 0.9286 0 0 0 0 12 2 0 0 0 13.1533108
961 2 1.261 -20.8099995 -5.1279998 0 0 1 4 3 3 2 0 0 11.5510483
980 2 0.1388 20.0900002 17.1299992 0 0 0 0 12 0 0 0 0 11.1185894
990 4 6.8839998 -14.79 -20.3500004 0 0 0 0 12 2 0 0 0 12.6530752
996 5 15.75 -9.6289997 15.96 0 0 0 1 10 2 0 0 0 11.408185
999 4 2.603 9.316 -9.5380001 0 0 0 1 10 2 0 0 0 11.9211694
1009 5 9.3979998 10.7399998 17.8999996 0 0 0 0 12 0 0 0 0 11.4591236
1023 2 18.7000008 -3.2809999 -16.0200005 0 0 0 1 10 2 0 0 0 11.9095106
1027 4 -4.2490001 -11.6199999 17.3500004 0 0 0 3 7 4 1 0 0 12.7963505
1034 4 14.5900002 6.8070002 -14.25 0 0 0 0 12 0 0 0 0 11.3661785
1039 5 11.1000004 10.1899996 -21.0699997 0 0 1 4 3 3 2 0 0 11.9162484
1040 1 9.3640003 -15.1400003 -20.6200009 0 0 0 0 12 0 0 0 0 10.6249428
1053 4 -14.96 -0.6829 0.1987 0 0 0 0 12 2 0 0 0 11.9507276
1063 5 19.8500004 -20.2199993 -15.0500002 0 0 0 1 10 2 0 0 0 11.9499808
1067 3 19.5400009 -7.1929998 -19.0300007 0 0 1 2 8 4 1 0 0 13.4287043
1068 5 -3.1830001 4.0170002 -2.556 0 0 0 1 10 3 0 0 0 12.443615
1087 4 -12.2600002 16.9699994 0.06129 0 0 0 4 6 5 0 0 0 13.4777107
1089 4 -1.699 -8.1520004 4.0770001 0 0 0 3 8 4 0 0 0 13.0796204
1091 5 1.025 -17.2099991 7.988 0 0 1 2 7 3 0 0 0 12.3295899
1094 5 11.0500002 2.102 19.1299992 0 0 0 1 10 2 0 0 0 11.4179335
1101 4 -5.7610002 -17.5200005 9.9329996 0 0 0 4 6 4 0 0 0 11.9200058
1111 4 -11.3000002 -18.8700008 20.6100006 0 0 1 2 7 4 2 0 0 13.0840015
1113 4 14.9099998 4.2140002 18.7900009 0 0 1 1 8 3 1 0 0 11.6890116
1119 4 19.9899998 -7.0700002 20.0 0 0 2 2 6 5 0 0 0 12.4397555
1127 2 -4.7890001 14.4700003 -2.949 0 0 0 4 6 3 0 0 0 12.0044556
1129 2 18.3600006 19.5599995 20.0300007 0 0 0 0 12 0 0 0 0 11.2068062
1143 5 -3.609 10.5600004 -0.3466 0 0 0 0 12 2 0 0 0 12.407691
1147 4 -10.4600001 1.361 -10.4799996 0 0 0 3 6 5 0 0 0 12.5989285
1152 2 -9.6070004 -13.3299999 -7.842 0 0 0 1 10 3 0 0 0 12.8269081
1158 2 4.0479999 12.9499998 13.0900002 0 0 0 0 12 0 0 0 0 11.0821009
1161 4 11.5799999 -1.714 -3.0669999 0 0 0 0 12 3 0 0 0 13.0327559
1171 5 0.9714 -1.419 14.0600004 0 0 0 2 8 2 0 0 0 11.0274725
1175 4 7.4889999 16.5599995 15.9300004 0 0 0 0 12 3 0 0 0 12.8597356
1179 2 -19.6499996 -20.7199993 -2.6989999 0 0 1 6 3 3 2 0 0 12.468997
1185 2 10.7100001 -4.6409998 -21.3899994 0 0 0 0 12 0 0 0 0 11.2411289
1190 2 -7.165 -16.2700005 -16.0300007 0 0 0 3 6 4 0 0 0 11.2950001
1191 4 -12.4799996 20.1200008 -12.6899996 0 0 0 4 6 4 0 0 0 12.4580593
1196 2 14.25 21.3299999 -19.0 0 0 2 2 4 5 0 1 0 12.1218004
1206 1 -16.1100006 19.3500004 10.3900004 0 0 0 1 10 2 0 0 0 11.2306662
1207 5 11.9099998 17.75 18.3600006 0 0 0 1 10 2 0 0 0 11.4364529
1208 4 15.7700005 17.2600002 -4.7690001 0 0 0 3 6 6 0 0 0 12.5503187
1212 4 11.1099997 -3.4920001 11.0600004 0 0 0 4 4 6 0 0 0 13.3627167
1214 5 18.7800007 4.4660001 15.9200002 0 0 0 2 8 1 0 0 0 11.0713673
1216 1 10.7200003 20.9400006 -13.6599999 0 0 0 2 7 2 1 0 0 11.5520058
1217 5 -6.855 9.9980002 3.352 0 0 1 1 8 3 1 0 0 11.5737391
1226 4 11.7700005 18.4500008 -16.0799999 0 0 0 1 10 2 0 0 0 12.3094292
1232 4 -16.3999996 5.981 -8.632 0 0 0 0 12 3 0 0 0 13.0571661
1246 4 10.7200003 10.5 -10.8100004 0 0 0 1 10 5 0 0 0 13.0488024
1249 2 -6.085 -8.7980004 21.1200008 0 0 1 2 7 2 0 0 0 11.6271076
1250 2 -5.5079999 10.5799999 6.593 0 0 1 1 8 4 1 0 0 12.2477284
1252 4 -12.8599998 -17.5 -19.2700005 0 0 0 0 12 2 0 0 0 12.6205931
1258 4 -17.1700001 16.9200002 11.1700001 0 0 0 2 10 3 0 0 0 12.9027596
1261 4 7.6479998 -1.7410001 -0.3706 0 0 0 4 6 6 0 0 0 12.7495423
1269 5 -12.5 -18.9899998 -6.5669999 0 0 1 1 9 4 0 0 0 12.0081587
1270 2 0.9762 5.5879998 0.4362 0 0 0 2 8 2 0 0 0 11.3458548
1295 4 -0.3714 -22.2099991 -3.691 0 0 1 1 10 2 1 0 0 12.7759257
1305 5 -0.5254 16.4099999 14.3599997 0 0 0 1 9 2 1 0 0 12.0780878
1306 5 -3.0739999 15.8299999 -8.7349997 0 0 0 0 12 2 0 0 0 12.378541
1318 5 0.5135 -3.2219999 -12.87 0 0 0 3 6 4 0 0 0 11.803381
1325 4 18.2399998 21.3299999 4.1020002 0 0 0 1 10 3 0 0 0 12.5345183
1328 2 6.3810001 13.29 -5.0359998 0 0 0 2 8 2 0 0 0 11.565197
1335 5 -2.7560001 -0.6592 20.3899994 0 0 0 1 10 2 0 0 0 12.6187296
1337 4 17.9400006 -13.7299996 -7.6900001 0 0 0 3 6 4 0 0 0 11.5901051
1340 4 15.5299998 14.75 -0.253 0 0 1 1 8 4 1 0 0 12.7841988
1352 4 -15.3699999 -21.0699997 17.5300007 0 0 0 0 12 3 0 0 0 12.8221092
1357 5 18.4899998 -9.7869997 -4.881 0 0 0 1 10 4 0 0 0 12.4759856
1371 4 18.2700005 8.8369999 -1.482 0 0 0 0 12 0 0 0 0 11.0536518
1374 4 18.2299996 -7.264 1.6900001 0 0 1 1 9 3 0 0 0 12.4445095
1386 2 8.6669998 0.8021 4.7680002 0 0 1 3 3 3 2 0 0 11.4947624
1387 3 -17.0900002 10.3000002 21.0599995 0 0 0 1 10 3 0 0 0 11.977667
1388 5 14.1300001 -3.405 -7.1440001 0 0 0 0 12 0 0 0 0 11.0255718
1393 4 5.3909998 -6.8379998 4.9780002 0 0 0 1 10 2 0 0 0 11.6987276
1415 4 3.906 -13.9899998 -2.0780001 0 0 0 1 10 5 0 0 0 12.861703
1419 4 14.5500002 -18.3999996 -13.3599997 0 0 0 2 8 4 0 0 0 12.5335722
1431 4 -16.3099995 -8.1459999 2.536 0 0 0 0 12 4 0 0 0 12.729208
1433 5 3.395 -5.3790002 15.3299999 0 0 0 3 6 4 0 0 0 12.2384215
1444 4 -3.675 1.036 11.0299997 0 0 0 2 8 5 0 0 0 12.5584765
1447 4 5.8319998 -20.4899998 14.9099998 0 0 0 3 8 4 0 0 0 12.9791842
1450 1 19.3700009 5.263 -6.2620001 0 0 1 0 9 3 0 0 0 11.8928672
1452 4 -7.0689998 -9.0200005 -19.5900002 0 0 0 1 10 3 0 0 0 12.4538555
1469 2 5.5489998 -17.5599995 -1.845 0 0 0 2 8 4 0 0 0 11.8187199
1471 5 -14.9899998 -20.2900009 -10.29 0 0 1 4 3 5 0 0 0 11.59548
1487 4 4.3480001 -16.6900006 -9.0059996 0 0 1 2 7 5 0 0 0 12.9621516
1504 5 10.7799998 4.4889999 -16.7299996 0 0 0 3 8 2 0 0 0 12.1026135
1516 2 17.5100003 18.1900005 -2.909 0 0 1 2 6 3 1 0 0 11.125948
1533 2 9.9440002 0.8728 -6.0110002 0 0 0 0 10 2 0 0 0 12.1134291
1534 4 8.2589998 15.3400002 0.9631 0 0 1 3 6 5 1 0 0 13.2480679
1543 1 -15.29 -16.7900009 5.4759999 0 0 0 1 10 2 0 0 0 11.5731945
1548 4 13.6199999 -16.6100006 16.5499993 0 0 1 4 7 3 0 0 0 12.7709818
1550 4 -1.204 -14.8000002 -13.0200005 0 0 0 1 10 1 2 0 0 12.6546021
1561 4 -13.0900002 4.6659999 4.2529998 0 0 0 2 8 4 0 0 0 12.4808197
1566 1 9.4329996 0.6914 -8.6020003 0 0 0 1 12 2 0 0 0 12.5308104
1581 2 4.8969998 8.309 -4.0770001 0 0 1 0 11 1 0 0 0 12.0795679
1584 2 20.3600006 18.5699997 19.1000004 0 0 0 0 12 0 0 0 0 10.8195286
1585 3 -6.0339999 -19.3899994 14.8900004 0 0 0 0 12 0 0 0 0 11.8170767
1595 5 4.138 0.6235 -12.4799996 0 0 1 3 5 5 0 0 0 12.0709763
1605 5 8.625 -5.8649998 0.123 0 0 0 2 8 2 0 0 0 11.795393
1618 4 0.1086 -6.7090001 21.1000004 0 0 1 0 11 4 0 0 0 13.0443659
1622 4 8.9110004 14.1300001 -1.699 0 0 0 0 12 3 0 0 0 13.7513371
1625 4 9.8500004 -7.3660002 8.3870001 0 0 1 1 10 2 1 0 0 12.541893
1630 4 2.6440001 -17.0200005 12.6499996 0 0 0 2 10 3 0 0 0 13.0390444
1632 4 0.8473 -5.6310001 -13.3500004 0 0 0 2 8 4 0 0 0 12.4008436
1644 4 6.4510002 12.1599999 13.7600003 0 0 0 0 12 3 0 0 0 13.5119982
1667 4 -4.0539999 8.3699999 -8.993 0 0 0 1 9 3 1 0 0 12.5118332
1672 4 10.5600004 -19.2600002 -20.2999992 0 0 0 2 10 4 0 0 0 13.8773518
1687 5 16.3500004 -1.041 14.4200001 0 0 0 1 10 2 0 0 0 11.822732
1694 2 18.2700005 -1.205 3.296 0 0 0 0 12 0 0 0 0 10.8942766
1699 4 19.4699993 -7.9840002 8.4659996 0 0 0 1 10 3 0 0 0 12.047905
1700 5 12.54 11.4200001 20.3799992 0 0 0 2 10 1 0 0 0 12.009717
1705 1 -0.3297 -14.8500004 -0.3373 0 0 1 1 8 3 1 0 0 11.5573712
1707 4 17.4699993 4.3769999 -12.1800003 0 0 0 3 6 4 0 0 0 12.649107
1712 2 16.1399994 -14.4600001 -20.4799996 0 0 0 0 12 0 0 0 0 11.1592627
1714 4 18.3799992 0.3123 15.9099998 0 0 0 1 10 3 0 0 0 12.4719229
1724 2 -2.122 0.02002 -12.7600003 0 0 0 3 6 3 0 0 0 11.5084181
1730 5 -2.707 -2.6770001 18.6499996 0 0 0 2 10 3 0 0 0 13.0921583
1733 1 -5.0619998 -15.6099997 19.1399994 0 0 0 0 12 0 0 0 0 10.8043785
1737 4 14.5299998 -20.5900002 -0.4925 0 0 0 0 12 0 0 0 0 11.325738
1743 4 -4.086 -18.3700009 0.4856 0 0 0 0 12 2 0 0 0 12.0684719
1745 4 -13.0100002 -21.4099999 16.7600003 0 0 0 2 10 1 0 0 0 11.7114563
1750 4 1.7230001 3.6129999 -1.205 0 0 0 3 6 5 0 0 0 12.6886473
1751 4 -0.02279 -12.4399996 -3.2119999 0 0 0 4 8 2 0 0 0 12.6114187
1772 2 -5.8920002 21.3099995 -19.9500008 0 0 0 0 12 0 0 0 0 11.0359573
1773 5 12.75 1.183 21.1499996 0 0 0 4 6 5 0 0 0 12.7533169
1796 2 13.0299997 -8.5220003 -20.6900006 0 0 0 0 12 0 0 0 0 11.3617344
1803 2 16.2800007 -4.4910002 -6.9120002 0 0 0 2 10 2 0 0 0 12.2106314
1805 4 21.1599999 16.3999996 -18.3400002 0 0 0 2 10 0 0 0 0 11.5956364
1813 4 -13.54 -2.461 -8.4440003 0 0 0 1 10 4 0 0 0 12.1800194
1834 4 19.2199993 17.1200008 21.1100006 0 0 0 0 12 3 0 0 0 13.5168476
1837 4 -14.4399996 11.2299996 -19.1200008 0 0 0 0 12 4 0 0 0 13.6157885
1838 2 6.902 17.8099995 -2.8840002 0 0 1 0 11 1 0 0 0 10.8500586
1847 4 19.6100006 -16.0599995 -18.1800003 0 0 0 2 8 5 0 0 0 12.824152
1849 5 -1.207 -7.9889998 -12.6899996 0 0 0 1 10 2 0 0 0 11.6861191
1853 2 19.6299992 21.2099991 -12.6000004 0 0 0 0 10 2 0 0 0 11.4515963
1854 4 17.1100006 -7.1440001 8.4060001 0 0 0 0 12 0 0 0 0 11.59478
1860 2 -7.3800001 -5.4400001 -16.7299996 0 0 0 1 10 2 0 0 0 11.8426332
1865 2 -15.2299996 -8.823 14.8400002 0 0 0 3 8 2 0 0 0 11.1410761
1868 4 -12.6899996 5.8249998 6.877 0 0 0 1 10 5 0 0 0 13.270236
1873 4 15.8199997 -19.6299992 -8.3940001 0 0 0 1 10 3 0 0 0 12.3754931
1880 5 9.3240004 -19.6499996 20.2900009 0 0 0 1 10 3 0 0 0 12.0092707
1890 4 -9.9540006 -21.0799999 7.704 0 0 0 0 12 0 0 0 0 11.7634545
1893 2 11.4099999 -11.0600004 1.0980001 0 0 0 0 12 0 0 0 0 10.752636
1898 5 -11.8599998 17.1599999 20.9099998 0 0 0 2 10 0 0 0 0 11.459755
1911 4 17.4099999 -13.6000004 5.6329999 0 0 1 3 5 5 0 0 0 12.0270042
1921 4 13.7299996 16.0100002 4.3629999 0 0 0 2 8 4 0 0 0 12.3644171
1925 2 15.6300001 -20.2199993 -15.1999998 0 0 0 2 8 3 0 0 0 12.2075348
1926 4 -2.128 7.2680001 -8.2419996 0 0 0 0 12 2 0 0 0 12.4066887
1928 4 -1.17 5.671 1.397 0 0 0 1 10 4 0 0 0 12.6458292
1934 4 -2.932 16.4200001 -6.4369998 0 0 0 2 8 2 0 0 0 10.8742142
1935 4 7.0980001 -2.198 5.6160002 0 0 2 0 8 2 2 0 0 11.9426498
1938 4 -3.4100001 -3.418 -9.5579996 0 0 0 2 10 0 0 0 0 11.9672728
1943 5 -7.7399998 20.2099991 -18.1900005 0 0 0 3 6 6 0 0 0 12.0757494
1947 5 -5.244 0.8938 17.4500008 0 0 0 3 6 5 0 0 0 12.6306792
1948 4 -3.411 -4.8870002 -11.4300003 0 0 0 1 12 1 0 0 0 11.6218443
1954 5 -8.1420002 -10.4799996 13.9700004 0 0 1 2 7 5 0 0 0 12.8955574
1986 4 -3.737 9.7880001 12.2200003 0 0 0 3 8 3 0 0 0 12.1097307
1993 5 -10.6800003 -8.2580004 -17.2900009 0 0 0 1 10 2 0 0 0 12.3900442
1996 4 -4.8309999 14.6700001 7.1069999 0 0 0 1 10 2 0 0 0 12.4533739
1998 2 -1.196 3.0639999 7.501 0 0 1 2 9 2 0 0 0 12.6289788
2001 4 10.2100001 -6.3940001 5.941 0 0 0 1 10 2 0 0 0 12.1387081
2006 5 -11.6800003 -10.9499998 -20.2999992 0 0 2 3 5 4 1 0 0 12.4295511
2009 4 -10.1800003 -18.4300003 -1.462 0 0 0 0 12 2 0 0 0 11.8424768
2020 2 14.8100004 -2.8970002 3.6570001 0 0 0 4 6 2 0 0 0 11.9846192
2022 5 18.2700005 -12.3299999 19.3799992 0 0 0 0 12 2 0 0 0 12.0509663
2027 4 -2.84 -4.3969998 14.0600004 0 0 0 1 10 2 0 0 0 11.5173207
2028 2 -7.672 6.7010002 0.9458 0 0 0 1 10 2 0 0 0 11.6737414
2050 2 -13.0500002 -20.2099991 -15.8400002 0 0 0 1 10 2 0 0 0 10.9764224
2052 5 -12.8900004 19.4500008 3.2149999 0 0 0 1 10 3 0 0 0 12.7462273
2055 4 8.9069996 -4.3610001 -10.3100004 0 0 0 1 10 4 0 0 0 13.0722714
2056 5 17.1299992 11.3800001 9.7799998 0 0 0 1 10 2 0 0 0 12.7406206
2062 2 9.0139999 15.0500002 -15.3299999 0 0 0 3 6 4 0 0 0 12.0130882
2073 4 -2.355 -14.5 -19.5799999 0 0 0 1 10 4 0 0 0 12.6210966
2081 5 -15.1099997 -14.7200003 1.479 0 0 0 0 12 2 0 0 0 12.7068997
2082 2 17.5900002 15.6099997 11.5699997 0 0 0 2 8 2 0 0 0 11.5258761
2083 4 -0.7999 -19.8299999 -13.87 0 0 0 1 10 3 0 0 0 12.1598949
2087 5 -10.5500002 -9.0640001 -6.9130002 0 0 0 1 9 2 1 0 0 11.8903066
2093 5 -2.3570001 -15.6300001 11.3100004 0 0 0 0 12 0 0 0 0 11.911912
2095 4 -0.1841 -10.3100004 -20.0400009 0 0 0 1 10 5 0 0 0 13.3737764
2096 5 -17.0499992 -5.4039998 12.79 0 0 0 2 8 2 0 0 0 11.3346958
2107 5 -16.1599999 14.9399996 -6.995 0 0 0 1 10 4 0 0 0 12.8966132
2143 2 6.4330001 2.8740002 16.8500004 0 0 1 2 7 4 0 1 0 12.5475807
2154 4 17.8199997 14.5900002 -1.668 0 0 0 3 8 3 0 0 0 13.491725
2160 2 12.5500002 8.7600003 2.6789999 0 0 0 3 5 3 1 0 0 11.4164581
2167 5 17.6299992 13.9899998 9.4919997 0 0 0 2 8 7 0 0 0 13.5981579
2176 5 8.8039999 12.9099998 0.8032 0 0 0 3 7 3 1 0 0 12.7153158
2178 4 -10.2399998 -20.1299992 -5.698 0 0 0 0 12 3 0 0 0 13.002553
2181 4 -8.5819998 8.3389998 15.8800002 0 0 0 0 12 2 0 0 0 12.7614537
2185 2 -14.0900002 -20.8999996 -6.967 0 0 1 3 5 4 0 0 0 11.4729319
2187 2 -3.504 9.389 18.1900005 0 0 0 1 10 2 0 0 0 11.4085217
2197 2 20.0499992 16.9699994 6.0170002 0 0 0 2 8 1 0 0 0 11.2611742
2207 5 15.2299996 -9.5670004 -7.6240001 0 0 1 1 8 3 1 0 0 12.6584645
2212 4 -10.1300001 -5.803 -17.3199997 0 0 0 2 8 5 0 0 0 12.6591635
2241 4 5.4980002 -5.903 0.9735 0 0 0 2 8 5 0 0 0 12.3633108
2274 1 -6.0929999 -19.9200002 0.7726 0 0 0 3 6 4 0 0 0 11.3972235
2290 4 -2.905 -20.7800007 12.8100004 0 0 1 1 9 3 0 0 0 12.4774351
2291 2 -12.3199997 16.0799999 -14.7100001 0 0 0 2 8 3 0 0 0 11.6807184
2295 1 7.954 -2.714 18.3099995 0 0 0 2 8 3 0 0 0 11.8148756
2315 4 16.8099995 -0.1707 -21.4200001 0 0 0 1 10 2 0 0 0 11.7815686
2324 1 13.6700001 -10.1199999 10.4200001 0 0 0 4 4 5 0 0 0 12.2057228
2325 4 -15.3500004 -6.2849999 -6.8130002 0 0 1 2 7 4 0 0 0 11.9414272
2333 2 8.2869997 21.2199993 19.6800003 0 0 0 1 10 2 0 0 0 11.0529013
2334 5 -0.9355 8.1920004 14.3699999 0 0 0 4 6 4 0 0 0 12.5582915
2341 4 21.6499996 8.7749996 -9.969 0 0 1 2 7 4 0 0 0 12.0108957
2342 3 1.77 6.2059999 -15.8999996 0 0 0 1 10 2 0 0 0 11.4827576
2346 4 -15.2399998 -1.931 4.4250002 0 0 0 1 10 5 0 0 0 13.953044
2356 3 19.5499993 -2.158 -9.9449998 0 0 1 2 7 5 0 0 0 12.5301132
2377 4 6.803 -20.4699993 21.0599995 0 0 0 0 12 0 0 0 0 11.0061445
2388 4 -4.776 6.638 -2.181 0 0 0 0 12 4 0 0 0 13.461361
2389 2 -14.5799999 -16.0599995 -17.6700001 0 0 2 0 10 2 0 0 0 12.0160093
2400 2 -13.0600004 -0.329 20.3500004 0 0 1 4 4 4 1 0 0 11.7156611
2409 5 -6.131 21.1100006 19.8299999 0 0 0 2 10 0 0 0 0 11.0051231
2411 4 18.4599991 -18.7900009 -3.1010001 0 0 0 3 6 4 0 0 0 11.1252518
2414 1 1.657 7.1659999 15.3999996 0 0 0 3 8 2 0 0 0 12.0877657
2428 4 -7.3049998 14.0 13.5600004 0 0 0 0 12 0 0 0 0 11.4995423
2437 2 -11.2700005 9.9770002 18.5599995 0 0 0 3 6 4 0 0 0 11.2938538
2438 1 10.8999996 -10.1300001 -1.063 0 0 0 0 12 0 0 0 0 11.1442537
2440 4 12.3299999 -12.4600001 -1.073 0 0 0 3 6 6 0 0 0 13.277277
2465 5 -1.403 -10.1300001 7.988 0 0 0 2 8 4 0 0 0 12.2876825
2476 1 13.0200005 -22.1800003 19.5 0 0 0 2 8 2 0 0 0 11.6237822
2480 4 13.3599997 11.3000002 -20.3799992 0 0 1 0 11 4 0 0 0 13.1050015
2502 4 -6.3870001 -10.87 -1.632 0 0 1 3 7 2 0 0 0 11.969019
2504 2 -8.8350001 -9.6770001 -14.3900004 0 0 0 0 12 0 0 0 0 11.5832758
2509 4 -8.79 17.6200009 -21.5100003 0 0 0 2 10 3 0 0 0 12.8384819
2511 5 -5.7979999 6.605 -4.7230001 0 0 0 0 12 0 0 0 0 11.5011082
2519 4 8.7419997 -9.1660004 17.4500008 0 0 0 1 10 2 0 0 0 11.6364279
2520 4 3.7390001 -19.6800003 -6.125 0 0 0 1 12 2 0 0 0 11.9495306
2521 2 5.8979998 5.1739998 13.4099999 0 0 0 3 6 5 0 0 0 11.7966748
2524 4 -18.2399998 4.1550002 -2.27 0 0 0 0 12 2 0 0 0 12.6571131
2526 2 -5.883 15.6899996 18.1000004 0 0 1 3 5 3 0 0 0 11.1654463
2534 5 -6.5120001 8.809 -17.3099995 0 0 0 2 8 4 0 0 0 12.2702198
2535 5 -5.1389999 -5.0419998 3.995 0 0 0 2 10 4 0 0 0 13.4629011
2577 3 -0.5063 -3.6129999 10.6099997 0 0 0 0 12 4 0 0 0 13.5488186
2582 2 2.876 13.5699997 -11.6099997 0 0 0 1 10 2 0 0 0 11.8976812
2588 2 22.0300007 13.1899996 -10.3299999 0 0 0 2 8 1 2 0 0 11.4733782
2590 4 -6.6090002 10.7100001 11.4200001 0 0 0 0 12 2 0 0 0 12.2543516
2592 3 -12.6800003 14.8999996 -20.7600003 0 0 0 3 6 4 0 0 0 11.7751665
2594 2 4.914 2.8350001 -17.1299992 0 0 1 2 7 3 0 0 0 12.0149832
2595 5 -17.0599995 -15.6599999 3.076 0 0 0 1 10 2 0 0 0 11.9332876
2600 1 12.1300001 18.1100006 10.5699997 0 0 0 3 6 5 0 0 0 11.8001509
2608 5 4.4169998 -10.54 10.29 0 0 0 2 10 3 0 0 0 12.9265462
2613 5 -10.1300001 -10.4300003 20.1700001 0 0 1 4 7 3 0 0 0 12.6095801
2615 2 9.3959999 -20.9599992 6.7940002 0 0 1 2 7 3 0 0 0 11.3839855
2623 3 -15.4799996 1.804 -20.5699997 0 0 1 1 9 3 0 0 0 12.7061281
2644 2 -5.1989999 21.25 0.9407 0 0 0 3 6 4 0 0 0 11.8931408
2648 2 3.082 -5.849 -14.0799999 0 0 0 0 12 0 0 0 0 11.0460424
2651 4 15.4700003 -20.6399994 9.9580002 0 0 0 0 12 3 0 0 0 12.4702759
2659 4 17.8400002 -3.5350001 -8.6590004 0 0 0 1 10 2 0 0 0 11.9083624
2672 2 -8.4610005 -14.87 11.25 0 0 0 5 4 3 0 0 0 11.7530737
2677 4 21.3999996 18.9400006 6.3140001 0 0 0 1 10 2 0 0 0 12.1735106
2680 4 18.0699997 -7.3579998 18.6900006 0 0 0 5 2 6 0 0 0 11.3165712
2692 4 -14.6700001 -7.7560001 -5.0949998 0 0 0 3 6 4 0 0 0 11.3708305
2697 1 -14.2200003 17.9099998 -2.863 0 0 1 3 6 2 1 0 0 11.8503724
2706 4 15.0699997 3.626 -12.5600004 0 0 0 1 10 2 0 0 0 12.6248532
2715 4 7.434 -5.2620001 18.1700001 0 0 0 1 10 4 0 0 0 12.1360884
2719 4 2.609 -8.5279999 -11.1899996 0 0 0 2 8 4 0 0 0 12.998291
2741 5 13.7700005 12.9899998 1.294 0 0 0 0 10 2 0 0 0 11.4912787
2771 5 8.809 -18.6200009 10.2399998 0 0 0 1 10 2 0 0 0 11.4088612
2773 2 10.4399996 -17.8299999 -15.6000004 0 0 0 1 10 2 0 0 0 11.9903718
2784 5 -0.9345 -20.7299996 2.0120001 0 0 0 4 4 6 0 0 0 12.4765435
2803 5 -8.4060001 -15.1099997 -8.9440002 0 0 0 2 10 1 0 0 0 12.522811
2805 4 14.7200003 11.0299997 -2.832 0 0 0 2 10 2 0 0 0 13.0589132
2813 4 -7.1090002 -7.0939999 -10.2100001 0 0 0 1 10 4 0 0 0 13.3678284
2823 4 2.6770001 -21.7099991 20.0699997 0 0 0 1 10 3 0 0 0 12.6704617
2830 4 -3.606 21.4099999 11.0699997 0 0 1 1 8 3 1 0 0 12.7067395
2840 2 -4.5949998 18.1399994 3.5950001 0 0 1 1 9 2 0 0 0 11.5115824
2848 4 -2.8380001 -8.1639996 6.5760002 0 0 0 1 10 3 0 0 0 12.1054182
2850 4 -3.0 3.605 11.2100001 0 0 0 0 12 0 0 0 0 11.4914198
2860 1 4.658 -1.2840001 -18.6700001 0 0 0 6 6 1 0 0 0 12.51542
2864 4 -4.277 17.25 21.2000008 0 0 0 1 10 2 0 0 0 11.7562037
2871 5 -7.7340002 15.2799997 -13.3699999 0 0 1 2 8 2 1 1 0 12.6965761
2878 2 2.237 -7.3930001 8.6409998 0 0 0 2 8 3 0 0 0 12.2850666
2900 4 3.912 4.23 -21.3500004 0 0 0 2 8 3 0 0 0 11.6528006
2906 4 -15.5699997 17.9899998 -20.5 0 0 0 3 10 2 0 0 0 12.9298068
2911 4 2.4920001 18.3299999 -12.3400002 0 0 0 0 12 2 0 0 0 11.7947588
2929 4 -12.2700005 -13.6999998 -14.4300003 0 0 1 2 7 3 2 0 0 13.11234
2942 4 -1.8220001 -19.2199993 14.3900004 0 0 1 1 9 2 0 0 0 12.0924597
2961 4 2.422 -10.7399998 -9.7049999 0 0 0 2 8 4 0 0 0 11.9736252
2963 2 -19.3299999 -15.1199999 10.6400004 0 0 0 0 12 0 0 0 0 11.5334387
2993 4 15.9300004 21.1599999 -17.0799999 0 0 0 1 10 4 0 0 0 13.0078201
2994 4 -3.869 -9.5129996 -0.891 0 0 0 0 12 3 0 0 0 13.1761408
2995 2 8.9829998 -2.454 15.0299997 0 0 0 2 8 3 0 0 0 11.4917946
2997 2 -15.1899996 -8.1949997 -21.2199993 0 0 0 1 10 2 0 0 0 12.1837292
2999 2 19.7099991 20.2399998 0.5983 0 0 0 2 8 2 0 0 0 11.210453
3019 4 19.9699994 16.7700005 -8.844 0 0 0 2 8 6 0 0 0 13.8692542
3020 5 17.1700001 5.8920002 -19.2199993 0 0 1 3 6 4 1 0 0 12.5741759
3021 5 -1.999 -10.79 0.5272 0 0 0 1 10 3 0 0 0 12.2044039
3024 5 -2.016 7.3990002 -21.2900009 0 0 0 3 10 2 0 0 0 12.8971454
3048 4 4.31 10.6199999 14.4399996 0 0 0 0 12 3 0 0 0 13.2788744
3056 4 14.7700005 -15.7799998 -8.2659998 0 0 0 2 9 3 1 0 0 12.4479742
3064 2 18.6499996 -14.7100001 -20.3799992 0 0 0 1 10 2 0 0 0 12.4687004
3066 2 -16.4899998 5.5359998 -12.8400002 0 0 0 0 12 0 0 0 0 11.2355747
3070 4 14.6199999 4.6459999 14.4200001 0 0 0 3 8 4 0 0 0 12.7352801
3072 4 -11.6599999 -4.7259999 -18.8600006 0 0 0 1 10 4 0 0 0 12.7896252
3083 4 -11.6300001 -10.2399998 -9.1639996 0 0 0 2 8 4 0 0 0 12.4050036
3110 2 6.955 17.0 2.1889999 0 0 1 2 7 2 0 0 0 11.3018017
3119 5 14.9499998 11.0200005 13.8500004 0 0 0 0 12 2 0 0 0 12.4808226
3126 2 -12.6700001 -0.9257 18.0400009 0 0 2 3 5 4 1 1 0 12.4336033
3129 2 3.099 14.7100001 -7.2820001 0 0 0 2 8 2 0 0 0 11.4240322
3137 2 5.2399998 -3.6229999 -19.1000004 0 0 0 3 8 0 0 0 0 11.8136273
3142 2 -7.4239998 13.1999998 -17.0799999 0 0 0 0 12 2 0 0 0 12.2829294
3145 2 -1.584 -22.1900005 -8.797 0 0 0 1 10 2 0 0 0 12.0405579
3157 5 -16.75 15.54 -14.5100003 0 0 1 3 7 4 0 0 0 12.9187356
3164 2 19.4300003 -15.75 -0.125 0 0 1 2 7 5 0 0 0 12.1580868
3169 5 -1.382 18.5400009 7.7160001 0 0 2 2 5 4 1 0 0 11.9969026
3174 4 -3.4270001 -3.876 16.4899998 0 0 0 4 7 1 1 0 0 11.8754244
3190 2 1.76 13.54 8.6370001 0 0 0 0 12 0 0 0 0 11.088728
3193 2 18.1700001 2.6359999 9.3929997 0 0 1 0 9 3 0 0 0 12.2034111
3219 4 -3.1530001 7.02 18.8799992 0 0 1 2 7 5 0 0 0 12.6412792
3231 5 13.0900002 18.7800007 3.3499999 0 0 0 0 12 2 0 0 0 12.5795059
3238 5 5.4759999 -21.8999996 19.1900005 0 0 0 1 10 4 0 0 0 12.8575468
3240 1 -11.1300001 20.3700009 -3.4400001 0 0 0 0 12 0 0 0 0 11.3906193
3242 2 -0.1488 0.27 12.8100004 0 0 0 0 12 0 0 0 0 11.2555161
3248 4 -16.3400002 -6.1069999 6.7249999 0 0 0 0 12 3 0 0 0 13.0098896
3253 5 9.4750004 4.4439998 10.4799996 0 0 0 1 12 1 0 0 0 13.6448174
3257 4 4.2870002 -15.3199997 -20.8199997 0 0 0 2 10 1 0 0 0 12.0140543
3260 4 -19.2600002 -16.6499996 3.902 0 0 1 2 7 3 0 0 0 11.6304093
3274 2 -0.3115 15.4499998 16.75 0 0 0 2 8 4 0 0 0 12.0419807
3278 4 17.5100003 -8.3850002 -18.5599995 0 0 0 1 9 2 1 0 0 12.0435905
3282 5 6.8299999 14.1800003 20.4200001 0 0 2 0 8 4 0 0 0 12.5446215
3283 4 -13.4099999 17.4099999 -21.8899994 0 0 0 3 6 4 0 0 0 12.1502371
3298 5 -3.171 -0.5805 8.7580004 0 0 1 0 9 3 0 0 0 11.8546058
3303 5 -4.1339998 -8.2679997 14.2799997 0 0 0 1 10 2 0 0 0 11.5351458
3313 2 -0.5102 -9.026 6.1350002 0 0 1 3 5 5 0 0 0 12.0695343
3317 5 15.6400004 4.2329998 1.089 0 0 0 0 12 0 0 0 0 11.3699455
3323 5 13.3199997 13.87 -16.1100006 0 0 1 1 8 3 1 0 0 12.3382959
3338 5 2.096 -5.8340001 -19.1200008 0 0 0 5 6 2 0 0 0 11.5918818
3344 4 -15.9799996 7.388 -0.8815 0 0 0 1 10 2 0 0 0 11.8512822
3351 1 -9.0200005 17.8799992 10.7299996 0 0 2 2 5 4 1 0 0 11.7338963
3355 5 -11.1999998 17.25 -8.9420004 0 0 0 1 10 2 0 0 0 12.4045372
3361 5 -9.8369999 8.0430002 10.9799996 0 0 1 2 9 2 0 0 0 11.9911156