ITEM: TIMESTEP
0
ITEM: NUMBER OF ATOMS
50688
ITEM: BOX BOUNDS xy xz yz pp pp pp
-20.3673 69.3711548 9.4588557
-22.2210007 65.3610001 0.0
-22.2210007 65.3610001 0.0
ITEM: ATOMS id type x y z VoronoiIndex1 VoronoiIndex2 VoronoiIndex3 VoronoiIndex4 VoronoiIndex5 VoronoiIndex6 VoronoiIndex7 VoronoiIndex8 VoronoiIndex9 AtomicVolume
7 2 -12.25 -13.75 -3.2720001 0 0 0 1 10 2 0 0 0 11.3818274
21 2 -13.1499996 1.433 15.0200005 0 0 1 2 5 4 0 0 0 11.726059
26 5 -16.4699993 -17.1499996 -9.2819996 0 0 0 1 12 2 0 0 0 13.0507784
28 2 4.8119998 5.2119999 -10.8299999 0 0 1 3 5 3 0 0 0 11.0989924
36 2 11.2100001 -15.6000004 -20.7600003 0 0 0 2 8 1 0 0 0 11.6745577
38 5 7.0570002 -11.3400002 16.8600006 0 0 0 1 10 4 0 0 0 13.0279312
42 2 10.4700003 -3.405 -21.4300003 0 0 0 0 12 0 0 0 0 10.8987542
43 5 0.4653 12.3400002 9.5559998 0 0 0 3 6 6 0 0 0 12.5820551
50 2 12.79 -3.141 -22.0900002 0 0 0 0 12 0 0 0 0 11.4458151
61 4 -12.5500002 -8.5190001 -3.9130002 0 0 0 0 12 2 0 0 0 13.0622377
66 4 -18.3500004 -5.454 -2.3870001 0 0 0 3 5 5 1 0 0 13.1326628
68 1 -17.4500008 -0.7772 2.891 0 0 0 3 6 2 0 0 0 11.2420302
98 2 1.717 -8.368 18.9500008 0 0 0 0 12 0 0 0 0 10.560112
128 5 -11.5600004 6.3390002 -10.96 0 0 0 1 10 2 0 0 0 12.7382679
146 4 2.579 9.1339998 -11.3400002 0 0 0 1 10 4 0 0 0 13.2426605
150 2 -13.6300001 8.2939997 8.969 0 0 1 3 5 5 0 0 0 11.4151831
171 2 5.744 -1.114 -3.418 0 0 0 3 8 2 0 0 0 11.8138333
176 5 9.3129997 -20.4599991 11.8999996 0 0 0 2 8 4 0 0 0 12.1823702
177 5 14.1300001 14.8400002 -19.7199993 0 0 1 2 7 3 0 0 0 11.0403366
181 5 -7.934 -11.04 5.9000002 0 0 0 0 12 0 0 0 0 11.1021709
191 5 -11.6800003 5.6290002 -13.6199999 0 0 1 2 9 4 0 0 0 13.5832691
200 4 -17.5400009 -10.9200002 12.3299999 0 0 1 2 7 4 0 0 0 11.7497759
216 2 13.8000002 16.8400002 12.0299997 0 0 0 0 12 0 0 0 0 10.8643284
219 4 10.0100002 -2.7690001 16.7199993 0 0 1 2 7 5 0 1 0 13.0775242
220 2 -5.4879999 17.5799999 -5.3790002 0 0 0 1 10 2 0 0 0 11.7057238
231 4 -14.8800002 3.8120001 7.1269999 0 0 0 1 10 3 0 0 0 12.1269569
240 2 2.674 10.4700003 5.685 0 0 0 3 6 4 0 0 0 11.9328842
241 2 22.5499993 12.3800001 -1.207 0 0 0 1 10 2 0 0 0 11.4124632
243 4 7.507 17.7399998 -2.1530001 0 0 0 2 9 2 1 0 0 13.0018473
244 5 -8.3249998 -12.6300001 -20.8099995 0 0 0 2 8 4 0 0 0 12.566885
245 1 16.2999992 -17.7999993 5.619 0 0 0 1 10 2 0 0 0 11.7868796
249 4 -6.6799999 -6.006 18.9699994 0 0 0 1 10 4 0 0 0 13.2971783
262 2 1.078 2.9070002 9.3439999 0 0 0 4 6 3 0 0 0 11.9952012
263 1 -8.3030005 -2.892 -16.4099999 0 0 0 0 12 0 0 0 0 11.1978941
266 5 16.6000004 -17.8700008 16.6100006 0 0 1 2 6 5 1 0 0 11.5648184
277 4 -14.7799998 -0.8515 -7.0409999 0 0 0 2 10 1 0 0 0 11.8695956
283 5 -2.7430001 10.3999996 -11.0799999 0 0 0 1 10 4 0 0 0 12.3578482
298 4 -5.4089999 17.5300007 3.369 0 0 0 2 8 5 0 0 0 12.5000105
301 1 -12.3599997 19.0 20.4300003 0 0 0 3 8 4 0 0 0 12.7554922
311 5 -10.5299998 14.0600004 -4.665 0 0 0 2 14 0 0 0 0 13.7630263
318 5 -3.7660001 -14.3999996 -6.2150002 0 0 0 2 8 2 0 0 0 11.4480801
322 4 -9.9589996 -8.3660002 3.2709999 0 0 0 0 12 2 0 0 0 12.7175637
335 1 -18.2900009 -18.1599999 -5.5339999 0 0 0 2 8 3 0 0 0 11.74784
336 4 -11.6899996 -16.4099999 -2.547 0 0 0 1 10 3 0 0 0 12.2917261
362 5 -9.9700004 -9.995 -3.8210001 0 0 1 1 9 4 0 0 0 12.7965193
370 5 -16.7600003 -17.0400009 -11.6999998 0 0 0 3 8 3 0 0 0 11.7707949
372 5 9.3059998 -20.1000004 4.1160002 0 0 0 1 10 2 0 0 0 11.7310267
377 5 -4.6350003 15.54 -0.5213 0 0 0 1 10 4 0 0 0 12.9473058
398 1 -2.6310001 0.3204 -1.156 0 0 1 2 5 3 2 0 0 11.5961304
416 2 -10.1000004 -21.3400002 -11.5600004 0 0 2 3 4 6 0 0 0 11.9194928
428 4 21.2900009 -6.7189999 4.5209999 0 0 1 2 6 3 1 0 0 11.3328276
431 2 -4.119 19.7199993 -19.6700001 0 0 0 2 8 2 0 0 0 11.2610884
439 4 -17.2000008 -8.3479996 15.6099997 0 0 0 3 8 3 0 0 0 12.166647
442 4 1.2230001 -20.9500008 -12.3900004 0 0 0 1 10 4 0 0 0 12.9624882
452 4 -14.5799999 -21.9699994 -20.5799999 0 0 0 0 12 0 0 0 0 11.1336451
482 4 5.842 -0.315 -19.7399998 0 0 0 3 8 3 0 0 0 11.8729124
506 4 -4.026 -0.2365 16.1299992 0 0 0 1 10 5 0 0 0 12.9869862
527 5 9.4469996 -5.3740001 4.494 0 0 0 4 6 4 0 0 0 11.875618
531 5 20.4500008 6.6360002 12.2299996 0 0 0 1 10 3 0 0 0 11.8595716
537 2 2.395 17.5499993 4.909 0 0 0 4 6 2 0 0 0 10.6988411
539 2 -0.4701 -21.6399994 -16.3700009 0 0 1 4 5 4 0 0 0 11.6973772
548 4 -0.858 -8.4619999 1.596 0 0 1 4 5 4 0 0 0 12.2992544
549 5 -14.5799999 13.1000004 -17.0900002 0 0 0 3 10 2 0 0 0 12.4775887
553 4 8.8059998 4.9510002 -21.5100003 0 0 0 0 12 0 0 0 0 11.1417275
559 4 15.4499998 6.02 -21.5400009 0 0 0 2 8 4 0 0 0 12.8153677
561 4 5.2930002 15.2700005 -6.1009998 0 0 0 2 9 2 1 0 0 12.9921742
564 4 -3.6689999 3.975 -11.6099997 0 0 0 2 9 3 1 0 0 12.5880919
569 2 8.4049997 -3.3469999 4.48 0 0 1 2 6 3 1 0 0 11.3443699
570 4 -17.4799996 -20.2700005 -5.936 0 0 0 3 6 4 0 0 0 11.887454
571 5 -13.8599998 5.903 8.1429997 0 0 0 3 6 4 0 0 0 12.2171669
587 5 19.8700008 16.9400006 17.0 0 0 1 3 5 5 0 0 0 12.1357699
597 2 -1.899 -17.2900009 -13.6199999 0 0 0 2 8 2 0 0 0 11.6002512
613 5 15.6800003 -5.4099999 -1.599 0 0 1 4 3 4 2 0 0 12.5319186
618 2 -0.201 6.3309999 -12.7200003 0 0 0 0 12 0 0 0 0 11.0354176
623 4 18.0400009 17.1299992 4.7930002 0 0 0 1 10 2 0 0 0 11.5010119
638 5 -12.8800002 -8.606 9.276 0 0 0 3 10 0 0 0 0 12.1410227
643 5 -11.6499996 4.1560001 2.0309999 0 0 0 1 10 2 0 0 0 11.1624165
645 5 -11.3999996 16.6499996 5.8850002 0 0 1 3 5 4 0 0 0 11.6128187
649 4 18.3199997 -18.8899994 8.6450005 0 0 0 0 12 2 0 0 0 12.5092354
654 4 3.1719999 -17.0200005 1.438 0 0 1 4 5 5 0 0 0 12.6078415
671 2 2.125 -9.7100001 9.3850002 0 0 0 0 12 0 0 0 0 11.4862404
672 2 22.3999996 20.9799996 -17.2900009 0 0 0 2 10 2 0 0 0 11.9013682
681 2 -14.5600004 20.8700008 -9.3479996 0 0 1 3 7 1 0 0 0 11.9724046
699 5 18.2600002 3.316 3.5409999 0 0 0 2 8 4 0 0 0 12.9692212
726 5 19.2199993 -8.1479998 8.5799999 0 0 0 0 12 2 0 0 0 12.8398782
727 5 -7.395 -21.1100006 21.0699997 0 0 0 3 7 3 1 0 0 13.3871813
729 1 0.02316 -22.0599995 9.1199999 0 0 0 2 8 4 0 0 0 11.4951191
741 4 4.7129998 15.7299996 2.2290001 0 0 1 2 9 1 0 0 0 12.4175615
742 4 12.7200003 2.741 9.6540003 0 0 0 2 9 2 1 0 0 12.5458689
745 4 3.7149999 21.2299996 -21.1499996 0 0 1 1 9 4 0 0 0 12.5525885
755 5 14.0200005 -14.5299998 -17.7000008 0 0 0 2 8 5 0 0 0 12.2006979
758 2 6.5770002 11.0600004 14.6400004 0 0 0 2 8 2 0 0 0 11.2951136
760 1 8.6960001 8.8719998 -17.5200005 0 0 0 2 8 5 0 0 0 12.0871687
762 5 18.7000008 -5.3150001 -7.8309999 0 0 3 2 4 5 3 0 0 13.0249891
765 1 -1.719 11.5299998 -21.4200001 0 0 0 3 5 4 1 0 0 11.829732
809 2 23.6399994 20.3500004 -0.5403 0 0 0 0 12 2 0 0 0 11.7963934
818 5 7.593 10.3299999 6.0739999 0 0 0 2 7 4 1 0 0 13.2503138
842 5 10.9399996 1.122 -6.2610002 0 0 0 3 6 5 0 0 0 11.7740927
849 4 -2.5610001 3.4159999 12.0100002 0 0 0 4 4 4 0 0 0 11.317462
850 5 5.4130001 18.1700001 -17.9200002 0 0 0 0 12 0 0 0 0 10.7486601
882 3 -7.5180002 17.0900002 15.8299999 0 0 0 1 10 2 0 0 0 12.883998
899 4 -1.868 -9.3299999 -0.6366 0 0 0 0 12 2 0 0 0 12.4707861
901 4 1.2510001 18.9400006 -1.328 0 0 0 0 12 2 0 0 0 11.9698124
915 5 -6.2940002 -22.1499996 -4.0229998 0 0 0 4 4 7 0 0 0 13.1950331
926 5 -0.5126 7.7090001 8.731 0 0 0 1 10 3 0 0 0 12.8776312
936 1 2.086 13.1300001 -14.9300004 0 0 0 0 12 0 0 0 0 11.123126
941 5 1.6770001 5.1570001 14.4200001 0 0 0 1 10 3 0 0 0 12.1799107
946 4 -3.1670001 -13.8000002 21.0200005 0 0 0 0 11 2 1 0 0 12.1165171
950 3 -2.3510001 -1.9 6.0749998 0 0 0 2 8 6 0 0 0 13.1078272
951 5 9.8940002 16.5100003 -0.9027 0 0 0 0 12 4 0 0 0 14.0561543
958 5 13.1400003 7.9829998 -2.1389999 0 0 0 3 8 3 0 0 0 11.9183694
961 2 -1.3940001 18.6100006 -17.5 0 0 1 1 9 2 0 0 0 11.954053
962 4 -7.4819999 -14.5900002 -11.4600001 0 0 0 1 10 3 0 0 0 12.4503727
963 5 -10.0 -12.5799999 -15.1300001 0 0 0 3 8 3 0 0 0 12.0572863
978 4 -19.6100006 -19.6800003 13.3900004 0 0 0 0 12 3 0 0 0 12.9323168
990 4 13.1499996 16.7900009 -0.6268 0 0 0 0 12 3 0 0 0 13.3696451
993 4 21.5 1.971 -12.79 0 0 0 2 8 4 0 0 0 12.174077
995 1 0.1816 -17.0400009 13.0299997 0 0 0 0 12 2 0 0 0 12.1383791
1007 2 2.533 -5.1160002 -2.919 0 0 0 0 12 0 0 0 0 11.033289
1010 4 -16.6200009 3.2520001 -20.5300007 0 0 0 3 8 4 0 0 0 12.1356878
1025 1 1.4090001 -12.8299999 11.9499998 0 0 0 3 8 3 0 0 0 11.731658
1027 4 17.2199993 -10.0299997 8.2659998 0 0 0 2 10 3 0 0 0 12.9247638
1047 4 -8.4630003 20.7000008 2.7579999 0 0 0 3 6 5 0 0 0 11.7657233
1050 1 0.2663 -10.2600002 18.9300004 0 0 0 2 10 0 0 0 0 11.2676392
1051 4 6.2210002 16.7700005 -19.7199993 0 0 0 1 10 2 0 0 0 11.3303843
1055 2 9.7860003 5.1750002 -7.105 0 0 0 4 4 4 0 0 0 11.6263991
1057 4 12.5500002 -7.776 -12.0100002 0 0 0 3 8 2 0 0 0 11.9652272
1059 4 -5.2410002 13.3000002 2.9030002 0 0 0 3 6 6 0 0 0 12.007123
1063 5 -10.4899998 9.4659996 9.6870003 0 0 0 4 6 6 0 0 0 13.1143122
1089 4 11.9700004 -20.5400009 -16.4300003 0 0 0 0 12 3 0 0 0 12.3104096
1098 4 19.9300004 -18.5400009 20.0799999 0 0 0 3 8 5 0 0 0 13.6992197
1102 5 18.1499996 -19.2800007 -15.8500004 0 0 0 0 12 0 0 0 0 10.8956318
1110 5 1.896 -2.777 19.0200005 0 0 1 2 7 3 2 0 0 12.6321516
1118 1 14.0699997 -13.8999996 0.428 0 0 0 3 8 2 0 0 0 11.8905268
1128 2 2.461 -19.2099991 0.8195001 0 0 0 0 12 0 0 0 0 11.130744
1153 5 6.6430002 -15.3000002 18.4300003 0 0 0 1 10 2 0 0 0 12.1806192
1159 4 3.1540001 -10.0500002 15.2700005 0 0 0 2 7 3 1 0 0 12.2293415
1167 4 -5.652 20.8299999 -12.3599997 0 0 0 3 6 4 0 0 0 11.7585812
1169 2 16.4799996 2.29 -19.8500004 0 0 0 4 5 4 1 0 0 11.7047596
1178 2 9.0080004 4.2670002 10.6899996 0 0 0 3 6 3 0 0 0 11.5826187
1187 5 -2.53 18.1599999 -13.79 0 0 0 1 10 4 0 0 0 12.4387245
1188 4 13.1599999 16.1299992 8.3579998 0 0 0 0 12 2 0 0 0 12.2228861
1190 2 5.04 -17.8400002 -17.0200005 0 0 0 2 8 2 0 0 0 10.955679
1199 4 -15.4600001 -10.1700001 -14.96 0 0 0 1 10 4 0 0 0 12.6407366
1214 5 -8.7989998 8.9309998 -21.7700005 0 0 0 3 4 5 0 0 0 12.0952053
1217 5 20.6599999 -9.7860003 -16.0400009 0 0 0 1 10 2 0 0 0 11.3696995
1222 1 -6.9169998 16.5499993 -1.6770001 0 0 0 2 9 2 1 0 0 12.0218925
1244 3 -9.2379999 -10.7299996 -9.191 0 0 0 0 12 0 0 0 0 11.3459549
1247 1 12.3900004 1.006 -19.4899998 0 0 0 4 4 6 0 0 0 12.0110426
1261 4 7.085 16.4300003 20.3999996 0 0 0 3 6 4 0 0 0 11.7068634
1264 2 12.1300001 17.2299996 10.3500004 0 0 0 1 10 2 0 0 0 11.5122433
1272 4 19.3899994 18.7800007 -9.2709999 0 0 0 4 4 5 0 0 0 11.2792769
1276 4 -19.9799996 -20.7600003 9.0469999 0 0 0 3 6 5 0 0 0 11.649642
1280 5 -7.4879999 1.267 -11.6099997 0 0 0 1 10 2 0 0 0 11.9020616
1283 4 19.8799992 2.438 12.6000004 0 0 0 1 10 2 0 0 0 11.5333643
1288 5 -10.4300003 -8.8850002 15.9700004 0 0 0 3 6 3 0 0 0 11.4367552
1299 4 -3.899 -10.9200002 6.3239999 0 0 0 2 10 3 0 0 0 13.1443453
1302 4 7.8579998 -1.811 -18.8899994 0 0 0 1 12 1 0 0 0 11.8273506
1303 2 -3.444 5.1430001 -0.1539 0 0 0 0 12 0 0 0 0 10.8198958
1305 5 10.2700005 14.1999998 5.0430002 0 0 0 4 5 5 1 0 0 13.3028383
1320 2 -10.7399998 12.6800003 12.2200003 0 0 0 0 12 0 0 0 0 11.6968365
1338 2 -6.4070001 20.7700005 -19.4300003 0 0 0 3 6 3 0 0 0 11.9819384
1339 5 6.6869998 1.962 3.704 0 0 0 2 8 4 0 0 0 12.0512085
1342 4 -7.6960001 18.8299999 17.9599992 0 0 0 2 10 3 0 0 0 13.3341723
1350 4 23.1200008 16.4699993 0.7393 0 0 0 3 8 4 0 0 0 12.7379027
1363 2 -7.6750002 -4.1960001 2.563 0 0 0 2 8 6 0 0 0 12.2992506
1365 4 15.8900004 -9.8710004 -16.9200002 0 0 1 3 6 4 1 0 0 12.6419516
1370 4 -19.0200005 -19.7099991 15.7700005 0 0 0 2 8 3 0 1 0 13.08704
1374 4 20.2800007 -10.4200001 -18.4099999 0 0 0 1 10 5 0 0 0 12.9733124
1377 4 -5.625 -4.1409998 -12.3699999 0 0 0 3 6 4 0 0 0 11.9853946
1387 3 -14.5500002 -21.8099995 6.612 0 0 0 3 8 4 0 0 0 13.1863232
1391 4 7.6830001 21.4400006 -13.2700005 0 0 0 3 8 4 0 0 0 13.1494722
1403 4 20.1800003 -12.5699997 -16.2299996 0 0 1 1 9 5 0 0 0 12.5967226
1434 5 -9.724 9.4700003 -11.2700005 0 0 1 3 4 4 1 0 0 12.5789347
1445 2 4.9250002 2.8670002 8.5059996 0 0 0 0 12 0 0 0 0 11.1923809
1456 4 -8.3830004 -10.1700001 -20.0300007 0 0 0 3 10 2 0 0 0 13.0209112
1457 4 -6.2670002 2.919 3.698 0 0 0 1 10 2 0 0 0 11.245678
1463 4 7.2020001 17.4899998 0.07086 0 0 1 3 8 2 1 0 0 12.7551127
1477 2 -2.931 -6.4499998 -19.7099991 0 0 1 3 5 2 2 0 0 11.339675
1478 2 19.9099998 17.3799992 6.204 0 0 0 4 6 3 0 0 0 11.5497322
1492 5 -0.9155 20.2000008 9.6899996 0 0 1 1 8 3 1 0 0 12.1589899
1502 5 3.1589999 6.369 -4.5349999 0 0 1 1 9 3 0 0 0 12.4010906
1505 4 -5.1329999 19.9099998 21.5100003 0 0 1 1 9 4 2 0 0 13.8617478
1509 5 4.7550001 -19.4300003 16.5599995 0 0 0 2 8 4 0 0 0 12.1016102
1515 5 -8.5839997 0.7798 -19.3500004 0 0 0 0 12 0 0 0 0 10.9963656
1523 2 -8.408 13.5 -21.4300003 0 0 0 2 10 0 0 0 0 11.6217394
1545 4 5.1739998 -8.8360005 -16.1700001 0 0 0 0 12 0 0 0 0 11.7764321
1556 5 14.1599999 -6.6810003 -7.7909999 0 0 1 3 6 5 1 0 0 13.2993441
1583 2 -4.8350001 -7.4470001 2.1270001 0 0 0 1 10 3 0 0 0 11.8179665
1587 5 -16.9099998 0.2228 -14.3599997 0 0 0 0 12 2 0 0 0 12.3447142
1599 4 15.5600004 18.4099999 -20.6800003 0 0 0 1 10 3 0 0 0 11.9039422
1605 5 13.4200001 12.4899998 -2.7520001 0 0 0 4 6 4 0 0 0 12.8801088
1607 4 -0.07933 10.8100004 18.5400009 0 0 0 0 12 0 0 0 0 11.4199257
1615 4 13.4899998 19.8899994 0.3383 0 0 0 3 6 6 0 0 0 13.0474625
1620 4 -12.4499998 -1.2230001 19.7399998 0 0 0 2 8 2 2 0 0 13.881549
1634 5 13.9799996 18.3199997 -6.1100001 0 0 0 4 8 1 0 0 0 11.4639635
1642 4 8.0290003 -19.7199993 6.1989999 0 0 1 2 7 4 0 0 0 11.7348557
1657 5 -7.836 15.75 13.7200003 0 0 0 3 10 1 0 0 0 12.86028
1663 2 -7.2719998 -3.355 10.9899998 0 0 0 0 12 0 0 0 0 11.6362877
1669 4 -9.6429997 -20.2999992 -5.4390002 0 0 0 0 12 3 0 0 0 13.0426893
1671 4 23.8999996 18.9300004 -2.651 0 0 0 0 12 3 0 0 0 12.7120028
1692 5 -18.2199993 -20.9899998 12.04 0 0 0 1 10 3 0 0 0 12.0008936
1694 2 8.7790003 -17.7999993 -3.8250001 0 0 0 3 7 4 1 0 0 12.3940172
1698 4 -6.1950002 -1.357 21.0799999 0 0 0 2 8 2 0 0 0 11.6389122
1702 2 5.6609998 -10.4399996 14.7200003 0 0 0 3 4 4 0 0 0 11.5354805
1706 4 5.1760001 0.7963 -9.2810001 0 0 0 0 12 2 0 0 0 12.3365479
1722 5 -2.547 -1.831 -2.5090001 0 0 2 4 3 5 1 0 0 12.6732989
1726 5 2.0750001 -8.4320002 -6.3600001 0 0 1 3 6 3 1 0 0 11.916214
1730 5 15.1700001 19.7800007 9.4060001 0 0 0 3 6 4 0 0 0 11.6782675
1766 4 -8.2100001 -18.6100006 -3.2909999 0 0 0 0 12 2 0 0 0 12.2402077
1774 4 -0.8196 1.337 -12.7399998 0 0 0 1 10 4 0 0 0 13.1496983
1795 4 -0.7399 20.3299999 -13.4499998 0 0 0 0 12 0 0 0 0 11.2719488
1805 4 -14.54 17.9599992 9.3929997 0 0 0 1 10 5 0 0 0 13.3974009
1807 4 17.2600002 -8.2130003 14.4799996 0 0 0 1 10 3 0 0 0 12.5279589
1812 4 10.0100002 -8.1099997 15.29 0 0 0 1 10 3 0 0 0 12.2534361
1818 4 -6.3270002 0.5338 17.0799999 0 0 0 2 8 4 0 0 0 12.364192
1829 5 -9.2740002 16.7099991 -19.5100003 0 0 0 0 12 0 0 0 0 11.153822
1847 4 2.898 -21.7099991 -10.7200003 0 0 0 0 12 0 0 0 0 10.9002658
1851 1 -2.079 20.1399994 16.2199993 0 0 0 0 12 0 0 0 0 11.5037575
1865 2 11.0500002 -6.9650002 5.612 0 0 0 2 9 3 1 0 0 12.8068476
1873 4 1.509 -19.7999993 5.6620002 0 0 0 1 12 1 0 0 0 13.3268395
1882 2 11.3500004 12.0 15.4700003 0 0 1 1 9 2 0 0 0 11.4567347
1897 4 19.0400009 -0.2442 15.7799998 0 0 0 2 8 6 0 0 0 13.2210865
1905 4 -10.7100001 -5.7140003 12.2100001 0 0 0 1 10 4 0 0 0 12.4142056
1906 2 -5.797 17.2000008 0.5561 0 0 0 1 10 2 0 0 0 11.2186804
1920 5 10.1000004 -5.1550002 7.3709998 0 0 0 2 10 3 0 0 0 12.7196045
1942 5 2.813 -19.6800003 15.1700001 0 0 0 4 8 1 0 0 0 11.7984047
1947 5 3.477 6.3470001 10.3000002 0 0 0 3 8 4 0 0 0 12.9732962
1951 4 8.8669996 21.3899994 17.2900009 0 0 0 0 12 2 0 0 0 12.3748713
1965 2 -6.7800002 1.317 -20.8400002 0 0 0 3 6 4 0 0 0 11.6777535
1970 2 18.8199997 19.8299999 -19.0599995 0 0 0 0 12 0 0 0 0 11.3653631
1975 4 -6.6830001 2.543 -18.75 0 0 0 2 8 5 0 0 0 12.545928
1976 5 23.6800003 16.3600006 15.3500004 0 0 0 1 10 3 0 0 0 12.4235707
1990 5 5.8800002 -9.0089998 -6.0669999 0 0 0 3 6 5 0 0 0 11.8712312
2013 5 0.7502 12.0200005 -5.7670002 0 0 2 2 8 1 0 0 0 11.3452444
2020 2 -1.367 -9.2010002 -17.2600002 0 0 0 0 12 0 0 0 0 11.094779
2029 4 1.691 3.135 16.1900005 0 0 0 2 8 4 0 0 0 12.4478674
2041 5 16.9400006 1.224 16.6200009 0 0 1 3 5 5 0 0 0 12.7685538
2046 2 -16.0200005 -9.5710001 5.4330001 0 0 0 2 8 3 0 0 0 12.0313435
2053 2 -15.3599997 6.428 -1.41 0 0 0 1 12 1 0 0 0 12.4201451
2054 4 14.2200003 -3.2809999 6.7919998 0 0 0 1 12 3 0 0 0 13.3357668
2066 5 -7.916 -17.2700005 10.4499998 0 0 0 1 10 4 0 0 0 12.8989868
2082 2 -16.2600002 -14.8000002 -13.4099999 0 0 1 2 6 2 1 0 0 11.5118065
2085 5 22.5499993 18.5599995 -17.8500004 0 0 0 0 12 0 0 0 0 10.9701758
2089 1 -12.8999996 -4.7329998 12.1899996 0 0 0 3 5 3 1 0 0 11.7463246
2097 5 -0.9517 -7.0139999 -1.53 0 0 0 3 8 5 0 0 0 13.4349289
2104 2 15.7299996 -18.7900009 -15.8599998 0 0 0 0 12 0 0 0 0 11.0490122
2116 5 11.7200003 -13.8900004 -11.6400004 0 0 1 2 9 2 0 0 0 12.1895371
2119 2 -13.2200003 14.5600004 -3.9990002 0 0 0 0 12 0 0 0 0 12.050066
2124 5 14.8999996 -15.6700001 13.6400004 0 0 0 1 10 2 0 0 0 11.6560421
2126 5 13.6599999 -5.903 -13.2700005 0 0 1 3 5 5 0 0 0 12.1565733
2144 4 11.7299996 7.2230001 5.3119998 0 0 0 1 10 4 0 0 0 13.7882109
2147 1 11.8800002 -14.4899998 -16.0100002 0 0 0 3 6 3 0 0 0 11.223402
2148 2 14.0900002 10.1800003 -6.625 0 0 0 1 10 2 0 0 0 11.7404146
2163 2 -2.1659999 15.6000004 10.1999998 0 0 0 0 11 1 0 0 0 11.5224247
2180 5 0.4712 0.9419 -10.5200005 0 0 1 2 7 3 0 0 0 11.9804994
2183 2 18.8899994 6.4879999 -12.6700001 0 0 0 1 10 2 0 0 0 11.8639346
2202 4 -12.9700004 12.1199999 18.7700005 0 0 0 1 10 4 0 0 0 12.8669262
2208 2 8.6429997 12.54 4.2779999 0 0 1 4 5 2 0 0 0 11.5305558
2214 2 3.671 -0.3109 -4.3060002 0 0 0 2 10 0 0 0 0 11.877717
2219 5 18.1399994 -18.4300003 11.4799996 0 0 0 3 6 4 0 0 0 12.1712103
2224 5 -10.4799996 -18.5300007 -17.5900002 0 0 0 1 10 2 0 0 0 12.1637583
2228 5 -9.5769997 16.4699993 -14.3699999 0 0 0 0 12 0 0 0 0 11.1712923
2232 3 2.85 -17.7999993 -9.5450001 0 0 0 3 9 2 1 0 0 12.2806091
2256 2 -14.9700004 3.457 -16.3199997 0 0 0 1 10 2 0 0 0 11.0522003
2265 2 19.7199993 0.2189 -13.0900002 0 0 0 0 12 0 0 0 0 11.5145979
2273 5 9.8830004 -20.7199993 9.4379998 0 0 0 1 10 4 0 0 0 12.4579325
2274 1 19.8600006 6.2410002 7.375 0 0 1 2 7 5 0 0 0 12.1698418
2284 5 14.1899996 14.5900002 -14.6099997 0 0 0 0 12 2 0 0 0 11.6722174
2285 4 -8.3400002 -8.1199999 -22.0400009 0 0 0 1 9 2 1 0 0 12.6002712
2295 1 -13.6000004 12.1599999 5.9050002 0 0 0 0 12 0 0 0 0 11.4228649
2296 4 -16.9400006 3.0 8.4490004 0 0 0 3 6 4 0 0 0 12.2985706
2298 5 13.6099997 21.3899994 -6.5450001 0 0 0 3 8 4 0 0 0 12.6438999
2304 4 12.6000004 -8.2670002 10.7700005 0 0 0 1 10 4 0 0 0 13.2841244
2314 4 -2.708 21.3500004 -20.7800007 0 0 0 4 6 3 0 0 0 12.3425398
2317 4 -2.2590001 1.684 19.7399998 0 0 1 0 9 3 0 0 0 11.841877
2322 4 5.6180001 -7.6970001 -8.6709996 0 0 0 1 10 4 0 0 0 13.3046465
2337 5 16.5499993 -8.9130002 -14.8400002 0 0 0 3 7 4 1 0 0 12.5829602
2341 4 17.8500004 -5.5890003 -14.54 0 0 1 3 3 4 2 0 0 11.6181631
2368 2 1.5470001 -15.5299998 -15.4300003 0 0 0 1 10 2 0 0 0 11.761035
2369 5 0.5006 13.9099998 -10.2200003 0 0 0 1 10 4 0 0 0 13.2751503
2385 4 -8.8170004 3.168 14.0900002 0 0 0 0 12 4 0 0 0 12.484437
2386 2 21.0900002 20.9200002 -22.0 0 0 0 3 6 4 0 0 0 11.9448128
2407 2 1.757 8.2220001 2.4930001 0 0 0 4 4 4 0 0 0 11.1642199
2414 1 16.7299996 -12.3900004 -16.8999996 0 0 1 3 5 5 0 0 0 11.773922
2427 4 -8.1949997 1.039 -16.7199993 0 0 1 0 11 3 0 0 0 12.1811905
2429 5 17.5300007 -17.5699997 20.9200002 0 0 0 3 6 4 0 0 0 12.0119801
2441 2 -9.5360003 -16.9400006 8.4600001 0 0 1 2 9 2 0 0 0 12.9437266
2442 4 19.2399998 2.2550001 -20.5900002 0 0 0 1 10 4 0 0 0 13.19946
2443 5 21.5900002 20.6200009 2.899 0 0 0 2 8 3 0 0 0 12.0773859
2446 2 6.1700001 -9.8839998 -12.4700003 0 0 0 2 10 2 0 0 0 12.7183275
2451 2 -12.25 -4.197 1.3760001 0 0 0 3 6 3 0 0 0 11.7736216
2457 4 13.0900002 3.457 7.323 0 0 0 2 9 3 1 0 0 13.0270567
2482 5 -9.0530005 1.0599999 -21.8700008 0 0 0 1 10 3 0 0 0 12.1887722
2489 2 5.0970001 -5.3319998 -7.981 0 0 0 3 6 3 0 0 0 11.5727072
2494 2 -13.4600001 -4.02 -8.7950001 0 0 0 3 10 0 0 0 0 12.6413727
2496 4 7.4749999 7.8080001 6.8460002 0 0 1 3 5 5 2 0 0 13.022439
2506 2 -8.0500002 20.1800003 0.3626 0 0 0 1 9 2 1 0 0 11.9865608
2513 5 17.75 17.5 -20.0 0 0 0 1 10 3 0 0 0 12.3659554
2520 4 -18.0200005 -11.6999998 18.8099995 0 0 1 2 9 3 0 0 0 12.9283104
2521 2 1.689 14.5100003 9.8350001 0 0 0 0 12 0 0 0 0 11.9027548
2523 4 14.9499998 12.2299996 20.8799992 0 0 0 2 8 5 0 0 0 13.4913454
2527 1 -10.0600004 -10.9099998 -13.5900002 0 0 1 2 7 3 0 0 0 11.3458166
2541 2 -6.3350001 13.9700004 19.9699994 0 0 1 5 3 3 2 0 0 12.1304073
2543 5 -12.9899998 1.515 -1.462 0 0 0 1 9 2 1 0 0 11.5399723
2545 5 -12.79 3.655 10.8500004 0 0 0 5 6 2 0 0 0 11.6177531
2548 2 -6.89 -6.5300002 -16.5699997 0 0 1 3 5 4 0 0 0 12.1033363
2553 2 -5.9699998 3.2460001 -12.5900002 0 0 0 2 8 4 0 0 0 12.0013151
2557 4 1.236 16.9899998 -14.4499998 0 0 0 2 10 2 0 0 0 12.218544
2562 5 -1.96 18.6200009 -20.2800007 0 0 0 4 6 4 0 0 0 12.4343033
2564 4 9.6709996 9.6040001 -11.7700005 0 0 1 5 4 4 1 0 0 12.9087688
2573 5 13.7100001 -3.914 13.6400004 0 0 0 3 6 4 0 0 0 12.3684826
2574 2 -6.9990002 -21.2600002 3.7850001 0 0 0 0 12 0 0 0 0 11.0813913
2594 2 8.6669998 -1.9630002 -7.8660002 0 0 0 1 10 4 0 0 0 12.2217951
2596 4 18.6800003 14.1999998 20.3400002 0 0 0 2 10 3 0 0 0 13.43398
2600 1 19.5 -6.8649998 -1.961 0 0 0 0 12 0 0 0 0 10.884304
2619 5 -6.2600002 -7.244 21.0799999 0 0 0 0 12 2 0 0 0 12.5315657
2627 4 -0.6642 -14.9499998 -16.7700005 0 0 1 4 5 4 0 0 0 12.8268824
2632 4 3.7809999 0.9276 -20.6800003 0 0 0 1 10 2 0 0 0 12.0777807
2644 2 7.5560003 17.25 10.25 0 0 2 2 6 4 0 0 0 12.4386912
2647 4 16.2099991 -5.6760001 -18.9500008 0 0 0 1 10 4 0 0 0 12.4616518
2657 4 -9.4440003 18.8799992 -15.0 0 0 0 1 10 2 0 0 0 11.9046956
2664 5 -17.5699997 -5.2620001 -18.0499992 0 0 0 5 5 2 1 0 0 11.5265684
2666 2 20.2000008 -4.5760002 8.6680002 0 0 0 1 10 2 0 0 0 12.4028731
2675 4 -9.5909996 4.8049999 10.1099997 0 0 0 4 6 4 0 0 0 11.9121742
2680 4 -14.7200003 13.04 -2.5160001 0 0 0 0 12 3 0 0 0 13.3161297
2695 4 -1.954 -7.2870002 20.8899994 0 0 0 1 10 3 0 0 0 12.1440773
2700 1 21.0499992 0.2348 5.1469998 0 0 0 2 8 4 0 0 0 12.2694941
2719 4 -18.4899998 -16.0 8.4280005 0 0 0 0 12 0 0 0 0 11.1631069
2722 5 -13.7700005 21.0599995 0.9489 0 0 0 4 7 3 1 0 0 12.6669731
2752 2 20.0200005 16.3099995 -5.006 0 0 2 1 8 2 2 0 0 12.5039692
2754 5 -14.9899998 9.1040001 16.0300007 0 0 0 1 10 2 0 0 0 11.4108572
2760 5 -2.5850001 0.1791 -20.1700001 0 0 0 2 8 5 0 0 0 13.347909
2768 2 10.6999998 6.1020002 -4.929 0 0 0 3 6 6 0 0 0 12.4651003
2774 4 12.4700003 0.8633 6.8740002 0 0 0 1 10 4 0 0 0 13.0627031
2778 4 6.5339999 11.3299999 17.2800007 0 0 0 1 10 2 0 0 0 12.1486244
2782 4 -11.8199997 -20.9099998 13.2399998 0 0 0 1 10 4 0 0 0 13.293375
2790 4 0.308 17.8099995 3.4130001 0 0 1 2 7 3 2 0 0 12.6360703
2799 4 3.0050001 -11.9799996 -22.1200008 0 0 0 1 10 5 0 0 0 14.1175852
2800 4 -11.1800003 16.7000008 -20.9099998 0 0 0 3 6 4 0 0 0 11.4592648
2802 5 -1.892 11.3100004 10.9099998 0 0 0 2 8 4 0 0 0 12.7861157
2820 4 14.8800002 -11.0699997 8.9209996 0 0 1 4 5 5 0 0 0 11.9398652
2823 4 -9.9870006 12.4300003 18.6599999 0 0 0 3 10 1 0 0 0 13.7162152
2824 4 17.9899998 7.0780001 5.8249998 0 0 0 1 10 3 0 0 0 12.303957
2830 4 -17.2999992 -21.6800003 -16.1700001 0 0 0 1 10 3 0 0 0 13.0344954
2848 4 15.4600001 -17.5900002 1.051 0 0 0 3 6 5 0 0 0 11.5356875
2851 3 -13.0500002 2.382 -15.8599998 0 0 1 3 5 4 2 0 0 12.3406391
2857 4 -0.4726 20.8299999 -2.8280001 0 0 0 2 10 2 0 0 0 12.139329
2885 2 18.7000008 17.6599999 -17.6499996 0 0 0 1 10 2 0 0 0 12.118124
2895 4 4.9860002 -19.7199993 -5.0320001 0 0 1 4 3 6 0 0 0 12.5410452
2899 5 17.9899998 -12.4600001 -1.831 0 0 0 2 10 2 0 0 0 12.7857008
2906 4 16.9200002 9.8400002 2.1670001 0 0 0 1 10 2 0 0 0 12.2758436
2908 5 0.05864 8.8319998 0.285 0 0 0 2 10 1 0 0 0 11.994359
2914 2 0.09765 -1.823 -6.5240002 0 0 1 2 7 3 0 0 0 11.0863447
2932 4 -10.6000004 -14.3500004 -1.4320001 0 0 0 2 10 2 0 0 0 12.076499
2955 4 -5.962 8.4989996 -13.87 0 0 1 3 7 4 0 0 0 12.3773794
2975 5 8.6750002 -4.1440001 -6.7010002 0 0 2 0 9 3 1 0 0 12.2650604
2985 4 -1.5750001 3.5720001 -16.5699997 0 0 0 1 10 3 0 0 0 12.2749434
2993 4 15.04 -0.522 10.0699997 0 0 1 3 5 5 0 0 0 11.8928376
2994 4 -11.1000004 -14.8800002 -14.6400004 0 0 0 1 10 4 0 0 0 12.8239365
3004 5 12.7399998 -2.1849999 -9.1079998 0 0 0 1 10 5 0 0 0 13.3816843
3009 4 8.5389996 -10.5600004 -7.8390002 0 0 0 0 12 0 0 0 0 11.5817862
3020 5 11.0200005 20.3799992 -9.3859997 0 0 0 2 10 1 0 0 0 11.9518728
3025 2 -16.8999996 -9.1680002 -3.5050001 0 0 0 2 10 1 0 0 0 11.3674507
3038 2 -16.1100006 6.4510002 19.9300004 0 0 0 0 12 0 0 0 0 11.3546028
3060 4 -8.3020001 20.9400006 -15.7399998 0 0 0 2 8 2 0 0 0 10.8042078
3068 2 6.737 3.198 6.7610002 0 0 1 2 7 2 2 0 0 11.6483307
3090 5 19.6599999 -9.8710004 20.0900002 0 0 1 1 10 3 1 0 0 13.253767
3100 4 -1.286 1.853 0.1534 0 0 0 2 8 4 0 0 0 11.982875
3113 2 -19.8199997 -19.1000004 -14.4600001 0 0 0 1 10 2 0 0 0 11.9150286
3115 4 0.2394 7.993 -2.0750001 0 0 0 2 9 3 1 0 0 13.1742086
3118 4 3.7379999 -2.97 -3.603 0 0 0 1 10 4 0 0 0 13.0570068
3134 2 6.4099999 7.5539999 -14.3100004 0 0 0 0 12 0 0 0 0 10.8769598
3150 2 19.0400009 19.0499992 8.2950001 0 0 0 3 6 4 0 0 0 11.8403808
3151 4 -14.3699999 16.8899994 20.3400002 0 0 0 1 10 4 0 0 0 13.3386355
3152 4 -0.5464 -17.1499996 -15.5600004 0 0 1 0 9 3 0 0 0 11.9163314
3158 2 13.0900002 -7.4590001 3.952 0 0 0 1 10 2 0 0 0 11.95146
3159 5 -4.586 15.4499998 -5.8189998 0 0 0 2 8 3 0 0 0 11.6592207
3165 5 13.1499996 -15.3999996 18.5 0 0 0 2 8 4 0 0 0 12.6123314
3167 2 -0.3646 2.863 20.2700005 0 0 0 2 8 1 1 0 0 11.4043646
3174 4 -3.523 -0.3201 -5.4920001 0 0 1 3 8 3 1 1 0 13.0806303
3178 4 19.4099999 -10.1400003 10.5900002 0 0 1 2 9 3 0 0 0 12.9031554
3180 2 20.0900002 19.9300004 -6.8330002 0 0 0 6 4 3 0 0 0 11.985301
3182 4 16.8299999 -18.6000004 -18.2999992 0 0 0 0 12 4 0 0 0 13.1774559
3185 5 2.112 5.1620002 6.5869999 0 0 0 1 12 1 0 0 0 12.5384426
3186 5 7.4419999 -1.675 -1.7430001 0 0 1 1 9 3 0 0 0 11.9294978
3199 5 11.4700003 18.5599995 0.6462 0 0 0 0 12 0 0 0 0 11.9865418
3201 5 -13.3100004 18.8199997 -13.1599999 0 0 0 2 8 6 0 0 0 12.7058869
3220 4 -6.8670002 19.5900002 -14.5100003 0 0 1 2 6 6 1 0 0 12.7405253
3222 4 15.1800003 -2.3800001 -9.7040005 0 0 0 2 10 2 0 0 0 12.0033779
3234 4 -5.9629998 -7.435 5.1160002 0 0 0 1 10 4 0 0 0 12.8556748
3240 1 4.4310003 8.3529997 -13.0699997 0 0 0 0 12 0 0 0 0 11.2159796
3241 4 -10.6800003 21.2600002 -14.7700005 0 0 0 1 10 4 0 0 0 12.4573984
3246 5 -0.6716 -20.8700008 4.5029998 0 0 1 2 7 4 0 0 0 13.3189745
3267 5 5.2360001 -13.9899998 -7.862 0 0 0 1 12 2 0 0 0 12.5580969
3286 5 12.5299998 -8.0220003 15.0900002 0 0 0 0 12 0 0 0 0 11.5557709
3287 5 12.2299996 15.1999998 -16.3400002 0 0 0 1 10 2 0 0 0 11.4612608
3298 5 4.8350001 -21.2600002 14.6099997 0 0 0 0 12 2 0 0 0 12.4815865
3301 5 20.6700001 16.1299992 -7.3610001 0 0 0 0 12 0 0 0 0 11.7341433
3315 4 4.3080001 -10.54 9.8789998 0 0 1 3 5 4 2 0 0 13.1881256
3323 5 -16.4099999 0.4366 12.3299999 0 0 1 2 5 5 0 0 0 11.4139671
3337 5 -7.9060002 -16.2700005 1.103 0 0 0 0 12 0 0 0 0 10.6215925
3343 5 -9.7340002 19.3500004 -6.4710002 0 0 0 0 12 0 0 0 0 11.7179604
3346 2 -17.6700001 -16.0 -4.211 0 0 0 1 10 2 0 0 0 11.5599261
3357 4 -11.0799999 12.8100004 -6.6170001 0 0 0 1 10 2 0 0 0 12.2793303
3362 1 -18.4099999 -5.763 -20.4400006 0 0 0 5 5 2 1 0 0 11.3067045
3365 5 -15.29 -2.895 -0.7633 0 0 2 2 6 5 0 0 0 13.1995478
3387 5 20.4899998 17.7199993 -19.3199997 0 0 0 0 12 2 0 0 0 12.0400677
3406 5 -9.8310004 6.7719999 -0.3761 0 0 0 1 12 1 0 0 0 12.1708937
3408 5 -14.8599998 4.507 -13.8800002 0 0 1 2 7 4 0 0 0 11.8734102
3414 2 20.3999996 21.1200008 -4.902 0 0 1 2 7 2 0 0 0 11.5193444
3433 4 -0.2065 17.9300004 -12.3400002 0 0 0 0 12 3 0 0 0 12.4691592
3438 5 19.8799992 -17.3999996 -21.7199993 0 0 0 5 6 2 0 0 0 13.7371826
3444 5 13.4099999 -13.54 2.899 0 0 0 1 10 2 0 0 0 12.7130213
3446 4 11.5200005 -10.1000004 6.7529998 0 0 0 3 7 5 1 0 0 14.1816473
3454 2 11.5799999 14.3500004 2.6970001 0 0 1 2 5 3 0 1 0 11.6701498
3456 5 -19.0499992 -19.8500004 6.704 0 0 1 1 9 4 0 0 0 13.029439
3465 5 -11.6199999 0.7843001 -9.2709999 0 0 0 0 12 0 0 0 0 11.1513844
3467 4 4.211 -5.8119998 -10.2600002 0 0 0 3 8 1 0 0 0 12.05441
3471 2 -16.8899994 -20.8899994 16.6000004 0 0 0 0 12 0 0 0 0 10.771287
3481 4 1.776 -14.6800003 -17.7399998 0 0 0 1 10 2 0 0 0 11.7552214
3482 3 -14.1599999 8.54 4.2940002 0 0 0 2 8 4 0 0 0 12.318017
3489 2 -5.0190001 -7.5910001 -19.6599999 0 0 0 3 10 0 0 0 0 12.0671434
3497 2 20.1000004 11.1999998 7.4790001 0 0 0 2 8 2 0 0 0 11.0214195
3501 4 9.5170002 -6.5609999 9.5159998 0 0 0 2 8 2 0 0 0 11.8412124
3516 4 18.6000004 -9.2650004 2.4000001 0 0 0 1 10 3 0 0 0 12.4710036
3529 5 13.3199997 -8.8190003 -2.029 0 0 0 1 10 3 0 0 0 12.6324196
3536 5 -18.3099995 -22.1000004 1.429 0 0 0 2 8 4 0 0 0 13.058013
3540 4 3.6919999 2.652 -8.1230002 0 0 0 1 10 2 0 0 0 12.1910734
3544 4 -10.0200005 2.924 21.4200001 0 0 0 0 12 0 0 0 0 11.5353775
3561 5 -2.1659999 14.3299999 5.8410002 0 0 1 3 9 1 0 0 0 12.6438217
3563 2 -10.6000004 -7.2779999 -22.1299992 0 0 0 1 10 2 0 0 0 11.7722407
3569 2 -17.1200008 -6.5980001 -13.4499998 0 0 0 0 12 0 0 0 0 11.3177662
3571 4 0.9624 11.1599999 0.264 0 0 0 2 8 4 0 0 0 13.0565681
3589 4 -17.6399994 -7.2080002 -8.4209996 0 0 0 1 10 2 0 0 0 11.7846213
3597 2 14.3900004 -0.0645 -9.6040001 0 0 0 0 12 0 0 0 0 12.1637125
3613 4 -1.2410001 16.1000004 -13.4799996 0 0 0 2 8 4 0 0 0 12.1820574
3614 4 -3.803 2.388 7.1869998 0 0 0 2 10 2 0 0 0 12.353384
3617 5 -12.4399996 -22.1599999 0.4307 0 0 1 4 3 5 0 0 0 12.0405102
3634 5 16.2900009 -13.1300001 -6.5770002 0 0 0 3 8 4 0 0 0 12.5929814
3636 4 6.4419999 -16.3299999 -0.6287 0 0 2 0 8 2 2 0 0 11.8060093
3648 2 -4.131 18.7700005 5.5149999 0 0 0 3 8 3 0 0 0 11.8560668
3659 4 21.5300007 -3.128 20.8899994 0 0 0 0 12 0 0 0 0 12.3948403
3662 2 -0.4435 5.31 19.5100003 0 0 1 4 5 2 2 0 0 11.9184246
3675 1 2.415 15.3100004 18.9500008 0 0 0 3 6 4 0 0 0 11.4651671
3678 2 -4.8720002 -2.694 -10.3599997 0 0 0 2 10 2 0 0 0 12.4734907