ITEM: TIMESTEP
0
ITEM: NUMBER OF ATOMS
50688
ITEM: BOX BOUNDS xy xz yz pp pp pp
-20.3679009 67.969513 8.0566149
-22.2159996 65.355896 0.0
-22.2159996 65.355896 0.0
ITEM: ATOMS id type x y z VoronoiIndex1 VoronoiIndex2 VoronoiIndex3 VoronoiIndex4 VoronoiIndex5 VoronoiIndex6 VoronoiIndex7 VoronoiIndex8 VoronoiIndex9 AtomicVolume
9 1 -8.6099997 -13.1099997 3.2690001 0 0 0 0 12 0 0 0 0 10.8296881
23 4 15.1700001 21.1499996 -0.6532 0 0 1 5 4 4 1 0 0 13.7280789
25 2 7.5949998 18.2600002 18.2099991 0 0 0 2 8 2 0 0 0 11.1934738
35 2 21.2900009 15.0200005 -13.2399998 0 0 2 2 8 3 0 0 0 12.6966954
42 2 21.9599992 15.2600002 -9.0710001 0 0 0 2 8 2 0 0 0 11.1813183
57 5 6.4930001 -4.968 -19.5799999 0 0 0 2 10 1 0 0 0 12.1235895
71 2 3.0420001 16.5300007 -13.9499998 0 0 0 1 10 2 0 0 0 11.7437754
80 5 -1.114 20.6000004 -15.87 0 0 0 2 8 4 0 0 0 13.0644474
81 4 14.8500004 -3.6989999 -9.1739998 0 0 0 0 12 0 0 0 0 11.0357552
82 5 -13.2799997 -15.5600004 -21.2900009 0 0 0 1 10 2 0 0 0 12.3927269
91 2 2.3299999 17.4500008 -10.0100002 0 0 0 1 10 2 0 0 0 12.3712206
101 1 -7.1890001 -19.4500008 -4.3920002 0 0 1 1 9 3 0 0 0 11.7915259
105 4 2.852 11.7399998 -16.3500004 0 0 0 3 6 5 0 0 0 11.90557
110 5 -6.402 -18.7299996 2.8220001 0 0 0 1 10 4 0 0 0 13.143074
112 2 12.0900002 -4.151 15.4899998 0 0 1 3 7 1 0 0 0 11.3569155
128 5 -13.5799999 -13.0600004 6.8260002 0 0 0 4 6 3 2 0 0 12.9721432
141 5 4.0819998 6.7360001 -9.5369997 0 0 0 3 6 5 0 0 0 12.630702
147 5 12.6000004 -2.862 11.1300001 0 0 1 1 8 3 1 0 0 11.9528152
157 4 0.2796 20.6700001 13.29 0 0 0 3 8 3 0 0 0 12.1754522
159 4 15.3500004 -3.2049999 15.04 0 0 1 3 5 4 0 0 0 11.9320126
168 5 5.1389999 -9.1260004 -14.8900004 0 0 0 1 10 3 0 0 0 13.2254439
171 2 -1.16 6.4169998 -10.0500002 0 0 0 2 8 2 0 0 0 11.3342877
174 4 -6.7950001 14.5100003 11.4300003 0 0 0 0 12 0 0 0 0 11.2830572
184 2 14.1000004 -1.93 12.7700005 0 0 0 2 8 3 0 0 0 11.3182888
186 5 13.7100001 11.54 -15.8000002 0 0 0 4 4 7 0 0 0 12.3186913
196 5 11.3500004 -7.949 -2.0309999 0 0 0 1 10 2 0 0 0 12.0679083
214 2 1.587 14.7700005 -17.9699994 0 0 0 3 6 4 0 0 0 11.7493963
217 2 -14.3699999 -7.0770001 19.4300003 0 0 0 3 8 2 0 0 0 11.4608565
220 2 -18.4200001 -20.0900002 -10.3299999 0 0 2 2 4 5 0 0 0 11.4761105
243 4 3.691 0.7871 14.1800003 0 0 0 3 6 3 2 0 0 12.3944569
244 5 12.29 -12.8999996 19.1700001 0 0 0 2 8 4 0 0 0 12.6564846
245 1 -8.2700005 3.0150001 -21.6000004 0 0 0 3 6 1 2 0 0 11.2508764
247 2 11.4300003 13.2600002 -4.9959998 0 0 0 1 10 2 0 0 0 11.5873041
254 2 -7.5110002 18.1100006 -7.1199999 0 0 0 0 12 0 0 0 0 12.0431538
275 4 16.1399994 -0.6658 11.8400002 0 0 1 2 7 4 0 0 0 12.6829605
288 5 -10.1599999 12.75 21.4599991 0 0 1 2 6 3 1 0 0 11.6206093
291 4 -15.6599999 13.0799999 -13.7600003 0 0 0 0 12 3 0 0 0 13.1025715
295 4 -3.0550001 1.998 -9.4849997 0 0 0 1 10 4 0 0 0 12.5981274
299 5 0.0207 18.25 -19.7399998 0 0 1 1 9 3 0 0 0 12.2436342
300 2 19.4300003 -8.809 1.612 0 0 0 5 2 5 0 0 0 11.5820389
313 5 0.4292 -14.8199997 3.395 0 0 0 1 10 4 0 0 0 13.3679314
314 5 -15.1700001 -21.5300007 3.5160001 0 0 1 0 11 4 0 0 0 12.6765547
327 4 -1.2230001 -3.5109999 15.1199999 0 0 0 2 8 5 0 0 0 12.7880135
335 1 -8.5010004 16.9699994 -15.3699999 0 0 0 4 8 1 0 0 0 11.5692864
348 4 -8.6689997 2.039 11.8299999 0 0 0 1 10 2 0 0 0 12.238267
360 4 11.96 -21.3299999 -7.6339998 0 0 0 2 8 7 0 0 0 13.869362
364 4 -8.2700005 4.3049998 -15.1899996 0 0 0 1 10 3 0 0 0 14.4694052
387 4 16.5699997 -11.9399996 0.6195 0 0 1 0 11 3 0 0 0 12.5524159
397 1 -7.3909998 0.2635 19.0599995 0 0 0 3 6 3 0 0 0 11.36658
401 4 -14.3000002 12.8800002 11.3900004 0 0 0 0 12 2 0 0 0 12.4194422
410 4 8.9320002 -4.711 7.8049999 0 0 0 3 8 3 0 0 0 12.1294804
412 1 -5.6199999 12.3599997 -7.3769999 0 0 0 1 10 2 0 0 0 11.3298206
415 2 -7.0440002 1.3380001 -13.1099997 0 0 0 4 6 3 0 0 0 11.8930112
419 2 6.6360002 -10.5200005 -11.3900004 0 0 1 3 5 4 0 0 0 11.1918335
420 5 10.9099998 -10.6700001 -10.5600004 0 0 1 3 4 4 1 0 0 12.3145199
432 5 4.6739998 8.6459999 8.165 0 0 0 1 10 3 0 0 0 12.1771593
438 4 -12.1499996 -19.8899994 16.3500004 0 0 1 1 9 3 0 0 0 12.5091686
439 4 -7.119 19.4300003 -16.2999992 0 0 0 4 4 6 0 0 0 12.762064
442 4 5.9250002 16.7199993 -18.2700005 0 0 0 2 8 4 0 0 0 12.3144159
446 4 -17.7800007 5.7490001 3.7000001 0 0 0 3 8 2 0 0 0 11.9656534
453 4 1.4040001 0.7409 7.5630002 0 0 0 1 10 3 0 0 0 12.1583729
459 4 -9.5369997 0.6539001 -21.0499992 0 0 0 1 10 4 0 0 0 12.8019438
465 3 20.6299992 -10.1800003 -15.4499998 0 0 0 1 10 2 0 0 0 11.5039501
475 2 -1.214 21.2900009 11.4399996 0 0 0 3 6 4 0 0 0 11.5728264
477 5 -12.5699997 -4.5720001 -3.3610001 0 0 1 4 6 3 1 0 0 12.7514029
485 4 7.8410002 4.3369999 -15.3500004 0 0 0 1 10 3 0 0 0 12.2516909
515 5 0.4324 -14.6499996 16.8500004 0 0 1 1 9 5 0 0 0 12.0676756
520 5 6.6630001 -17.0200005 11.3699999 0 0 0 1 9 3 1 0 0 12.2694302
533 4 11.5200005 4.7210002 -4.6279998 0 0 0 0 12 4 0 0 0 13.5504799
537 2 17.1900005 8.4969998 -9.316 0 0 0 2 8 1 0 0 0 10.8507348
539 2 -6.955 7.2859998 -21.7600003 0 0 0 2 8 2 0 0 0 11.4012556
540 5 -7.48 -17.6599999 0.4371 0 0 0 0 12 0 0 0 0 11.1666384
550 4 9.1099997 -10.6199999 12.4300003 0 0 1 1 9 3 0 0 0 12.3146191
562 2 4.5749998 -13.2600002 -22.0200005 0 0 0 0 12 0 0 0 0 10.7965241
564 4 15.3199997 -1.355 16.7999993 0 0 0 4 6 4 0 0 0 11.4206286
567 4 7.8610002 -14.1599999 20.8099995 0 0 0 0 12 0 0 0 0 10.7948408
574 5 18.1599999 -16.3999996 -12.7399998 0 0 0 1 10 3 0 0 0 12.5951367
576 5 -16.3600006 6.6620002 -16.9400006 0 0 0 2 10 0 0 0 0 11.4708033
580 2 17.8199997 -15.4300003 -10.5799999 0 0 1 3 5 4 0 0 0 11.3405905
585 4 12.7399998 -9.5500002 -11.7100001 0 0 0 3 8 3 0 0 0 12.8649168
603 5 -9.0480003 -19.4200001 -0.4352 0 0 0 3 8 2 0 0 0 11.689621
620 4 2.0380001 15.9700004 8.2189999 0 0 0 3 6 4 0 0 0 12.3062143
622 5 2.365 -5.2010002 5.4190002 0 0 0 1 12 1 0 0 0 12.4455405
642 4 -4.4790001 2.2130001 -20.1200008 0 0 0 3 6 7 0 0 0 13.1438742
643 5 16.0 -0.07637 -17.6000004 0 0 0 2 8 2 0 0 0 11.2105694
650 2 18.6499996 -13.0299997 17.25 0 0 0 0 12 0 0 0 0 11.6628304
653 4 1.182 -17.3199997 3.414 0 0 0 0 12 4 0 0 0 13.5707054
654 4 2.033 -8.8859998 -0.5966 0 0 0 1 11 2 0 0 0 12.753501
656 4 7.29 -14.4200001 15.2600002 0 0 0 0 12 2 0 0 0 12.2184591
665 4 -7.3270002 -7.8540002 -22.0799999 0 0 0 3 6 4 0 0 0 12.3968916
666 4 -9.2609997 -11.1199999 -0.5082 0 0 0 1 10 4 0 0 0 12.9493704
671 2 19.3600006 -0.8592 17.4400006 0 0 0 1 10 2 0 0 0 11.6696291
673 2 10.4200001 5.3940001 12.5699997 0 0 0 0 12 0 0 0 0 11.4167643
679 4 9.9040004 13.0299997 17.7000008 0 0 0 0 12 0 0 0 0 11.0796013
683 5 -5.4699998 10.8199997 18.9400006 0 0 1 1 8 3 1 0 0 12.1235046
687 5 15.2200003 -10.5699997 19.8799992 0 0 0 2 8 4 0 0 0 11.8388071
694 5 -15.4399996 15.3699999 5.2340002 0 0 0 1 10 4 0 0 0 12.4492121
716 4 1.8120001 4.0869999 4.3629999 0 0 0 5 2 6 0 0 0 11.9949246
717 4 7.4270001 -20.3600006 2.155 0 0 0 0 12 2 0 0 0 12.0659742
728 5 5.954 -0.02045 3.9300002 0 0 0 1 12 2 0 0 0 12.6872082
740 2 21.7099991 4.2550001 17.5200005 0 0 0 4 8 0 0 0 0 11.3115444
745 4 1.994 -16.2399998 -17.5100003 0 0 0 3 6 3 0 0 0 11.4622784
761 5 -4.0900002 11.8299999 -12.54 0 0 0 4 4 6 0 0 0 12.9882994
770 4 -17.4500008 -19.7199993 19.2399998 0 0 0 2 8 3 0 0 0 11.9239312
775 2 -1.81 -14.4300003 21.4400006 0 0 0 0 12 0 0 0 0 11.2277537
776 4 19.8700008 6.5430002 4.9569998 0 0 0 1 10 2 0 0 0 11.89211
781 4 -6.1110001 -20.3600006 -11.3699999 0 0 0 3 6 5 0 0 0 12.2171421
787 2 -19.3299999 -12.3699999 14.8100004 0 0 0 2 10 0 0 0 0 11.5331717
798 5 -6.9200002 20.8600006 -4.0310001 0 0 0 1 10 2 0 0 0 11.1861343
806 4 -6.6560002 3.8269999 16.7700005 0 0 0 4 4 6 0 0 0 11.954775
841 5 -10.5699997 20.9899998 -11.5100003 0 0 0 2 8 4 0 0 0 12.9092026
843 2 4.0560002 -3.865 -8.0900002 0 0 1 4 3 4 0 0 0 11.8146086
846 3 19.5400009 -14.6400004 -14.3800001 0 0 0 1 10 2 0 0 0 11.7175827
864 2 6.388 -3.8570002 1.071 0 0 0 0 12 0 0 0 0 11.2982369
897 5 6.6079998 -4.915 10.9300004 0 0 0 2 8 0 2 0 0 11.9107256
905 4 20.4799996 -3.914 -2.8039999 0 0 0 0 12 2 0 0 0 11.8752032
917 5 10.0200005 -13.6599999 20.0400009 0 0 0 0 12 0 0 0 0 11.5945816
947 5 -16.6800003 14.9399996 -11.6999998 0 0 1 1 11 0 0 0 0 13.5761223
949 2 14.5 3.4700001 21.0499992 0 0 0 1 10 2 0 0 0 11.3112011
952 2 11.8000002 0.4688 1.168 0 0 0 0 12 2 0 0 0 12.3633728
961 2 -0.2838 -20.6100006 -6.3480001 0 0 0 3 6 4 0 0 0 11.0997887
980 2 -0.08509 20.1100006 17.2199993 0 0 0 0 12 0 0 0 0 11.343956
990 4 5.764 -14.8100004 -20.6100006 0 0 0 0 12 0 0 0 0 11.7821417
996 5 15.0299997 -9.441 15.9200002 0 0 0 2 10 0 0 0 0 10.8519516
999 4 2.4979999 9.2360001 -9.7410002 0 0 0 1 10 5 0 0 0 13.2244721
1009 5 8.9969998 10.9099998 18.1200008 0 0 0 0 12 0 0 0 0 10.9534988
1023 2 18.4200001 -3.254 -16.2000008 0 0 0 1 10 3 0 0 0 11.5736685
1027 4 -5.0570002 -11.7100001 17.4699993 0 0 1 3 6 4 1 0 0 12.3037939
1034 4 14.1400003 7.0310001 -14.3299999 0 0 0 0 12 0 0 0 0 11.2917652
1039 5 10.6499996 10.3699999 -21.1900005 0 0 2 1 8 2 0 0 0 12.2516289
1040 1 9.6829996 -15.25 -20.7700005 0 0 0 3 8 1 0 0 0 11.2782965
1053 4 -15.7600003 -0.9041 0.1036 0 0 0 0 12 2 0 0 0 11.8812104
1063 5 18.6900006 -20.1299992 -14.9300004 0 0 0 1 10 2 0 0 0 11.8409262
1067 3 18.9799996 -6.8020001 -19.2399998 0 0 0 2 8 4 0 0 0 12.7370024
1068 5 -3.7550001 5.0149999 -2.0190001 0 0 1 2 9 1 0 0 0 11.8561344
1087 4 -12.3500004 16.8600006 0.006671 0 0 0 2 8 5 0 0 0 13.2307997
1089 4 -2.428 -8.2279997 4.1890001 0 0 1 2 7 5 0 0 0 12.8661834
1091 5 0.1821 -17.0 8.0699997 0 0 0 2 8 3 0 0 0 12.0217276
1094 5 10.6300001 2.346 19.1399994 0 0 0 2 10 1 0 0 0 11.6245661
1101 4 -6.6020003 -17.5499993 9.8540002 0 0 3 2 5 5 0 0 0 11.7425127
1111 4 -12.3100004 -19.0 20.4599991 0 0 1 2 7 4 2 0 0 12.878891
1113 4 14.3699999 4.4899998 18.7199993 0 0 0 2 8 4 0 0 0 11.883464
1119 4 19.1599999 -7.27 20.0900002 0 0 1 3 5 5 0 0 0 12.2516804
1127 2 -4.935 14.8900004 -2.77 0 0 0 3 6 5 0 0 0 11.802043
1129 2 18.25 19.5699997 20.0699997 0 0 0 0 12 0 0 0 0 11.8088703
1143 5 -3.9960002 11.1999998 -0.00451 0 0 0 2 8 4 0 0 0 12.7798586
1147 4 -11.1899996 0.7339 -11.3800001 0 0 0 4 6 2 0 0 0 11.4782362
1152 2 -10.5299998 -12.4099999 -8.7919998 0 0 0 2 7 2 1 0 0 11.2941122
1158 2 3.9400002 13.1599999 13.2299996 0 0 0 0 12 0 0 0 0 11.2867231
1161 4 10.8299999 -1.832 -3.1470001 0 0 0 0 12 3 0 0 0 12.9215632
1167 4 21.2800007 -4.6609998 -0.5465001 0 0 0 0 12 0 0 0 0 11.2964983
1171 5 -0.5917 -1.235 14.5799999 0 0 0 2 8 5 0 0 0 12.9293958
1175 4 7.3010001 16.6499996 16.1299992 0 0 0 0 12 3 0 0 0 12.5397444
1185 2 9.974 -4.5700002 -21.5499993 0 0 0 0 12 0 0 0 0 11.1807556
1190 2 -8.1160002 -16.2000008 -15.7399998 0 0 0 3 6 4 0 0 0 11.1766977
1191 4 -12.6800003 20.1700001 -12.4799996 0 0 0 3 6 4 0 0 0 12.3767672
1196 2 14.2200003 21.2299996 -18.9400006 0 0 1 2 5 4 0 0 0 11.0401611
1206 1 -16.4300003 19.1200008 10.25 0 0 0 2 8 2 0 0 0 11.3875361
1207 5 11.6999998 17.8199997 18.2199993 0 0 0 1 10 2 0 0 0 12.2178373
1208 4 15.8800002 17.6900006 -4.652 0 0 0 4 4 6 0 0 0 12.6148911
1212 4 10.2299996 -3.478 11.5600004 0 0 2 2 4 2 4 0 0 12.5353937
1214 5 18.1800003 4.3460002 15.8500004 0 0 0 2 8 2 0 0 0 11.2819891
1216 1 10.5699997 20.9799996 -13.6400004 0 0 1 2 7 3 0 0 0 11.5570393
1217 5 -7.441 9.8280001 3.3280001 0 0 0 0 12 0 0 0 0 11.4287157
1226 4 11.6499996 18.6100006 -16.1499996 0 0 1 1 9 3 0 0 0 11.6551409
1232 4 -16.9300004 5.9850002 -8.4650002 0 0 0 0 12 3 0 0 0 12.8324995
1245 5 20.4599991 -14.5 1.202 0 0 1 0 11 1 0 0 0 11.4496479
1246 4 10.4700003 10.8900004 -10.75 0 0 0 1 10 5 0 0 0 12.7547159
1249 2 -6.8779998 -8.8280001 21.1000004 0 0 0 2 8 2 0 0 0 11.6395102
1250 2 -5.625 10.8999996 6.5640002 0 0 0 2 10 2 0 0 0 12.5314074
1252 4 -14.1000004 -17.4300003 -19.2399998 0 0 0 0 12 2 0 0 0 12.5620661
1261 4 6.684 -1.568 -0.406 0 0 0 1 10 3 0 0 0 12.3725662
1269 5 -13.3900004 -19.0699997 -6.592 0 0 1 1 9 3 0 0 0 11.5395413
1270 2 0.9318 5.6659999 0.6114 0 0 0 2 8 4 0 0 0 12.0793505
1295 4 -1.206 -21.9799996 -4.4850002 0 0 0 4 6 3 0 0 0 11.955926
1305 5 -0.6451 16.3799992 14.3800001 0 0 0 2 10 2 0 0 0 12.5785494
1306 5 -3.3499999 15.5699997 -8.7180004 0 0 0 2 8 5 0 0 0 12.8299351
1318 5 0.003842 -3.1960001 -12.7700005 0 0 0 3 6 4 0 0 0 11.8419286
1325 4 17.4400006 21.1499996 4.3920002 0 0 0 1 10 2 0 0 0 12.344758
1328 2 5.8260002 13.2600002 -5.8740002 0 0 1 1 8 1 1 0 0 11.3334408
1335 5 -3.5840001 -0.6785 20.3299999 0 0 1 1 8 3 1 0 0 13.0199528
1337 4 17.3799992 -13.5799999 -7.0619998 0 0 1 2 6 3 1 0 0 11.4919939
1340 4 15.29 14.7600003 -0.3298 0 0 0 3 8 3 0 0 0 12.4383917
1352 4 -16.2700005 -20.9300004 17.5300007 0 0 0 1 12 2 0 0 0 12.8413974
1357 5 17.7700005 -9.5039997 -4.955 0 0 0 1 10 4 0 0 0 12.5794764
1371 4 17.7700005 8.7919998 -1.666 0 0 0 0 12 0 0 0 0 10.8336725
1374 4 17.5200005 -7.2360001 1.309 0 0 0 2 8 5 0 0 0 12.6242638
1386 2 8.099 1.0930001 4.671 0 0 1 2 7 3 0 0 0 11.2359562
1388 5 13.4399996 -3.221 -7.3319998 0 0 0 0 12 0 0 0 0 11.0708609
1393 4 4.4650002 -6.7529998 4.9299998 0 0 1 0 9 3 0 0 0 12.1141186
1415 4 3.3429999 -13.7200003 -2.1930001 0 0 0 1 10 5 0 0 0 12.8345547
1419 4 13.9300004 -18.1100006 -13.8299999 0 0 0 2 10 2 0 0 0 12.3288832
1427 5 20.2900009 -16.3799992 -3.118 0 0 0 2 8 2 2 0 0 12.250185
1431 4 -17.4400006 -8.1450005 2.405 0 0 0 0 12 4 0 0 0 12.7722168
1433 5 2.5120001 -5.5289998 15.3000002 0 0 0 4 4 5 0 0 0 11.5741081
1444 4 -4.1360002 0.9564 10.96 0 0 0 1 10 5 0 0 0 13.5820008
1447 4 5.0050001 -20.3299999 15.0 0 0 0 2 11 1 0 0 0 13.4598179
1450 1 19.0599995 5.257 -6.2779999 0 0 0 4 6 2 0 0 0 11.2963247
1452 4 -7.7789998 -9.0120001 -19.3500004 0 0 0 1 10 3 0 0 0 12.5775881
1469 2 4.9450002 -17.3099995 -1.859 0 0 1 2 7 4 0 0 0 11.5903301
1471 5 -16.1100006 -20.1100006 -10.2600002 0 0 0 2 8 4 0 0 0 11.7665959
1487 4 3.257 -16.4699993 -9.0530005 0 0 0 2 10 1 0 0 0 11.647831
1504 5 10.4200001 4.809 -16.4599991 0 0 0 3 6 4 0 0 0 12.8133097
1516 2 17.3199997 18.2099991 -2.5750001 0 0 0 0 12 0 0 0 0 11.6675015
1533 2 9.4930001 1.103 -5.9000002 0 0 0 0 12 0 0 0 0 11.2609215
1534 4 8.5769997 15.2200003 0.7818 0 0 0 3 8 3 0 0 0 12.0886126
1543 1 -16.2099991 -16.8400002 5.4200001 0 0 0 3 6 4 0 0 0 11.1722164
1548 4 12.3500004 -16.3700009 16.6399994 0 0 0 2 9 3 1 0 0 12.7010269
1550 4 -2.0869999 -14.6499996 -12.8199997 0 0 0 4 6 4 0 0 0 12.5815697
1561 4 -13.29 4.2529998 4.3470001 0 0 1 2 4 5 1 0 0 12.1852932
1566 1 8.948 1.0369999 -8.4930001 0 0 0 0 12 3 0 0 0 12.5529576
1581 2 4.6500001 8.6859999 -4.04 0 0 0 1 10 2 0 0 0 11.9337044
1584 2 20.1900005 18.5200005 19.2299996 0 0 0 0 12 0 0 0 0 10.6659251
1585 3 -7.1100001 -19.3899994 14.6599999 0 0 0 0 12 0 0 0 0 11.1770754
1595 5 3.517 0.7334 -12.5200005 0 0 1 2 7 3 0 0 0 12.1174345
1605 5 7.5780001 -5.8060003 0.1824 0 0 1 2 7 3 0 0 0 11.8975078
1618 4 -0.6393 -6.5999999 21.3199997 0 0 0 1 10 5 0 0 0 12.829938
1622 4 8.625 14.2399998 -1.859 0 0 0 0 12 3 0 0 0 13.8235951
1625 4 9.0629997 -7.0609999 8.4119997 0 0 0 1 10 4 0 0 0 13.389988
1630 4 1.6130001 -17.0599995 12.4099999 0 0 1 2 7 6 0 0 0 12.6562414
1632 4 0.2584 -5.5079999 -13.3100004 0 0 0 2 8 4 0 0 0 12.4381352
1644 4 6.2160001 12.5 14.0 0 0 0 2 10 3 0 0 0 13.4578886
1661 5 21.3799992 2.043 -19.7399998 0 0 0 2 10 1 0 0 0 12.5871449
1667 4 -4.277 8.4160004 -8.9499998 0 0 0 1 10 2 0 0 0 11.7575903
1672 4 9.7270003 -19.5300007 -20.25 0 0 1 1 9 3 0 0 0 11.6436033
1687 5 15.7299996 -0.913 14.4499998 0 0 0 3 6 4 0 0 0 11.2643175
1694 2 17.6900006 -1.0369999 3.385 0 0 0 0 12 0 0 0 0 11.2179184
1699 4 18.5900002 -7.908 8.2259998 0 0 0 3 8 2 0 0 0 11.7886238
1700 5 12.0500002 11.7399998 20.6599999 0 0 0 2 10 1 0 0 0 12.0865879
1705 1 -0.7832001 -14.9399996 -0.6307 0 0 0 1 10 2 0 0 0 11.9192038
1707 4 17.2099991 4.5390001 -12.2100001 0 0 1 2 7 4 0 0 0 12.1112328
1712 2 14.9300004 -14.2700005 -20.1100006 0 0 0 4 8 1 0 0 0 11.613925
1714 4 17.6399994 0.2592 16.2399998 0 0 0 1 10 2 0 0 0 11.8840618
1724 2 -2.7720001 0.1541 -12.8599998 0 0 2 2 6 4 0 0 0 11.8569642
1730 5 -2.8220001 -2.5209999 18.9200002 0 0 0 1 10 2 0 0 0 12.3119335
1733 1 -5.9000002 -15.5200005 19.0200005 0 0 0 0 12 0 0 0 0 11.3856239
1737 4 13.4200001 -20.3299999 -0.4708 0 0 0 0 12 0 0 0 0 11.3600779
1743 4 -4.916 -18.3999996 0.5496 0 0 0 0 12 2 0 0 0 12.6516876
1745 4 -13.8800002 -21.6299992 16.7800007 0 0 0 3 10 0 0 0 0 11.8672324
1750 4 1.192 4.0510001 -1.321 0 0 0 3 6 4 0 0 0 11.632308
1751 4 -0.5559 -12.0200005 -2.6440001 0 0 0 4 4 6 0 0 0 11.9855462
1772 2 -6.106 21.3199997 -20.0400009 0 0 0 0 12 0 0 0 0 10.7279387
1773 5 12.4499998 1.7280001 21.3199997 0 0 0 2 10 3 0 0 0 13.2418347
1796 2 12.5200005 -8.4309998 -20.4799996 0 0 0 1 10 2 0 0 0 12.0692997
1803 2 15.5600004 -4.388 -6.8639998 0 0 2 0 8 2 2 0 0 11.7379685
1805 4 20.7900009 16.5300007 -18.2600002 0 0 0 1 10 2 0 0 0 11.7069903
1813 4 -14.4399996 -2.947 -8.4449997 0 0 0 3 6 3 2 0 0 12.0241022
1834 4 18.9400006 17.2299996 21.0799999 0 0 0 0 12 3 0 0 0 13.8019781
1837 4 -15.0299997 11.25 -18.8899994 0 0 0 0 12 4 0 0 0 13.8020153
1838 2 6.5819998 17.8600006 -2.609 0 0 0 1 10 2 0 0 0 11.0285463
1847 4 18.3299999 -15.9799996 -18.0699997 0 0 0 2 8 4 0 0 0 12.7077542
1849 5 -1.489 -7.935 -12.6599999 0 0 0 1 10 2 0 0 0 12.3111115
1853 2 19.6299992 21.1200008 -12.5100003 0 0 0 1 10 2 0 0 0 11.3407669
1854 4 16.4400006 -6.9390002 8.1809998 0 0 0 0 12 0 0 0 0 11.5197354
1860 2 -7.6820002 -5.3379998 -16.7600003 0 0 0 2 10 1 0 0 0 12.3643599
1865 2 -16.0499992 -8.6370001 14.6700001 0 0 0 3 8 2 0 0 0 11.2718754
1868 4 -13.1599999 5.5650001 6.934 0 0 0 1 10 4 0 0 0 12.9142028
1873 4 14.3100004 -19.6900006 -8.408 0 0 0 0 12 0 0 0 0 11.1348038
1880 5 7.993 -19.3299999 20.2999992 0 0 0 1 9 2 1 0 0 11.5408764
1890 4 -10.75 -20.8500004 7.882 0 0 0 0 12 0 0 0 0 11.6016083
1893 2 10.8199997 -11.0500002 1.025 0 0 0 1 10 2 0 0 0 11.4871569
1898 5 -11.9399996 17.0599995 20.9400006 0 0 0 0 12 0 0 0 0 11.4161129
1911 4 16.4699993 -13.4899998 5.876 0 0 0 3 6 4 0 0 0 11.8466712
1921 4 13.4899998 15.7799998 4.4489999 0 0 0 2 10 1 0 0 0 12.1343441
1925 2 14.4600001 -20.1399994 -14.8000002 0 0 0 1 10 2 0 0 0 12.2355538
1926 4 -2.533 7.2550001 -7.909 0 0 0 0 12 2 0 0 0 12.6319256
1928 4 -1.461 5.586 1.152 0 0 0 1 10 4 0 0 0 13.0122318
1934 4 -3.5510001 16.9699994 -6.3260002 0 0 1 2 7 3 2 0 0 12.276207
1935 4 6.3049998 -2.0999999 5.809 0 0 0 0 12 0 0 0 0 11.5968199
1938 4 -4.1900001 -3.0580001 -9.6859999 0 0 0 4 6 4 0 0 0 12.7517777
1943 5 -7.8350001 20.3700009 -18.4300003 0 0 0 2 8 4 0 0 0 11.9961768
1947 5 -6.322 1.041 17.25 0 0 0 5 6 3 0 0 0 12.5330382
1948 4 -3.957 -4.724 -11.3500004 0 0 0 0 12 2 0 0 0 12.0080748
1954 5 -8.9540006 -10.7299996 13.9899998 0 0 0 3 8 2 0 0 0 12.2025375
1986 4 -4.237 9.6429997 12.1300001 0 0 0 3 6 5 0 0 0 12.6083298
1993 5 -11.3199997 -8.0369997 -17.2199993 0 0 1 1 8 3 1 0 0 12.2130919
1996 4 -4.7389999 14.7600003 6.7189999 0 0 0 2 10 1 0 0 0 12.662592
1998 2 -1.679 3.448 7.684 0 0 0 1 10 3 0 0 0 11.7036371
2001 4 9.4469996 -5.9629998 5.875 0 0 0 1 10 3 0 0 0 12.511672
2006 5 -12.3699999 -10.6999998 -20.2000008 0 0 2 1 7 4 0 1 0 12.2729616
2009 4 -11.2200003 -18.3899994 -1.6540001 0 0 0 0 12 2 0 0 0 12.6412468
2020 2 13.9200002 -3.2839999 4.1020002 0 0 0 2 8 2 0 0 0 11.7137051
2022 5 17.2900009 -12.2799997 19.3899994 0 0 0 0 12 2 0 0 0 12.3168106
2027 4 -3.603 -4.3740001 14.3599997 0 0 0 0 12 3 0 0 0 12.854723
2028 2 -8.2910004 6.6690002 1.142 0 0 0 3 6 4 0 0 0 11.1356926
2050 2 -14.0900002 -20.2000008 -16.0100002 0 0 0 1 10 2 0 0 0 11.2936773
2052 5 -13.3299999 19.25 2.988 0 0 0 0 12 2 0 0 0 12.6479988
2055 4 7.9959998 -3.904 -10.3699999 0 0 0 1 10 4 0 0 0 13.3664503
2056 5 16.5900002 11.4499998 9.6800003 0 0 0 1 10 2 0 0 0 12.481926
2062 2 8.698 15.2799997 -15.3999996 0 0 0 4 6 2 0 0 0 11.6326466
2070 2 -8.5869999 -22.2099991 -14.3900004 0 0 0 1 10 2 0 0 0 11.41119
2073 4 -3.4159999 -14.8299999 -19.75 0 0 0 1 10 3 0 0 0 12.3803101
2081 5 -16.1000004 -14.8999996 1.502 0 0 0 0 12 2 0 0 0 12.6411543
2082 2 17.4099999 15.6700001 11.6099997 0 0 0 2 10 0 0 0 0 11.4597397
2083 4 -2.152 -19.8400002 -13.6300001 0 0 0 3 6 5 0 0 0 12.1313534
2087 5 -11.0900002 -8.8900004 -6.823 0 0 0 1 10 2 0 0 0 12.4517985
2089 1 19.4599991 -13.7100001 -18.6900006 0 0 1 3 5 5 0 0 0 12.623147
2093 5 -3.4089999 -15.4499998 11.4200001 0 0 0 0 12 0 0 0 0 11.7736597
2095 4 -0.8908 -10.4099999 -19.9899998 0 0 0 2 8 5 0 0 0 13.5049868
2096 5 -18.1599999 -5.6810003 12.6999998 0 0 0 4 4 5 0 0 0 11.9077388
2107 5 -16.2000008 14.7700005 -7.2779999 0 0 0 1 10 2 0 0 0 12.13725
2143 2 6.1209998 2.747 16.8600006 0 0 1 3 4 5 1 0 0 12.7723971
2154 4 17.5699997 14.2799997 -1.6160001 0 0 0 3 6 3 0 0 0 13.0743837
2160 2 11.9799996 9.25 2.7379999 0 0 1 2 7 3 0 0 0 11.5192538
2167 5 17.2999992 14.0 9.2200003 0 0 1 1 9 6 0 0 0 13.7156592
2176 5 8.4390002 12.9700004 0.9449 0 0 0 4 6 3 0 0 0 11.136838
2178 4 -11.1899996 -20.0799999 -5.6950002 0 0 0 0 12 3 0 0 0 13.2675285
2181 4 -9.0469999 8.2819996 15.7700005 0 0 0 0 12 2 0 0 0 11.9825116
2185 2 -15.04 -20.6800003 -6.949 0 0 0 4 6 2 0 0 0 11.1529865
2187 2 -3.773 9.4600001 18.2299996 0 0 0 1 10 2 0 0 0 11.4813376
2197 2 19.8899994 17.0200005 5.8590002 0 0 0 2 8 1 0 0 0 10.965108
2207 5 14.1999998 -8.6680002 -7.993 0 0 0 2 8 2 0 0 0 12.2146416
2212 4 -10.7600003 -5.5560003 -17.2399998 0 0 0 3 6 3 2 0 0 13.2800665
2241 4 4.8130002 -5.6869998 0.9198 0 0 0 2 10 3 0 0 0 12.1739111
2274 1 -6.9569998 -19.8999996 0.7101 0 0 0 3 6 4 0 0 0 11.5256281
2290 4 -3.9890002 -20.7399998 12.7100001 0 0 0 2 8 4 0 0 0 11.8764592
2291 2 -12.6499996 16.0300007 -14.6099997 0 0 0 2 8 3 0 0 0 11.7301235
2295 1 6.843 -1.489 17.9799996 0 0 1 2 7 3 0 0 0 12.5202523
2315 4 16.4300003 0.02041 -21.4799996 0 0 0 1 10 2 0 0 0 11.9094468
2324 1 12.5799999 -9.9720002 10.4700003 0 0 0 4 4 5 0 0 0 12.069397
2325 4 -16.0699997 -6.4829998 -6.757 0 0 0 3 6 5 0 0 0 11.6810913
2333 2 8.198 21.4099999 19.8099995 0 0 0 2 8 2 0 0 0 11.19312
2334 5 -1.103 8.1560001 14.8299999 0 0 0 4 6 4 0 0 0 13.346838
2341 4 21.1200008 8.974 -9.6630001 0 0 0 2 8 2 0 0 0 11.5029402
2342 3 1.227 6.1929998 -15.9899998 0 0 0 2 10 1 0 0 0 11.609788
2346 4 -15.8900004 -2.273 4.7579999 0 0 0 1 12 2 0 0 0 12.9092208
2356 3 19.1399994 -1.929 -9.9790002 0 0 0 4 4 7 0 0 0 12.4312516
2377 4 5.7459998 -20.1900005 21.0799999 0 0 0 0 12 0 0 0 0 11.0281925
2388 4 -4.7589998 7.2919998 -2.102 0 0 0 2 10 2 0 0 0 12.0539093
2389 2 -15.4600001 -15.6300001 -17.6100006 0 0 0 1 10 2 0 0 0 12.4110422
2400 2 -13.7799998 -0.4196 20.3600006 0 0 0 2 8 4 0 0 0 11.7751045
2409 5 -6.4489999 21.0200005 19.7600003 0 0 0 1 10 2 0 0 0 11.632885
2411 4 17.4799996 -18.6200009 -3.0139999 0 0 0 2 7 2 1 0 0 11.1812115
2414 1 1.236 7.1729999 15.54 0 0 0 1 10 2 0 0 0 12.2587128
2428 4 -7.7080002 13.9899998 13.54 0 0 0 0 12 0 0 0 0 10.8388243
2437 2 -11.7299996 9.9379998 18.6200009 0 0 0 3 6 4 0 0 0 11.4785185
2438 1 10.1099997 -10.0299997 -1.102 0 0 0 0 12 0 0 0 0 10.8022642
2440 4 11.6400004 -12.1800003 -1.02 0 0 0 3 6 6 0 0 0 13.1679144
2465 5 -2.2520001 -10.1300001 8.1070004 0 0 0 3 6 6 0 0 0 12.5249968
2476 1 11.6999998 -22.1900005 19.5400009 0 0 0 2 7 2 1 0 0 11.3998757
2480 4 13.1099997 11.4499998 -20.2800007 0 0 1 2 8 4 1 0 0 12.8263359
2502 4 -7.085 -10.9300004 -1.948 0 0 1 2 7 4 0 0 0 11.9566136
2504 2 -9.4569998 -9.4250002 -14.4600001 0 0 1 0 9 3 0 0 0 11.1609001
2509 4 -9.1370001 17.6599999 -21.5499993 0 0 0 1 12 2 0 0 0 12.407836
2511 5 -6.5089998 6.072 -3.984 0 0 1 4 3 6 0 0 0 12.2340946
2519 4 7.9780002 -8.9090004 17.5499993 0 0 0 1 10 2 0 0 0 12.0215206
2520 4 2.8120001 -19.1599999 -5.763 0 0 0 2 10 3 0 0 0 12.1402702
2521 2 5.5390001 5.2519999 13.4300003 0 0 0 1 10 3 0 0 0 11.842825
2526 2 -6.1570001 15.6400004 17.9899998 0 0 0 2 8 1 0 0 0 11.536398
2534 5 -6.7319999 8.8690004 -17.2900009 0 0 0 3 6 5 0 0 0 12.4248858
2535 5 -5.9710002 -5.2069998 3.921 0 0 1 2 7 6 0 0 0 13.2962542
2565 4 -7.4520002 9.4930001 -22.0100002 0 0 0 2 8 4 0 0 0 11.8107434
2577 3 -1.043 -3.6140001 10.5200005 0 0 0 0 12 4 0 0 0 13.8311844
2582 2 2.7060001 13.7200003 -11.4700003 0 0 0 1 10 2 0 0 0 11.4404154
2588 2 21.8700008 13.2700005 -10.4399996 0 0 2 2 6 4 0 0 0 11.7321348
2590 4 -6.9520002 10.5600004 11.4600001 0 0 0 0 12 2 0 0 0 13.2131834
2592 3 -12.9899998 14.87 -20.5799999 0 0 0 4 6 3 0 0 0 11.4752178
2594 2 4.3800001 2.9990002 -17.2099991 0 0 0 2 8 2 0 0 0 11.4767771
2595 5 -18.0100002 -15.79 3.1440001 0 0 0 2 8 4 0 0 0 11.83982
2600 1 11.8800002 18.1700001 10.6099997 0 0 0 3 6 4 0 0 0 11.481371
2608 5 3.6410001 -10.3599997 10.4099999 0 0 0 2 8 4 0 0 0 12.5461903
2613 5 -10.7200003 -10.6099997 20.4500008 0 0 0 1 10 4 0 0 0 13.1576567
2615 2 8.4259997 -20.8799992 6.7059999 0 0 0 2 8 2 0 0 0 11.1825972
2623 3 -16.0100002 1.668 -20.4899998 0 0 0 4 5 4 1 0 0 12.993988
2644 2 -6.573 21.0100002 0.7065 0 0 0 3 5 3 1 0 0 12.1825829
2648 2 2.4760001 -5.9050002 -14.1700001 0 0 0 0 12 0 0 0 0 10.9039966
2651 4 14.5600004 -20.3799992 10.0200005 0 0 0 2 10 3 0 0 0 12.8049355
2659 4 17.2700005 -3.293 -8.547 0 0 1 1 9 3 0 0 0 12.170805
2672 2 -9.4090004 -14.8599998 10.9799996 0 0 0 5 2 6 0 0 0 11.8982286
2677 4 21.1399994 18.8400002 6.368 0 0 0 1 10 2 0 0 0 11.9581604
2680 4 17.2299996 -7.3429999 18.6800003 0 0 0 3 6 4 0 0 0 11.7244387
2692 4 -15.3999996 -7.8579998 -4.8639998 0 0 0 4 6 3 0 0 0 11.1796322
2697 1 -14.3800001 17.8500004 -2.7460001 0 0 1 2 7 5 0 0 0 12.4762554
2706 4 14.6000004 3.896 -12.7100001 0 0 0 1 10 2 0 0 0 12.6890373
2715 4 6.3579998 -5.421 18.0499992 0 0 0 3 6 4 0 0 0 12.0144339
2719 4 2.0599999 -8.3129997 -10.9899998 0 0 0 0 12 0 0 0 0 12.1303473
2723 4 22.1299992 10.1599999 2.4070001 0 0 0 0 12 4 0 0 0 13.6392355
2741 5 13.3800001 13.1099997 1.482 0 0 0 2 8 2 0 0 0 11.1583948
2771 5 8.1750002 -18.3099995 10.2700005 0 0 0 1 10 2 0 0 0 11.7547493
2773 2 9.7849999 -18.2800007 -15.2600002 0 0 0 1 10 2 0 0 0 11.6797648
2784 5 -1.361 -21.0100002 1.935 0 0 0 2 8 4 0 0 0 13.2301741
2789 5 -19.8600006 -19.75 -22.1800003 0 0 1 4 3 7 0 0 0 12.7495356
2803 5 -9.1969996 -14.8199997 -8.7010002 0 0 0 3 8 3 0 0 0 12.8398266
2805 4 14.5600004 11.3299999 -2.5309999 0 0 0 1 12 2 0 0 0 13.3711186
2813 4 -7.8140002 -7.1149998 -10.3599997 0 0 1 2 7 6 0 0 0 14.1338043
2823 4 1.592 -21.6000004 20.2000008 0 0 0 0 12 2 0 0 0 12.497119
2830 4 -3.648 21.0499992 11.1599999 0 0 0 3 9 2 1 0 0 13.4574442
2840 2 -4.7069998 18.8400002 3.727 0 0 0 3 6 4 0 0 0 11.0207787
2848 4 -3.6180001 -8.0909996 6.639 0 0 0 1 10 3 0 0 0 12.6282807
2850 4 -3.2360001 3.497 11.2600002 0 0 0 0 12 0 0 0 0 11.2909298
2860 1 4.198 -1.164 -18.6000004 0 0 1 4 6 2 1 0 0 11.9006252
2862 3 19.4899998 -20.2999992 -10.7200003 0 0 0 1 10 4 0 0 0 12.4721775
2864 4 -4.638 17.2399998 21.2299996 0 0 0 1 10 2 0 0 0 11.8835498
2871 5 -7.9580002 15.0799999 -13.1999998 0 0 1 4 4 5 1 0 0 12.1070223
2878 2 1.344 -7.3810001 8.6969996 0 0 0 2 8 3 0 0 0 11.9865352
2900 4 3.408 4.1170001 -21.4500008 0 0 0 2 10 1 0 0 0 12.0694475
2906 4 -16.1800003 17.7600003 -20.3199997 0 0 0 3 8 4 0 0 0 13.0983048
2911 4 2.2780001 18.3400002 -12.5200005 0 0 0 0 12 2 0 0 0 12.1592941
2929 4 -13.1499996 -13.5799999 -14.1499996 0 0 0 3 8 4 0 0 0 12.5939942
2942 4 -2.9820002 -19.0699997 14.2799997 0 0 0 1 10 2 0 0 0 11.8425522
2961 4 2.0450001 -10.8000002 -9.75 0 0 0 1 10 5 0 0 0 13.1568222
2993 4 15.75 21.1100006 -17.0100002 0 0 0 1 10 4 0 0 0 12.5140629
2994 4 -4.8020001 -9.4420004 -1.038 0 0 0 0 12 3 0 0 0 13.0253592
2995 2 7.9060002 -2.0139999 15.6499996 0 0 1 0 11 1 0 0 0 12.6559592
2997 2 -15.7299996 -8.0380001 -21.3299999 0 0 0 2 10 1 0 0 0 12.0409775
2999 2 19.2900009 21.2900009 1.0190001 0 0 1 2 7 2 1 0 0 11.78617
3019 4 19.8999996 16.7099991 -9.0159998 0 0 0 1 12 3 0 0 0 13.8282128
3020 5 16.7399998 5.928 -19.1299992 0 0 1 4 5 2 2 0 0 12.4634047
3021 5 -2.612 -10.7399998 0.5557 0 0 1 2 7 5 0 0 0 12.5011311
3024 5 -2.5220001 7.4990001 -21.1800003 0 0 0 1 10 4 0 0 0 13.1313658
3048 4 3.912 10.8100004 14.3199997 0 0 0 0 12 3 0 0 0 13.721118
3056 4 14.1199999 -15.5699997 -8.2139998 0 0 0 3 8 4 0 0 0 12.1494408
3064 2 17.4200001 -14.5500002 -20.3199997 0 0 1 1 9 3 0 0 0 12.3014336
3066 2 -17.0200005 5.3200002 -12.8999996 0 0 0 0 12 0 0 0 0 11.8937474
3070 4 14.1499996 4.6989999 14.4799996 0 0 0 1 10 3 0 0 0 12.5885754
3072 4 -12.3100004 -4.665 -18.8799992 0 0 1 1 9 4 0 0 0 12.4983168
3083 4 -12.1800003 -10.25 -9.033 0 0 0 0 12 2 0 0 0 12.5554781
3101 5 21.4799996 1.7610001 -6.1989999 0 0 0 4 4 4 0 0 0 11.8639222
3110 2 6.7410002 16.5499993 1.555 0 0 1 2 7 5 0 0 0 12.1748667
3119 5 14.5500002 11.1800003 14.0500002 0 0 1 1 8 3 1 0 0 12.1688433
3126 2 -13.8500004 -1.313 18.1599999 0 0 1 2 5 2 2 0 0 11.4044848
3129 2 3.0339999 14.8400002 -7.2670002 0 0 0 4 6 1 0 0 0 11.0121136
3137 2 4.6919999 -3.333 -19.0900002 0 0 0 2 7 2 1 0 0 11.8553334
3142 2 -7.6279998 13.3900004 -17.0499992 0 0 0 2 10 2 0 0 0 12.2674322
3145 2 -2.6410001 -22.1299992 -9.0780001 0 0 0 2 8 4 0 0 0 11.497241
3164 2 18.5300007 -15.6000004 -0.1087 0 0 0 1 10 3 0 0 0 12.0729971
3169 5 -2.003 17.6800003 8.1870003 0 0 0 3 8 2 0 0 0 12.0749331
3174 4 -4.0279999 -2.848 17.1000004 0 0 0 2 8 4 0 0 0 12.4242983
3190 2 1.31 13.5500002 8.7720003 0 0 0 0 12 0 0 0 0 12.0735502
3193 2 17.6599999 2.5150001 8.7139998 0 0 0 2 8 2 0 0 0 11.8461638
3219 4 -3.629 7.072 18.8999996 0 0 0 4 4 6 0 0 0 12.2489233
3223 4 19.8400002 -15.4899998 -20.6399994 0 0 0 0 12 2 0 0 0 12.8025446
3231 5 13.1899996 18.6800003 3.6530001 0 0 0 1 10 4 0 0 0 13.0519276
3238 5 4.421 -21.5799999 19.1700001 0 0 0 1 10 4 0 0 0 13.1350689
3240 1 -11.3999996 20.3400002 -3.4660001 0 0 0 0 12 0 0 0 0 11.3821564
3242 2 -1.8430002 0.18 12.7299996 0 0 0 2 8 1 0 0 0 11.3844128
3248 4 -17.2600002 -5.935 6.777 0 0 0 0 12 3 0 0 0 13.1358986
3253 5 9.0270004 4.5669999 10.6999998 0 0 0 0 12 2 0 0 0 12.4749356
3257 4 3.435 -15.7299996 -21.2600002 0 0 0 1 12 2 0 0 0 13.0620213
3274 2 -0.6303 15.2600002 16.8700008 0 0 0 2 8 4 0 0 0 12.3010559
3278 4 17.0599995 -8.0340004 -18.7299996 0 0 1 2 8 2 0 0 0 11.3457565
3282 5 6.645 14.4099999 20.4699993 0 0 3 0 7 2 2 1 0 12.4476233
3283 4 -13.8999996 17.1800003 -21.7399998 0 0 0 3 8 2 0 0 0 11.9092512
3298 5 -3.5120001 -0.3923 8.625 0 0 1 1 8 3 1 0 0 11.9036036
3303 5 -4.764 -8.4779997 14.1599999 0 0 0 1 10 2 0 0 0 11.918109