ITEM: TIMESTEP
0
ITEM: NUMBER OF ATOMS
16384
ITEM: BOX BOUNDS pp pp pp
0.0000000000000000e+00 2.6073374759099700e+01
0.0000000000000000e+00 2.6073374759099700e+01
0.0000000000000000e+00 2.6073374759099700e+01
ITEM: ATOMS id type x y z
1 4 0 0 0
2 4 0.82126 0.82126 0
3 4 2.46378 0.82126 0
4 4 2.46378 0 0.82126
5 4 1.64252 0.82126 0.82126
32 4 0.82126 1.64252 0.82126
33 4 0 2.46378 0.82126
34 4 2.46378 1.64252 0.82126
35 4 1.64252 2.46378 0.82126
522 4 2.46378 0 2.46378
523 4 1.64252 0.82126 2.46378
553 4 0.82126 2.46378 1.64252
554 4 0 2.46378 2.46378
555 4 2.46378 2.46378 1.64252
556 4 2.46378 1.64252 2.46378
557 4 1.64252 2.46378 2.46378
8193 2 0 0 0
8194 2 0.82126 0.82126 0
8195 2 0.82126 0 0.82126
8196 2 0 0.82126 0.82126
8197 2 2.46378 0 0.82126
8226 2 0 1.64252 0
8227 2 0.82126 2.46378 0
8228 2 2.46378 1.64252 0.82126
8730 2 0.82126 0.82126 1.64252
8731 2 0 0.82126 2.46378
8732 2 2.46378 0.82126 1.64252
8733 2 2.46378 0 2.46378
8734 2 1.64252 0.82126 2.46378
8760 2 1.64252 1.64252 1.64252
8761 2 2.46378 2.46378 1.64252
6 4 4.1063 0 0.82126
7 4 3.28504 0.82126 0.82126
8 4 5.74882 0.82126 0
9 4 5.74882 0 0.82126
10 4 4.92756 0.82126 0.82126
36 4 3.28504 1.64252 0
37 4 4.1063 2.46378 0
38 4 4.1063 1.64252 0.82126
39 4 3.28504 2.46378 0.82126
40 4 5.74882 2.46378 0
41 4 5.74882 1.64252 0.82126
42 4 4.92756 2.46378 0.82126
524 4 4.1063 0 2.46378
525 4 5.74882 0.82126 1.64252
526 4 5.74882 0 2.46378
527 4 4.92756 0.82126 2.46378
558 4 3.28504 1.64252 1.64252
559 4 4.1063 1.64252 2.46378
560 4 3.28504 2.46378 2.46378
561 4 4.92756 1.64252 1.64252
562 4 5.74882 2.46378 1.64252
8198 2 3.28504 0 0
8199 2 4.1063 0.82126 0
8200 2 5.74882 0.82126 0
8229 2 3.28504 1.64252 0
8230 2 4.1063 2.46378 0
8735 2 3.28504 0 1.64252
8736 2 4.1063 0 2.46378
8737 2 3.28504 0.82126 2.46378
8738 2 5.74882 0 2.46378
8739 2 4.92756 0.82126 2.46378
8762 2 4.1063 2.46378 1.64252
8763 2 4.1063 1.64252 2.46378
8764 2 4.92756 2.46378 2.46378
11 4 6.57008 0 0
12 4 6.57008 0.82126 0.82126
43 4 6.57008 1.64252 0
44 4 7.39134 2.46378 0
45 4 6.57008 2.46378 0.82126
46 4 9.03386 1.64252 0.82126
47 4 8.2126 2.46378 0.82126
528 4 6.57008 0 1.64252
529 4 7.39134 0 2.46378
530 4 9.03386 0 2.46378
531 4 8.2126 0.82126 2.46378
563 4 7.39134 2.46378 1.64252
564 4 7.39134 1.64252 2.46378
565 4 8.2126 1.64252 1.64252
566 4 9.03386 2.46378 1.64252
567 4 9.03386 1.64252 2.46378
8201 2 7.39134 0 0.82126
8202 2 9.03386 0 0.82126
8203 2 8.2126 0.82126 0.82126
8231 2 6.57008 1.64252 0
8232 2 7.39134 1.64252 0.82126
8233 2 9.03386 2.46378 0
8740 2 6.57008 0 1.64252
8741 2 6.57008 0.82126 2.46378
8742 2 8.2126 0.82126 2.46378
8765 2 7.39134 2.46378 1.64252
8766 2 7.39134 1.64252 2.46378
8767 2 6.57008 2.46378 2.46378
8768 2 9.03386 2.46378 1.64252
8769 2 8.2126 2.46378 2.46378
13 4 9.85512 0 0
14 4 11.4976 0 0
15 4 12.3189 0 0.82126
16 4 11.4976 0.82126 0.82126
48 4 9.85512 1.64252 0
49 4 10.6764 2.46378 0
50 4 10.6764 1.64252 0.82126
51 4 9.85512 2.46378 0.82126
52 4 11.4976 2.46378 0.82126
532 4 10.6764 0.82126 1.64252
533 4 10.6764 0 2.46378
534 4 11.4976 0 1.64252
535 4 11.4976 0.82126 2.46378
568 4 9.85512 1.64252 1.64252
569 4 10.6764 2.46378 1.64252
570 4 10.6764 1.64252 2.46378
8204 2 9.85512 0 0
8205 2 10.6764 0.82126 0
8206 2 9.85512 0.82126 0.82126
8207 2 11.4976 0 0
8208 2 12.3189 0 0.82126
8234 2 10.6764 2.46378 0
8235 2 10.6764 1.64252 0.82126
8236 2 11.4976 1.64252 0
8237 2 11.4976 2.46378 0.82126
8743 2 9.85512 0 1.64252
8744 2 10.6764 0.82126 1.64252
8745 2 9.85512 0.82126 2.46378
8746 2 11.4976 0 1.64252
8747 2 12.3189 0 2.46378
8770 2 9.85512 1.64252 1.64252
8771 2 10.6764 2.46378 1.64252
8772 2 9.85512 2.46378 2.46378
8773 2 11.4976 1.64252 1.64252
8774 2 12.3189 1.64252 2.46378
8775 2 11.4976 2.46378 2.46378
17 4 13.1402 0 0
18 4 13.9614 0.82126 0
19 4 13.9614 0 0.82126
20 4 15.6039 0.82126 0
21 4 15.6039 0 0.82126
53 4 13.1402 1.64252 0
54 4 13.9614 2.46378 0
55 4 13.9614 1.64252 0.82126
56 4 13.1402 2.46378 0.82126
57 4 14.7827 1.64252 0
58 4 15.6039 2.46378 0
59 4 14.7827 2.46378 0.82126
536 4 13.1402 0 1.64252
537 4 13.9614 0.82126 1.64252
538 4 13.9614 0 2.46378
539 4 13.1402 0.82126 2.46378
571 4 13.1402 1.64252 1.64252
572 4 13.9614 2.46378 1.64252
573 4 13.9614 1.64252 2.46378
574 4 13.1402 2.46378 2.46378
575 4 14.7827 1.64252 1.64252
576 4 15.6039 2.46378 1.64252
577 4 14.7827 2.46378 2.46378
8209 2 13.9614 0.82126 0
8210 2 15.6039 0.82126 0
8211 2 15.6039 0 0.82126
8212 2 14.7827 0.82126 0.82126
8238 2 13.1402 1.64252 0
8239 2 13.9614 2.46378 0
8240 2 15.6039 1.64252 0.82126
8241 2 14.7827 2.46378 0.82126
8748 2 13.1402 0 1.64252
8749 2 13.1402 0.82126 2.46378
8750 2 15.6039 0.82126 1.64252
8751 2 15.6039 0 2.46378
8752 2 14.7827 0.82126 2.46378
8776 2 13.9614 2.46378 1.64252
8777 2 13.1402 2.46378 2.46378
8778 2 14.7827 1.64252 1.64252
22 4 17.2465 0.82126 0
23 4 18.0677 0 0
24 4 18.889 0.82126 0
60 4 17.2465 1.64252 0.82126
61 4 16.4252 2.46378 0.82126
62 4 18.889 1.64252 0.82126
540 4 16.4252 0 1.64252
541 4 18.0677 0 1.64252
542 4 18.889 0.82126 1.64252
578 4 16.4252 2.46378 2.46378
579 4 18.889 2.46378 1.64252
580 4 18.889 1.64252 2.46378
581 4 18.0677 2.46378 2.46378
8213 2 16.4252 0 0
8214 2 17.2465 0 0.82126
8215 2 16.4252 0.82126 0.82126
8216 2 18.889 0.82126 0
8217 2 18.0677 0.82126 0.82126
8242 2 17.2465 1.64252 0.82126
8243 2 18.0677 1.64252 0
8244 2 18.889 2.46378 0
8753 2 16.4252 0.82126 2.46378
8754 2 18.889 0.82126 1.64252
8755 2 18.889 0 2.46378
8779 2 17.2465 1.64252 2.46378
8780 2 16.4252 2.46378 2.46378
8781 2 18.889 1.64252 2.46378
8782 2 18.0677 2.46378 2.46378
25 4 20.5315 0.82126 0
26 4 22.174 0.82126 0
63 4 19.7102 1.64252 0
64 4 20.5315 2.46378 0
65 4 20.5315 1.64252 0.82126
66 4 22.174 2.46378 0
67 4 22.174 1.64252 0.82126
543 4 20.5315 0.82126 1.64252
544 4 20.5315 0 2.46378
545 4 19.7102 0.82126 2.46378
546 4 21.3528 0 1.64252
547 4 22.174 0.82126 1.64252
548 4 22.174 0 2.46378
549 4 21.3528 0.82126 2.46378
582 4 20.5315 2.46378 1.64252
583 4 21.3528 1.64252 1.64252
584 4 22.174 2.46378 1.64252
8218 2 19.7102 0 0
8219 2 20.5315 0.82126 0
8220 2 19.7102 0.82126 0.82126
8221 2 21.3528 0 0
8222 2 22.174 0 0.82126
8223 2 21.3528 0.82126 0.82126
8245 2 19.7102 1.64252 0
8246 2 20.5315 1.64252 0.82126
8247 2 21.3528 1.64252 0
8248 2 22.174 2.46378 0
8249 2 22.174 1.64252 0.82126
8250 2 21.3528 2.46378 0.82126
8756 2 19.7102 0.82126 2.46378
8757 2 21.3528 0 1.64252
8758 2 22.174 0 2.46378
8783 2 19.7102 1.64252 1.64252
8784 2 20.5315 2.46378 1.64252
8785 2 19.7102 2.46378 2.46378
8786 2 21.3528 2.46378 2.46378
27 4 22.9953 0 0
28 4 23.8165 0 0.82126
29 4 22.9953 0.82126 0.82126
30 4 24.6378 0 0
31 4 25.4591 0.82126 0
68 4 22.9953 1.64252 0
69 4 23.8165 2.46378 0
70 4 24.6378 1.64252 0
71 4 25.4591 2.46378 0
72 4 24.6378 2.46378 0.82126
550 4 22.9953 0.82126 2.46378
551 4 24.6378 0 1.64252
552 4 24.6378 0.82126 2.46378
585 4 23.8165 1.64252 2.46378
586 4 25.4591 2.46378 1.64252
8224 2 23.8165 0 0.82126
8225 2 24.6378 0 0
8251 2 22.9953 1.64252 0
8252 2 24.6378 1.64252 0
8253 2 25.4591 2.46378 0
8254 2 25.4591 1.64252 0.82126
8255 2 24.6378 2.46378 0.82126
8759 2 25.4591 0.82126 1.64252
8787 2 22.9953 1.64252 1.64252
8788 2 23.8165 1.64252 2.46378
8789 2 25.4591 2.46378 1.64252
73 4 0.82126 3.28504 0.82126
74 4 2.46378 3.28504 0.82126
75 4 1.64252 4.1063 0.82126
98 4 0.82126 5.74882 0
99 4 0.82126 4.92756 0.82126
100 4 0 5.74882 0.82126
101 4 1.64252 4.92756 0
102 4 2.46378 5.74882 0
103 4 2.46378 4.92756 0.82126
587 4 0 3.28504 1.64252
588 4 0.82126 4.1063 1.64252
589 4 0.82126 3.28504 2.46378
590 4 2.46378 4.1063 1.64252
591 4 1.64252 4.1063 2.46378
611 4 0 5.74882 2.46378
612 4 2.46378 5.74882 1.64252
8256 2 0.82126 3.28504 0.82126
8257 2 0 4.1063 0.82126
8258 2 1.64252 3.28504 0
8259 2 2.46378 4.1063 0
8295 2 0 4.92756 0
8296 2 1.64252 4.92756 0
8297 2 2.46378 5.74882 0
8298 2 2.46378 4.92756 0.82126
8790 2 0 3.28504 1.64252
8791 2 0.82126 3.28504 2.46378
8792 2 0 4.1063 2.46378
8793 2 1.64252 3.28504 1.64252
8794 2 2.46378 4.1063 1.64252
8795 2 1.64252 4.1063 2.46378
8824 2 0 4.92756 1.64252
8825 2 0.82126 5.74882 1.64252
8826 2 1.64252 4.92756 1.64252
76 4 4.92756 3.28504 0
77 4 5.74882 3.28504 0.82126
104 4 3.28504 4.92756 0
105 4 4.1063 4.92756 0.82126
106 4 5.74882 5.74882 0
107 4 5.74882 4.92756 0.82126
613 4 3.28504 4.92756 1.64252
614 4 4.1063 5.74882 1.64252
615 4 3.28504 5.74882 2.46378
616 4 5.74882 5.74882 1.64252
617 4 4.92756 5.74882 2.46378
8260 2 3.28504 3.28504 0
8261 2 4.1063 3.28504 0.82126
8262 2 3.28504 4.1063 0.82126
8263 2 4.92756 3.28504 0
8264 2 4.92756 4.1063 0.82126
8299 2 3.28504 4.92756 0
8300 2 4.1063 5.74882 0
8301 2 4.92756 4.92756 0
8302 2 5.74882 5.74882 0
8303 2 4.92756 5.74882 0.82126
8796 2 4.1063 3.28504 2.46378
8797 2 3.28504 4.1063 2.46378
8798 2 5.74882 4.1063 1.64252
8799 2 4.92756 4.1063 2.46378
8827 2 3.28504 4.92756 1.64252
8828 2 4.1063 5.74882 1.64252
8829 2 5.74882 5.74882 1.64252
8830 2 4.92756 5.74882 2.46378
78 4 7.39134 3.28504 0.82126
79 4 9.03386 4.1063 0
80 4 9.03386 3.28504 0.82126
108 4 8.2126 4.92756 0
109 4 9.03386 5.74882 0
110 4 9.03386 4.92756 0.82126
592 4 6.57008 3.28504 1.64252
593 4 7.39134 3.28504 2.46378
594 4 8.2126 3.28504 1.64252
595 4 9.03386 4.1063 1.64252
618 4 8.2126 4.92756 1.64252
619 4 9.03386 4.92756 2.46378
8265 2 6.57008 3.28504 0
8266 2 7.39134 4.1063 0
8267 2 7.39134 3.28504 0.82126
8268 2 8.2126 3.28504 0
8269 2 9.03386 4.1063 0
8270 2 9.03386 3.28504 0.82126
8304 2 7.39134 5.74882 0
8305 2 7.39134 4.92756 0.82126
8306 2 9.03386 5.74882 0
8800 2 6.57008 4.1063 2.46378
8801 2 9.03386 4.1063 1.64252
8802 2 9.03386 3.28504 2.46378
8831 2 6.57008 4.92756 1.64252
8832 2 6.57008 5.74882 2.46378
81 4 9.85512 3.28504 0
82 4 10.6764 3.28504 0.82126
83 4 11.4976 4.1063 0.82126
111 4 9.85512 4.92756 0
112 4 10.6764 4.92756 0.82126
113 4 9.85512 5.74882 0.82126
114 4 11.4976 4.92756 0
115 4 12.3189 5.74882 0
116 4 12.3189 4.92756 0.82126
117 4 11.4976 5.74882 0.82126
596 4 9.85512 3.28504 1.64252
597 4 10.6764 3.28504 2.46378
598 4 11.4976 3.28504 1.64252
599 4 12.3189 4.1063 1.64252
600 4 12.3189 3.28504 2.46378
620 4 10.6764 5.74882 1.64252
621 4 12.3189 5.74882 1.64252
622 4 11.4976 5.74882 2.46378
8271 2 10.6764 4.1063 0
8272 2 9.85512 4.1063 0.82126
8273 2 11.4976 4.1063 0.82126
8307 2 10.6764 5.74882 0
8308 2 9.85512 5.74882 0.82126
8309 2 11.4976 4.92756 0
8310 2 12.3189 4.92756 0.82126
8311 2 11.4976 5.74882 0.82126
8803 2 9.85512 4.1063 2.46378
8804 2 11.4976 3.28504 1.64252
8833 2 10.6764 5.74882 1.64252
8834 2 12.3189 5.74882 1.64252
84 4 13.9614 3.28504 0.82126
85 4 15.6039 4.1063 0
86 4 14.7827 4.1063 0.82126
118 4 13.1402 5.74882 0.82126
119 4 14.7827 4.92756 0
120 4 15.6039 5.74882 0
121 4 15.6039 4.92756 0.82126
122 4 14.7827 5.74882 0.82126
601 4 13.9614 4.1063 1.64252
602 4 13.1402 4.1063 2.46378
603 4 14.7827 3.28504 1.64252
623 4 13.1402 4.92756 1.64252
624 4 13.9614 5.74882 1.64252
625 4 13.1402 5.74882 2.46378
626 4 14.7827 4.92756 1.64252
627 4 15.6039 4.92756 2.46378
8274 2 13.1402 3.28504 0
8275 2 13.9614 4.1063 0
8276 2 13.1402 4.1063 0.82126
8277 2 14.7827 3.28504 0
8278 2 15.6039 4.1063 0
8279 2 15.6039 3.28504 0.82126
8280 2 14.7827 4.1063 0.82126
8312 2 13.1402 4.92756 0
8313 2 13.9614 5.74882 0
8314 2 14.7827 4.92756 0
8315 2 15.6039 4.92756 0.82126
8805 2 13.9614 4.1063 1.64252
8806 2 13.9614 3.28504 2.46378
8807 2 13.1402 4.1063 2.46378
8808 2 14.7827 4.1063 2.46378
8835 2 13.1402 4.92756 1.64252
8836 2 13.9614 5.74882 1.64252
8837 2 13.1402 5.74882 2.46378
8838 2 15.6039 5.74882 1.64252
87 4 17.2465 3.28504 0.82126
88 4 16.4252 4.1063 0.82126
89 4 18.889 3.28504 0.82126
90 4 18.0677 4.1063 0.82126
123 4 16.4252 4.92756 0
124 4 17.2465 4.92756 0.82126
604 4 18.0677 3.28504 1.64252
628 4 16.4252 4.92756 1.64252
629 4 17.2465 5.74882 1.64252
630 4 16.4252 5.74882 2.46378
631 4 18.889 4.92756 2.46378
632 4 18.0677 5.74882 2.46378
8281 2 16.4252 3.28504 0
8282 2 17.2465 4.1063 0
8283 2 17.2465 3.28504 0.82126
8284 2 18.889 4.1063 0
8316 2 16.4252 4.92756 0
8317 2 18.0677 4.92756 0
8318 2 18.0677 5.74882 0.82126
8809 2 17.2465 4.1063 1.64252
8810 2 17.2465 3.28504 2.46378
8811 2 16.4252 4.1063 2.46378
8812 2 18.0677 3.28504 1.64252
8813 2 18.889 4.1063 1.64252
8814 2 18.889 3.28504 2.46378
8815 2 18.0677 4.1063 2.46378
8839 2 16.4252 4.92756 1.64252
8840 2 17.2465 5.74882 1.64252
8841 2 17.2465 4.92756 2.46378
8842 2 16.4252 5.74882 2.46378
8843 2 18.889 5.74882 1.64252
8844 2 18.0677 5.74882 2.46378
91 4 20.5315 4.1063 0
92 4 19.7102 4.1063 0.82126
93 4 21.3528 4.1063 0.82126
125 4 20.5315 5.74882 0
126 4 20.5315 4.92756 0.82126
127 4 19.7102 5.74882 0.82126
128 4 21.3528 4.92756 0
129 4 22.174 4.92756 0.82126
605 4 19.7102 4.1063 2.46378
606 4 22.174 3.28504 2.46378
607 4 21.3528 4.1063 2.46378
633 4 19.7102 4.92756 1.64252
634 4 21.3528 5.74882 2.46378
8285 2 19.7102 3.28504 0
8286 2 22.174 4.1063 0
8287 2 22.174 3.28504 0.82126
8288 2 21.3528 4.1063 0.82126
8319 2 22.174 4.92756 0.82126
8320 2 21.3528 5.74882 0.82126
8816 2 19.7102 3.28504 1.64252
8817 2 20.5315 4.1063 1.64252
8818 2 20.5315 3.28504 2.46378
8819 2 19.7102 4.1063 2.46378
8820 2 22.174 3.28504 2.46378
8845 2 19.7102 5.74882 2.46378
8846 2 21.3528 5.74882 2.46378
94 4 22.9953 3.28504 0
95 4 24.6378 3.28504 0
96 4 25.4591 4.1063 0
97 4 24.6378 4.1063 0.82126
130 4 22.9953 4.92756 0
131 4 25.4591 5.74882 0
608 4 22.9953 4.1063 2.46378
609 4 24.6378 3.28504 1.64252
610 4 25.4591 4.1063 1.64252
635 4 23.8165 5.74882 1.64252
636 4 22.9953 5.74882 2.46378
637 4 24.6378 4.92756 1.64252
638 4 25.4591 4.92756 2.46378
639 4 24.6378 5.74882 2.46378
8289 2 22.9953 3.28504 0
8290 2 23.8165 4.1063 0
8291 2 22.9953 4.1063 0.82126
8292 2 24.6378 3.28504 0
8293 2 25.4591 4.1063 0
8294 2 24.6378 4.1063 0.82126
8321 2 22.9953 4.92756 0
8322 2 22.9953 5.74882 0.82126
8323 2 24.6378 4.92756 0
8324 2 25.4591 5.74882 0
8325 2 24.6378 5.74882 0.82126
8821 2 22.9953 4.1063 2.46378
8822 2 25.4591 4.1063 1.64252
8823 2 25.4591 3.28504 2.46378
8847 2 22.9953 4.92756 1.64252
8848 2 23.8165 5.74882 1.64252
8849 2 23.8165 4.92756 2.46378
8850 2 22.9953 5.74882 2.46378
8851 2 25.4591 5.74882 1.64252
132 4 0.82126 7.39134 0
133 4 2.46378 7.39134 0
160 4 0 8.2126 0
161 4 0.82126 9.03386 0
162 4 0.82126 8.2126 0.82126
163 4 0 9.03386 0.82126
164 4 1.64252 8.2126 0
165 4 2.46378 8.2126 0.82126
640 4 0.82126 7.39134 1.64252
641 4 0.82126 6.57008 2.46378
642 4 0 7.39134 2.46378
643 4 2.46378 6.57008 2.46378
672 4 0 8.2126 1.64252
673 4 0.82126 8.2126 2.46378
674 4 0 9.03386 2.46378
675 4 1.64252 8.2126 1.64252
676 4 2.46378 9.03386 1.64252
677 4 2.46378 8.2126 2.46378
678 4 1.64252 9.03386 2.46378
8326 2 0.82126 7.39134 0
8327 2 0.82126 6.57008 0.82126
8328 2 0 7.39134 0.82126
8329 2 1.64252 6.57008 0
8330 2 2.46378 7.39134 0
8331 2 2.46378 6.57008 0.82126
8332 2 1.64252 7.39134 0.82126
8366 2 0 8.2126 0
8367 2 0.82126 9.03386 0
8368 2 0.82126 8.2126 0.82126
8369 2 0 9.03386 0.82126
8370 2 1.64252 8.2126 0
8371 2 2.46378 9.03386 0
8372 2 2.46378 8.2126 0.82126
8373 2 1.64252 9.03386 0.82126
8852 2 0 6.57008 1.64252
8853 2 0.82126 7.39134 1.64252
8854 2 0.82126 6.57008 2.46378
8855 2 0 7.39134 2.46378
8856 2 1.64252 6.57008 1.64252
8857 2 2.46378 7.39134 1.64252
8858 2 2.46378 6.57008 2.46378
8859 2 1.64252 7.39134 2.46378
8880 2 0 8.2126 1.64252
8881 2 0.82126 8.2126 2.46378
8882 2 0 9.03386 2.46378
8883 2 1.64252 8.2126 1.64252
8884 2 2.46378 9.03386 1.64252
8885 2 2.46378 8.2126 2.46378
134 4 4.1063 6.57008 0.82126
135 4 4.92756 7.39134 0.82126
166 4 4.1063 9.03386 0
167 4 4.1063 8.2126 0.82126
168 4 3.28504 9.03386 0.82126
169 4 5.74882 8.2126 0.82126
170 4 4.92756 9.03386 0.82126
644 4 5.74882 6.57008 2.46378
645 4 4.92756 7.39134 2.46378
679 4 3.28504 8.2126 1.64252
680 4 4.1063 9.03386 1.64252
681 4 4.1063 8.2126 2.46378
682 4 4.92756 8.2126 1.64252
683 4 5.74882 9.03386 1.64252
684 4 4.92756 9.03386 2.46378
8333 2 3.28504 6.57008 0
8334 2 4.1063 7.39134 0
8335 2 3.28504 7.39134 0.82126
8336 2 5.74882 7.39134 0
8374 2 3.28504 8.2126 0
8375 2 4.1063 9.03386 0
8376 2 5.74882 9.03386 0
8377 2 5.74882 8.2126 0.82126
8860 2 4.1063 7.39134 1.64252
8861 2 3.28504 7.39134 2.46378
8862 2 4.92756 7.39134 2.46378
8886 2 3.28504 8.2126 1.64252
8887 2 4.1063 9.03386 1.64252
8888 2 5.74882 9.03386 1.64252
8889 2 4.92756 9.03386 2.46378
136 4 6.57008 7.39134 0.82126
137 4 8.2126 6.57008 0
138 4 9.03386 7.39134 0
171 4 6.57008 8.2126 0
172 4 7.39134 9.03386 0
173 4 7.39134 8.2126 0.82126
174 4 6.57008 9.03386 0.82126
175 4 8.2126 8.2126 0
176 4 8.2126 9.03386 0.82126
646 4 7.39134 6.57008 2.46378
647 4 6.57008 7.39134 2.46378
648 4 9.03386 6.57008 2.46378
649 4 8.2126 7.39134 2.46378
685 4 6.57008 8.2126 1.64252
686 4 7.39134 9.03386 1.64252
687 4 7.39134 8.2126 2.46378
688 4 8.2126 8.2126 1.64252
689 4 9.03386 9.03386 1.64252
690 4 9.03386 8.2126 2.46378
8337 2 7.39134 7.39134 0
8338 2 7.39134 6.57008 0.82126
8339 2 6.57008 7.39134 0.82126
8340 2 8.2126 6.57008 0
8341 2 9.03386 6.57008 0.82126
8342 2 8.2126 7.39134 0.82126
8378 2 6.57008 8.2126 0
8379 2 7.39134 9.03386 0
8380 2 7.39134 8.2126 0.82126
8381 2 6.57008 9.03386 0.82126
8382 2 9.03386 9.03386 0
8383 2 9.03386 8.2126 0.82126
8863 2 7.39134 7.39134 1.64252
8864 2 8.2126 6.57008 1.64252
8865 2 9.03386 6.57008 2.46378
8890 2 6.57008 8.2126 1.64252
8891 2 7.39134 9.03386 1.64252
8892 2 9.03386 9.03386 1.64252
8893 2 9.03386 8.2126 2.46378
139 4 9.85512 6.57008 0
140 4 10.6764 7.39134 0
141 4 12.3189 7.39134 0
142 4 11.4976 7.39134 0.82126
177 4 9.85512 8.2126 0
178 4 10.6764 9.03386 0
179 4 12.3189 9.03386 0
650 4 10.6764 6.57008 2.46378
651 4 9.85512 7.39134 2.46378
652 4 12.3189 7.39134 1.64252
653 4 11.4976 7.39134 2.46378
691 4 10.6764 9.03386 1.64252
692 4 10.6764 8.2126 2.46378
693 4 9.85512 9.03386 2.46378
8343 2 10.6764 7.39134 0
8344 2 10.6764 6.57008 0.82126
8345 2 9.85512 7.39134 0.82126
8346 2 11.4976 7.39134 0.82126
8384 2 10.6764 9.03386 0
8385 2 10.6764 8.2126 0.82126
8386 2 11.4976 8.2126 0
8387 2 12.3189 9.03386 0
8866 2 9.85512 6.57008 1.64252
8867 2 10.6764 7.39134 1.64252
8868 2 11.4976 6.57008 1.64252
8869 2 12.3189 7.39134 1.64252
8894 2 9.85512 8.2126 1.64252
8895 2 10.6764 9.03386 1.64252
8896 2 9.85512 9.03386 2.46378
8897 2 11.4976 8.2126 1.64252
143 4 13.9614 6.57008 0.82126
144 4 13.1402 7.39134 0.82126
145 4 15.6039 7.39134 0
146 4 15.6039 6.57008 0.82126
147 4 14.7827 7.39134 0.82126
180 4 14.7827 8.2126 0
181 4 15.6039 9.03386 0
182 4 14.7827 9.03386 0.82126
654 4 13.1402 6.57008 1.64252
655 4 13.9614 7.39134 1.64252
656 4 13.9614 6.57008 2.46378
657 4 14.7827 6.57008 1.64252
658 4 15.6039 7.39134 1.64252
694 4 13.9614 8.2126 2.46378
695 4 13.1402 9.03386 2.46378
696 4 15.6039 8.2126 2.46378
8347 2 13.9614 7.39134 0
8348 2 13.1402 7.39134 0.82126
8349 2 15.6039 6.57008 0.82126
8350 2 14.7827 7.39134 0.82126
8388 2 13.1402 9.03386 0.82126
8389 2 15.6039 9.03386 0
8390 2 15.6039 8.2126 0.82126
8870 2 13.9614 7.39134 1.64252
8871 2 15.6039 7.39134 1.64252
8872 2 15.6039 6.57008 2.46378
8873 2 14.7827 7.39134 2.46378
8898 2 13.9614 9.03386 1.64252
8899 2 15.6039 9.03386 1.64252
8900 2 15.6039 8.2126 2.46378
8901 2 14.7827 9.03386 2.46378
148 4 16.4252 6.57008 0
149 4 17.2465 7.39134 0
150 4 16.4252 7.39134 0.82126
151 4 18.889 7.39134 0
183 4 16.4252 8.2126 0
184 4 18.0677 8.2126 0
185 4 18.0677 9.03386 0.82126
659 4 17.2465 7.39134 1.64252
660 4 18.0677 6.57008 1.64252
661 4 18.889 7.39134 1.64252
697 4 16.4252 9.03386 2.46378
698 4 18.0677 8.2126 1.64252
699 4 18.889 9.03386 1.64252
700 4 18.0677 9.03386 2.46378
8351 2 17.2465 7.39134 0
8352 2 16.4252 7.39134 0.82126
8353 2 18.0677 6.57008 0
8354 2 18.889 6.57008 0.82126
8355 2 18.0677 7.39134 0.82126
8391 2 16.4252 8.2126 0
8392 2 17.2465 9.03386 0
8393 2 17.2465 8.2126 0.82126
8394 2 18.0677 9.03386 0.82126
8874 2 17.2465 7.39134 1.64252
8875 2 17.2465 6.57008 2.46378
8876 2 16.4252 7.39134 2.46378
8902 2 16.4252 8.2126 1.64252
8903 2 17.2465 9.03386 1.64252
8904 2 16.4252 9.03386 2.46378
8905 2 18.889 8.2126 2.46378
152 4 19.7102 6.57008 0
153 4 20.5315 7.39134 0
154 4 19.7102 7.39134 0.82126
155 4 21.3528 6.57008 0
156 4 22.174 6.57008 0.82126
157 4 21.3528 7.39134 0.82126
186 4 20.5315 8.2126 0.82126
187 4 22.174 9.03386 0
188 4 22.174 8.2126 0.82126
189 4 21.3528 9.03386 0.82126
662 4 19.7102 6.57008 1.64252
663 4 20.5315 7.39134 1.64252
664 4 21.3528 6.57008 1.64252
665 4 22.174 6.57008 2.46378
666 4 21.3528 7.39134 2.46378
701 4 19.7102 8.2126 1.64252
702 4 21.3528 8.2126 1.64252
703 4 22.174 9.03386 1.64252
704 4 22.174 8.2126 2.46378
8356 2 19.7102 6.57008 0
8357 2 20.5315 6.57008 0.82126
8358 2 19.7102 7.39134 0.82126
8359 2 22.174 6.57008 0.82126
8360 2 21.3528 7.39134 0.82126
8395 2 19.7102 8.2126 0
8396 2 20.5315 8.2126 0.82126
8397 2 19.7102 9.03386 0.82126
8398 2 21.3528 8.2126 0
8399 2 22.174 8.2126 0.82126
8400 2 21.3528 9.03386 0.82126
8877 2 20.5315 6.57008 2.46378
8878 2 21.3528 6.57008 1.64252
8906 2 19.7102 8.2126 1.64252
8907 2 20.5315 9.03386 1.64252
8908 2 20.5315 8.2126 2.46378
8909 2 21.3528 8.2126 1.64252
8910 2 22.174 9.03386 1.64252
8911 2 22.174 8.2126 2.46378
8912 2 21.3528 9.03386 2.46378
158 4 22.9953 6.57008 0
159 4 24.6378 7.39134 0.82126
190 4 23.8165 9.03386 0
191 4 25.4591 9.03386 0
192 4 25.4591 8.2126 0.82126
667 4 22.9953 6.57008 1.64252
668 4 23.8165 7.39134 1.64252
669 4 23.8165 6.57008 2.46378
670 4 25.4591 6.57008 2.46378
671 4 24.6378 7.39134 2.46378
705 4 22.9953 8.2126 1.64252
706 4 23.8165 9.03386 1.64252
707 4 23.8165 8.2126 2.46378
708 4 22.9953 9.03386 2.46378
709 4 24.6378 8.2126 1.64252
710 4 25.4591 9.03386 1.64252
8361 2 23.8165 7.39134 0
8362 2 24.6378 6.57008 0
8363 2 25.4591 7.39134 0
8364 2 25.4591 6.57008 0.82126
8365 2 24.6378 7.39134 0.82126
8401 2 22.9953 8.2126 0
8402 2 23.8165 9.03386 0
8403 2 25.4591 9.03386 0
8879 2 25.4591 6.57008 2.46378
8913 2 23.8165 9.03386 1.64252
8914 2 23.8165 8.2126 2.46378
8915 2 22.9953 9.03386 2.46378
8916 2 24.6378 8.2126 1.64252
8917 2 25.4591 8.2126 2.46378
193 4 0.82126 10.6764 0
194 4 0.82126 9.85512 0.82126
195 4 0 10.6764 0.82126
196 4 1.64252 9.85512 0
197 4 2.46378 10.6764 0
230 4 0 11.4976 0
231 4 0.82126 12.3189 0
232 4 0.82126 11.4976 0.82126
233 4 0 12.3189 0.82126
234 4 2.46378 12.3189 0
235 4 2.46378 11.4976 0.82126
236 4 1.64252 12.3189 0.82126
711 4 0 9.85512 1.64252
712 4 0.82126 10.6764 1.64252
713 4 1.64252 9.85512 1.64252
714 4 1.64252 10.6764 2.46378
747 4 0 11.4976 1.64252
748 4 0.82126 12.3189 1.64252
749 4 0.82126 11.4976 2.46378
750 4 1.64252 11.4976 1.64252
751 4 2.46378 11.4976 2.46378
8404 2 1.64252 9.85512 0
8405 2 1.64252 10.6764 0.82126
8431 2 0 11.4976 0
8432 2 0.82126 12.3189 0
8433 2 0.82126 11.4976 0.82126
8434 2 0 12.3189 0.82126
8435 2 2.46378 12.3189 0
8436 2 2.46378 11.4976 0.82126
8918 2 0 9.85512 1.64252
8919 2 0.82126 10.6764 1.64252
8920 2 1.64252 9.85512 1.64252
8921 2 2.46378 10.6764 1.64252
8922 2 2.46378 9.85512 2.46378
8952 2 0 11.4976 1.64252
8953 2 0.82126 12.3189 1.64252
8954 2 2.46378 12.3189 1.64252
8955 2 2.46378 11.4976 2.46378
198 4 3.28504 9.85512 0
199 4 4.1063 10.6764 0
200 4 4.1063 9.85512 0.82126
201 4 3.28504 10.6764 0.82126
202 4 4.92756 9.85512 0
203 4 5.74882 10.6764 0
204 4 5.74882 9.85512 0.82126
237 4 4.1063 11.4976 0.82126
238 4 3.28504 12.3189 0.82126
239 4 4.92756 11.4976 0
240 4 5.74882 11.4976 0.82126
241 4 4.92756 12.3189 0.82126
715 4 4.1063 10.6764 1.64252
716 4 4.1063 9.85512 2.46378
717 4 3.28504 10.6764 2.46378
718 4 4.92756 9.85512 1.64252
719 4 5.74882 10.6764 1.64252
720 4 4.92756 10.6764 2.46378
752 4 4.1063 12.3189 1.64252
753 4 5.74882 12.3189 1.64252
754 4 5.74882 11.4976 2.46378
8406 2 3.28504 9.85512 0
8407 2 4.1063 10.6764 0
8408 2 4.92756 9.85512 0
8409 2 4.92756 10.6764 0.82126
8437 2 3.28504 11.4976 0
8438 2 4.1063 12.3189 0
8439 2 4.1063 11.4976 0.82126
8440 2 3.28504 12.3189 0.82126
8923 2 3.28504 9.85512 1.64252
8924 2 4.1063 10.6764 1.64252
8925 2 4.1063 9.85512 2.46378
8926 2 4.92756 9.85512 1.64252
8927 2 5.74882 10.6764 1.64252
8956 2 3.28504 11.4976 1.64252
8957 2 4.1063 11.4976 2.46378
8958 2 5.74882 12.3189 1.64252
8959 2 5.74882 11.4976 2.46378
8960 2 4.92756 12.3189 2.46378
205 4 7.39134 10.6764 0
206 4 7.39134 9.85512 0.82126
207 4 9.03386 10.6764 0
208 4 8.2126 10.6764 0.82126
242 4 7.39134 12.3189 0
243 4 7.39134 11.4976 0.82126
244 4 6.57008 12.3189 0.82126
721 4 6.57008 9.85512 1.64252
722 4 6.57008 10.6764 2.46378
723 4 9.03386 10.6764 1.64252
724 4 9.03386 9.85512 2.46378
755 4 6.57008 11.4976 1.64252
756 4 7.39134 12.3189 1.64252
757 4 6.57008 12.3189 2.46378
758 4 8.2126 12.3189 2.46378
8410 2 6.57008 9.85512 0
8411 2 7.39134 10.6764 0
8412 2 6.57008 10.6764 0.82126
8413 2 8.2126 9.85512 0
8414 2 9.03386 9.85512 0.82126
8441 2 7.39134 11.4976 0.82126
8442 2 9.03386 12.3189 0
8443 2 9.03386 11.4976 0.82126
8928 2 6.57008 9.85512 1.64252
8929 2 7.39134 9.85512 2.46378
8930 2 9.03386 10.6764 1.64252
8931 2 9.03386 9.85512 2.46378
8961 2 6.57008 12.3189 2.46378
8962 2 8.2126 11.4976 1.64252
8963 2 9.03386 12.3189 1.64252
8964 2 8.2126 12.3189 2.46378
209 4 9.85512 9.85512 0
210 4 10.6764 10.6764 0
211 4 12.3189 10.6764 0
245 4 9.85512 11.4976 0
246 4 10.6764 11.4976 0.82126
247 4 12.3189 12.3189 0
248 4 12.3189 11.4976 0.82126
249 4 11.4976 12.3189 0.82126
725 4 10.6764 9.85512 2.46378
726 4 9.85512 10.6764 2.46378
727 4 12.3189 10.6764 1.64252
759 4 9.85512 11.4976 1.64252
760 4 9.85512 12.3189 2.46378
761 4 12.3189 11.4976 2.46378
762 4 11.4976 12.3189 2.46378
8415 2 10.6764 10.6764 0
8416 2 10.6764 9.85512 0.82126
8417 2 11.4976 9.85512 0
8418 2 12.3189 9.85512 0.82126
8444 2 10.6764 12.3189 0
8445 2 10.6764 11.4976 0.82126
8446 2 11.4976 11.4976 0
8932 2 9.85512 10.6764 2.46378
8933 2 11.4976 9.85512 1.64252
8934 2 12.3189 10.6764 1.64252
8935 2 11.4976 10.6764 2.46378
8965 2 11.4976 11.4976 1.64252
212 4 13.1402 9.85512 0
213 4 13.9614 10.6764 0
214 4 13.9614 9.85512 0.82126
215 4 13.1402 10.6764 0.82126
216 4 15.6039 10.6764 0
217 4 15.6039 9.85512 0.82126
250 4 13.1402 12.3189 0.82126
251 4 14.7827 11.4976 0
728 4 13.1402 9.85512 1.64252
729 4 13.9614 10.6764 1.64252
730 4 13.9614 9.85512 2.46378
731 4 14.7827 9.85512 1.64252
732 4 15.6039 9.85512 2.46378
733 4 14.7827 10.6764 2.46378
763 4 13.9614 11.4976 2.46378
764 4 13.1402 12.3189 2.46378
765 4 14.7827 11.4976 1.64252
766 4 15.6039 11.4976 2.46378
8419 2 13.1402 9.85512 0
8420 2 13.9614 9.85512 0.82126
8421 2 14.7827 9.85512 0
8422 2 15.6039 10.6764 0
8423 2 15.6039 9.85512 0.82126
8447 2 13.1402 11.4976 0
8448 2 13.9614 12.3189 0
8449 2 14.7827 11.4976 0
8450 2 15.6039 11.4976 0.82126
8936 2 13.9614 10.6764 1.64252
8937 2 14.7827 9.85512 1.64252
8938 2 15.6039 10.6764 1.64252
8939 2 15.6039 9.85512 2.46378
8940 2 14.7827 10.6764 2.46378
8966 2 13.1402 11.4976 1.64252
8967 2 13.9614 11.4976 2.46378
8968 2 14.7827 11.4976 1.64252
8969 2 15.6039 12.3189 1.64252
8970 2 14.7827 12.3189 2.46378
218 4 16.4252 9.85512 0
219 4 17.2465 9.85512 0.82126
220 4 18.0677 9.85512 0
221 4 18.889 10.6764 0
252 4 16.4252 11.4976 0
253 4 17.2465 11.4976 0.82126
254 4 18.889 12.3189 0
734 4 16.4252 9.85512 1.64252
735 4 17.2465 10.6764 1.64252
736 4 18.889 10.6764 1.64252
737 4 18.889 9.85512 2.46378
738 4 18.0677 10.6764 2.46378
767 4 17.2465 12.3189 1.64252
768 4 16.4252 12.3189 2.46378
769 4 18.0677 11.4976 1.64252
8424 2 16.4252 9.85512 0
8425 2 17.2465 10.6764 0
8426 2 18.889 10.6764 0
8427 2 18.0677 10.6764 0.82126
8451 2 16.4252 11.4976 0
8452 2 17.2465 12.3189 0
8453 2 17.2465 11.4976 0.82126
8454 2 18.0677 11.4976 0
8455 2 18.0677 12.3189 0.82126
8941 2 17.2465 10.6764 1.64252
8942 2 17.2465 9.85512 2.46378
8943 2 18.0677 9.85512 1.64252
8971 2 17.2465 12.3189 1.64252
8972 2 17.2465 11.4976 2.46378
8973 2 16.4252 12.3189 2.46378
8974 2 18.889 12.3189 1.64252
222 4 20.5315 10.6764 0
223 4 20.5315 9.85512 0.82126
224 4 21.3528 9.85512 0
225 4 21.3528 10.6764 0.82126
255 4 20.5315 12.3189 0
256 4 20.5315 11.4976 0.82126
257 4 21.3528 12.3189 0.82126
739 4 19.7102 9.85512 1.64252
740 4 20.5315 10.6764 1.64252
741 4 22.174 9.85512 2.46378
742 4 21.3528 10.6764 2.46378
770 4 20.5315 11.4976 2.46378
771 4 19.7102 12.3189 2.46378
772 4 21.3528 11.4976 1.64252
773 4 22.174 12.3189 1.64252
774 4 21.3528 12.3189 2.46378
8428 2 19.7102 10.6764 0.82126
8429 2 22.174 9.85512 0.82126
8456 2 19.7102 11.4976 0
8457 2 20.5315 12.3189 0
8458 2 19.7102 12.3189 0.82126
8459 2 22.174 12.3189 0
8944 2 20.5315 10.6764 1.64252
8945 2 20.5315 9.85512 2.46378
8946 2 19.7102 10.6764 2.46378
8947 2 21.3528 9.85512 1.64252
8948 2 22.174 9.85512 2.46378
8975 2 19.7102 12.3189 2.46378
8976 2 22.174 12.3189 1.64252
8977 2 22.174 11.4976 2.46378
226 4 22.9953 9.85512 0
227 4 23.8165 10.6764 0
228 4 22.9953 10.6764 0.82126
229 4 25.4591 10.6764 0
258 4 23.8165 12.3189 0
259 4 25.4591 11.4976 0.82126
743 4 23.8165 10.6764 1.64252
744 4 23.8165 9.85512 2.46378
745 4 25.4591 10.6764 1.64252
746 4 25.4591 9.85512 2.46378
775 4 23.8165 11.4976 2.46378
776 4 24.6378 11.4976 1.64252
777 4 25.4591 12.3189 1.64252
8430 2 23.8165 10.6764 0
8460 2 23.8165 12.3189 0
8461 2 22.9953 12.3189 0.82126
8462 2 25.4591 12.3189 0
8949 2 22.9953 9.85512 1.64252
8950 2 22.9953 10.6764 2.46378
8951 2 25.4591 9.85512 2.46378
8978 2 23.8165 11.4976 2.46378
8979 2 22.9953 12.3189 2.46378
8980 2 25.4591 12.3189 1.64252
260 4 0 13.1402 0
261 4 0.82126 13.9614 0
262 4 0 13.9614 0.82126
263 4 1.64252 13.1402 0
264 4 2.46378 13.9614 0
265 4 2.46378 13.1402 0.82126
266 4 1.64252 13.9614 0.82126
294 4 0.82126 15.6039 0
295 4 1.64252 14.7827 0
296 4 2.46378 15.6039 0
778 4 0 13.1402 1.64252
779 4 0.82126 13.9614 1.64252
780 4 0 13.9614 2.46378
781 4 1.64252 13.1402 1.64252
782 4 1.64252 13.9614 2.46378
811 4 1.64252 14.7827 1.64252
812 4 2.46378 15.6039 1.64252
813 4 1.64252 15.6039 2.46378
8463 2 0.82126 13.9614 0
8464 2 0.82126 13.1402 0.82126
8465 2 0 13.9614 0.82126
8466 2 1.64252 13.1402 0
8495 2 0 14.7827 0
8496 2 0.82126 15.6039 0
8497 2 2.46378 15.6039 0
8498 2 2.46378 14.7827 0.82126
8981 2 0 13.1402 1.64252
8982 2 0.82126 13.1402 2.46378
8983 2 0 13.9614 2.46378