ITEM: TIMESTEP
0
ITEM: NUMBER OF ATOMS
16384
ITEM: BOX BOUNDS pp pp pp
0.0000000000000000e+00 4.0072502146535797e+01
0.0000000000000000e+00 4.0072502146535797e+01
0.0000000000000000e+00 4.0072502146535797e+01
ITEM: ATOMS id type x y z
1 4 0 0 0
2 4 1.2622 1.2622 0
5 4 2.52441 1.2622 1.2622
32 4 1.2622 2.52441 1.2622
8193 2 0 0 0
8194 2 1.2622 1.2622 0
8195 2 1.2622 0 1.2622
8196 2 0 1.2622 1.2622
8226 2 0 2.52441 0
8730 2 1.2622 1.2622 2.52441
8760 2 2.52441 2.52441 2.52441
3 4 3.78661 1.2622 0
4 4 3.78661 0 1.2622
6 4 6.31102 0 1.2622
7 4 5.04882 1.2622 1.2622
34 4 3.78661 2.52441 1.2622
36 4 5.04882 2.52441 0
38 4 6.31102 2.52441 1.2622
558 4 5.04882 2.52441 2.52441
8197 2 3.78661 0 1.2622
8198 2 5.04882 0 0
8199 2 6.31102 1.2622 0
8228 2 3.78661 2.52441 1.2622
8229 2 5.04882 2.52441 0
8732 2 3.78661 1.2622 2.52441
8735 2 5.04882 0 2.52441
8 4 8.83543 1.2622 0
9 4 8.83543 0 1.2622
10 4 7.57323 1.2622 1.2622
41 4 8.83543 2.52441 1.2622
525 4 8.83543 1.2622 2.52441
561 4 7.57323 2.52441 2.52441
8200 2 8.83543 1.2622 0
11 4 10.0976 0 0
12 4 10.0976 1.2622 1.2622
43 4 10.0976 2.52441 0
528 4 10.0976 0 2.52441
565 4 12.622 2.52441 2.52441
8201 2 11.3598 0 1.2622
8203 2 12.622 1.2622 1.2622
8231 2 10.0976 2.52441 0
8232 2 11.3598 2.52441 1.2622
8740 2 10.0976 0 2.52441
13 4 15.1465 0 0
46 4 13.8843 2.52441 1.2622
48 4 15.1465 2.52441 0
50 4 16.4087 2.52441 1.2622
532 4 16.4087 1.2622 2.52441
568 4 15.1465 2.52441 2.52441
8202 2 13.8843 0 1.2622
8204 2 15.1465 0 0
8205 2 16.4087 1.2622 0
8206 2 15.1465 1.2622 1.2622
8235 2 16.4087 2.52441 1.2622
8743 2 15.1465 0 2.52441
8744 2 16.4087 1.2622 2.52441
8770 2 15.1465 2.52441 2.52441
14 4 17.6709 0 0
15 4 18.9331 0 1.2622
16 4 17.6709 1.2622 1.2622
534 4 17.6709 0 2.52441
8207 2 17.6709 0 0
8208 2 18.9331 0 1.2622
8236 2 17.6709 2.52441 0
8746 2 17.6709 0 2.52441
8773 2 17.6709 2.52441 2.52441
17 4 20.1953 0 0
18 4 21.4575 1.2622 0
19 4 21.4575 0 1.2622
53 4 20.1953 2.52441 0
55 4 21.4575 2.52441 1.2622
57 4 22.7197 2.52441 0
536 4 20.1953 0 2.52441
537 4 21.4575 1.2622 2.52441
571 4 20.1953 2.52441 2.52441
575 4 22.7197 2.52441 2.52441
8209 2 21.4575 1.2622 0
8212 2 22.7197 1.2622 1.2622
8238 2 20.1953 2.52441 0
8748 2 20.1953 0 2.52441
8778 2 22.7197 2.52441 2.52441
20 4 23.9819 1.2622 0
21 4 23.9819 0 1.2622
22 4 26.5063 1.2622 0
60 4 26.5063 2.52441 1.2622
540 4 25.2441 0 2.52441
8210 2 23.9819 1.2622 0
8211 2 23.9819 0 1.2622
8213 2 25.2441 0 0
8214 2 26.5063 0 1.2622
8215 2 25.2441 1.2622 1.2622
8240 2 23.9819 2.52441 1.2622
8242 2 26.5063 2.52441 1.2622
8750 2 23.9819 1.2622 2.52441
23 4 27.7685 0 0
24 4 29.0307 1.2622 0
62 4 29.0307 2.52441 1.2622
541 4 27.7685 0 2.52441
542 4 29.0307 1.2622 2.52441
8216 2 29.0307 1.2622 0
8217 2 27.7685 1.2622 1.2622
8243 2 27.7685 2.52441 0
8754 2 29.0307 1.2622 2.52441
25 4 31.5551 1.2622 0
63 4 30.2929 2.52441 0
65 4 31.5551 2.52441 1.2622
543 4 31.5551 1.2622 2.52441
546 4 32.8173 0 2.52441
583 4 32.8173 2.52441 2.52441
8218 2 30.2929 0 0
8219 2 31.5551 1.2622 0
8220 2 30.2929 1.2622 1.2622
8221 2 32.8173 0 0
8223 2 32.8173 1.2622 1.2622
8245 2 30.2929 2.52441 0
8246 2 31.5551 2.52441 1.2622
8247 2 32.8173 2.52441 0
8757 2 32.8173 0 2.52441
8783 2 30.2929 2.52441 2.52441
26 4 34.0795 1.2622 0
27 4 35.3417 0 0
28 4 36.6039 0 1.2622
29 4 35.3417 1.2622 1.2622
67 4 34.0795 2.52441 1.2622
68 4 35.3417 2.52441 0
547 4 34.0795 1.2622 2.52441
8222 2 34.0795 0 1.2622
8224 2 36.6039 0 1.2622
8249 2 34.0795 2.52441 1.2622
8251 2 35.3417 2.52441 0
8787 2 35.3417 2.52441 2.52441
30 4 37.8661 0 0
31 4 39.1283 1.2622 0
70 4 37.8661 2.52441 0
551 4 37.8661 0 2.52441
8225 2 37.8661 0 0
8252 2 37.8661 2.52441 0
8254 2 39.1283 2.52441 1.2622
8759 2 39.1283 1.2622 2.52441
33 4 0 3.78661 1.2622
35 4 2.52441 3.78661 1.2622
73 4 1.2622 5.04882 1.2622
75 4 2.52441 6.31102 1.2622
553 4 1.2622 3.78661 2.52441
587 4 0 5.04882 2.52441
588 4 1.2622 6.31102 2.52441
8227 2 1.2622 3.78661 0
8256 2 1.2622 5.04882 1.2622
8257 2 0 6.31102 1.2622
8258 2 2.52441 5.04882 0
8790 2 0 5.04882 2.52441
8793 2 2.52441 5.04882 2.52441
37 4 6.31102 3.78661 0
39 4 5.04882 3.78661 1.2622
74 4 3.78661 5.04882 1.2622
555 4 3.78661 3.78661 2.52441
590 4 3.78661 6.31102 2.52441
8230 2 6.31102 3.78661 0
8259 2 3.78661 6.31102 0
8260 2 5.04882 5.04882 0
8261 2 6.31102 5.04882 1.2622
8262 2 5.04882 6.31102 1.2622
8761 2 3.78661 3.78661 2.52441
8762 2 6.31102 3.78661 2.52441
8794 2 3.78661 6.31102 2.52441
40 4 8.83543 3.78661 0
42 4 7.57323 3.78661 1.2622
76 4 7.57323 5.04882 0
77 4 8.83543 5.04882 1.2622
562 4 8.83543 3.78661 2.52441
8263 2 7.57323 5.04882 0
8264 2 7.57323 6.31102 1.2622
8798 2 8.83543 6.31102 2.52441
44 4 11.3598 3.78661 0
45 4 10.0976 3.78661 1.2622
47 4 12.622 3.78661 1.2622
78 4 11.3598 5.04882 1.2622
563 4 11.3598 3.78661 2.52441
592 4 10.0976 5.04882 2.52441
594 4 12.622 5.04882 2.52441
8265 2 10.0976 5.04882 0
8266 2 11.3598 6.31102 0
8267 2 11.3598 5.04882 1.2622
8268 2 12.622 5.04882 0
8765 2 11.3598 3.78661 2.52441
49 4 16.4087 3.78661 0
51 4 15.1465 3.78661 1.2622
79 4 13.8843 6.31102 0
80 4 13.8843 5.04882 1.2622
81 4 15.1465 5.04882 0
82 4 16.4087 5.04882 1.2622
566 4 13.8843 3.78661 2.52441
569 4 16.4087 3.78661 2.52441
595 4 13.8843 6.31102 2.52441
596 4 15.1465 5.04882 2.52441
8233 2 13.8843 3.78661 0
8234 2 16.4087 3.78661 0
8269 2 13.8843 6.31102 0
8270 2 13.8843 5.04882 1.2622
8271 2 16.4087 6.31102 0
8272 2 15.1465 6.31102 1.2622
8768 2 13.8843 3.78661 2.52441
8771 2 16.4087 3.78661 2.52441
8801 2 13.8843 6.31102 2.52441
52 4 17.6709 3.78661 1.2622
83 4 17.6709 6.31102 1.2622
598 4 17.6709 5.04882 2.52441
599 4 18.9331 6.31102 2.52441
8237 2 17.6709 3.78661 1.2622
8273 2 17.6709 6.31102 1.2622
8804 2 17.6709 5.04882 2.52441
54 4 21.4575 3.78661 0
56 4 20.1953 3.78661 1.2622
59 4 22.7197 3.78661 1.2622
84 4 21.4575 5.04882 1.2622
86 4 22.7197 6.31102 1.2622
572 4 21.4575 3.78661 2.52441
601 4 21.4575 6.31102 2.52441
603 4 22.7197 5.04882 2.52441
8239 2 21.4575 3.78661 0
8241 2 22.7197 3.78661 1.2622
8274 2 20.1953 5.04882 0
8275 2 21.4575 6.31102 0
8276 2 20.1953 6.31102 1.2622
8277 2 22.7197 5.04882 0
8280 2 22.7197 6.31102 1.2622
8776 2 21.4575 3.78661 2.52441
8805 2 21.4575 6.31102 2.52441
58 4 23.9819 3.78661 0
61 4 25.2441 3.78661 1.2622
85 4 23.9819 6.31102 0
87 4 26.5063 5.04882 1.2622
88 4 25.2441 6.31102 1.2622
576 4 23.9819 3.78661 2.52441
8278 2 23.9819 6.31102 0
8279 2 23.9819 5.04882 1.2622
8281 2 25.2441 5.04882 0
8282 2 26.5063 6.31102 0
8283 2 26.5063 5.04882 1.2622
8809 2 26.5063 6.31102 2.52441
89 4 29.0307 5.04882 1.2622
90 4 27.7685 6.31102 1.2622
579 4 29.0307 3.78661 2.52441
604 4 27.7685 5.04882 2.52441
8244 2 29.0307 3.78661 0
8284 2 29.0307 6.31102 0
8812 2 27.7685 5.04882 2.52441
8813 2 29.0307 6.31102 2.52441
64 4 31.5551 3.78661 0
91 4 31.5551 6.31102 0
92 4 30.2929 6.31102 1.2622
93 4 32.8173 6.31102 1.2622
582 4 31.5551 3.78661 2.52441
8250 2 32.8173 3.78661 1.2622
8285 2 30.2929 5.04882 0
8288 2 32.8173 6.31102 1.2622
8784 2 31.5551 3.78661 2.52441
8816 2 30.2929 5.04882 2.52441
8817 2 31.5551 6.31102 2.52441
66 4 34.0795 3.78661 0
69 4 36.6039 3.78661 0
94 4 35.3417 5.04882 0
584 4 34.0795 3.78661 2.52441
8248 2 34.0795 3.78661 0
8286 2 34.0795 6.31102 0
8287 2 34.0795 5.04882 1.2622
8289 2 35.3417 5.04882 0
8290 2 36.6039 6.31102 0
8291 2 35.3417 6.31102 1.2622
71 4 39.1283 3.78661 0
72 4 37.8661 3.78661 1.2622
95 4 37.8661 5.04882 0
96 4 39.1283 6.31102 0
97 4 37.8661 6.31102 1.2622
586 4 39.1283 3.78661 2.52441
609 4 37.8661 5.04882 2.52441
610 4 39.1283 6.31102 2.52441
8253 2 39.1283 3.78661 0
8255 2 37.8661 3.78661 1.2622
8292 2 37.8661 5.04882 0
8293 2 39.1283 6.31102 0
8294 2 37.8661 6.31102 1.2622
8789 2 39.1283 3.78661 2.52441
8822 2 39.1283 6.31102 2.52441
98 4 1.2622 8.83543 0
99 4 1.2622 7.57323 1.2622
100 4 0 8.83543 1.2622
101 4 2.52441 7.57323 0
8295 2 0 7.57323 0
8296 2 2.52441 7.57323 0
8824 2 0 7.57323 2.52441
8825 2 1.2622 8.83543 2.52441
8826 2 2.52441 7.57323 2.52441
102 4 3.78661 8.83543 0
103 4 3.78661 7.57323 1.2622
104 4 5.04882 7.57323 0
105 4 6.31102 7.57323 1.2622
612 4 3.78661 8.83543 2.52441
613 4 5.04882 7.57323 2.52441
614 4 6.31102 8.83543 2.52441
8297 2 3.78661 8.83543 0
8298 2 3.78661 7.57323 1.2622
8299 2 5.04882 7.57323 0
8300 2 6.31102 8.83543 0
8827 2 5.04882 7.57323 2.52441
8828 2 6.31102 8.83543 2.52441
106 4 8.83543 8.83543 0
107 4 8.83543 7.57323 1.2622
616 4 8.83543 8.83543 2.52441
8301 2 7.57323 7.57323 0
8302 2 8.83543 8.83543 0
8303 2 7.57323 8.83543 1.2622
8829 2 8.83543 8.83543 2.52441
108 4 12.622 7.57323 0
618 4 12.622 7.57323 2.52441
8304 2 11.3598 8.83543 0
8305 2 11.3598 7.57323 1.2622
8831 2 10.0976 7.57323 2.52441
109 4 13.8843 8.83543 0
110 4 13.8843 7.57323 1.2622
111 4 15.1465 7.57323 0
112 4 16.4087 7.57323 1.2622
113 4 15.1465 8.83543 1.2622
620 4 16.4087 8.83543 2.52441
8306 2 13.8843 8.83543 0
8307 2 16.4087 8.83543 0
8308 2 15.1465 8.83543 1.2622
8833 2 16.4087 8.83543 2.52441
114 4 17.6709 7.57323 0
115 4 18.9331 8.83543 0
116 4 18.9331 7.57323 1.2622
117 4 17.6709 8.83543 1.2622
621 4 18.9331 8.83543 2.52441
8309 2 17.6709 7.57323 0
8310 2 18.9331 7.57323 1.2622
8311 2 17.6709 8.83543 1.2622
8834 2 18.9331 8.83543 2.52441
118 4 20.1953 8.83543 1.2622
119 4 22.7197 7.57323 0
122 4 22.7197 8.83543 1.2622
623 4 20.1953 7.57323 2.52441
624 4 21.4575 8.83543 2.52441
626 4 22.7197 7.57323 2.52441
8312 2 20.1953 7.57323 0
8313 2 21.4575 8.83543 0
8314 2 22.7197 7.57323 0
8835 2 20.1953 7.57323 2.52441
8836 2 21.4575 8.83543 2.52441
120 4 23.9819 8.83543 0
121 4 23.9819 7.57323 1.2622
123 4 25.2441 7.57323 0
124 4 26.5063 7.57323 1.2622
628 4 25.2441 7.57323 2.52441
629 4 26.5063 8.83543 2.52441
8315 2 23.9819 7.57323 1.2622
8316 2 25.2441 7.57323 0
8838 2 23.9819 8.83543 2.52441
8839 2 25.2441 7.57323 2.52441
8840 2 26.5063 8.83543 2.52441
8317 2 27.7685 7.57323 0
8318 2 27.7685 8.83543 1.2622
8843 2 29.0307 8.83543 2.52441
125 4 31.5551 8.83543 0
126 4 31.5551 7.57323 1.2622
127 4 30.2929 8.83543 1.2622
128 4 32.8173 7.57323 0
633 4 30.2929 7.57323 2.52441
8320 2 32.8173 8.83543 1.2622
129 4 34.0795 7.57323 1.2622
130 4 35.3417 7.57323 0
635 4 36.6039 8.83543 2.52441
8319 2 34.0795 7.57323 1.2622
8321 2 35.3417 7.57323 0
8322 2 35.3417 8.83543 1.2622
8847 2 35.3417 7.57323 2.52441
8848 2 36.6039 8.83543 2.52441
131 4 39.1283 8.83543 0
637 4 37.8661 7.57323 2.52441
8323 2 37.8661 7.57323 0
8324 2 39.1283 8.83543 0
8325 2 37.8661 8.83543 1.2622
8851 2 39.1283 8.83543 2.52441
132 4 1.2622 11.3598 0
160 4 0 12.622 0
162 4 1.2622 12.622 1.2622
164 4 2.52441 12.622 0
640 4 1.2622 11.3598 2.52441
672 4 0 12.622 2.52441
675 4 2.52441 12.622 2.52441
8326 2 1.2622 11.3598 0
8327 2 1.2622 10.0976 1.2622
8328 2 0 11.3598 1.2622
8329 2 2.52441 10.0976 0
8332 2 2.52441 11.3598 1.2622
8366 2 0 12.622 0
8368 2 1.2622 12.622 1.2622
8370 2 2.52441 12.622 0
8852 2 0 10.0976 2.52441
8853 2 1.2622 11.3598 2.52441
8856 2 2.52441 10.0976 2.52441
8880 2 0 12.622 2.52441
8883 2 2.52441 12.622 2.52441
133 4 3.78661 11.3598 0
134 4 6.31102 10.0976 1.2622
165 4 3.78661 12.622 1.2622
167 4 6.31102 12.622 1.2622
679 4 5.04882 12.622 2.52441
8330 2 3.78661 11.3598 0
8331 2 3.78661 10.0976 1.2622
8333 2 5.04882 10.0976 0
8334 2 6.31102 11.3598 0
8335 2 5.04882 11.3598 1.2622
8372 2 3.78661 12.622 1.2622
8374 2 5.04882 12.622 0
8857 2 3.78661 11.3598 2.52441
8860 2 6.31102 11.3598 2.52441
8886 2 5.04882 12.622 2.52441
135 4 7.57323 11.3598 1.2622
169 4 8.83543 12.622 1.2622
682 4 7.57323 12.622 2.52441
8336 2 8.83543 11.3598 0
8377 2 8.83543 12.622 1.2622
136 4 10.0976 11.3598 1.2622
137 4 12.622 10.0976 0
171 4 10.0976 12.622 0
173 4 11.3598 12.622 1.2622
175 4 12.622 12.622 0
685 4 10.0976 12.622 2.52441
688 4 12.622 12.622 2.52441
8337 2 11.3598 11.3598 0
8338 2 11.3598 10.0976 1.2622
8339 2 10.0976 11.3598 1.2622
8340 2 12.622 10.0976 0
8342 2 12.622 11.3598 1.2622
8378 2 10.0976 12.622 0
8380 2 11.3598 12.622 1.2622
8863 2 11.3598 11.3598 2.52441
8864 2 12.622 10.0976 2.52441
8890 2 10.0976 12.622 2.52441
138 4 13.8843 11.3598 0
139 4 15.1465 10.0976 0
140 4 16.4087 11.3598 0
177 4 15.1465 12.622 0
8341 2 13.8843 10.0976 1.2622
8343 2 16.4087 11.3598 0
8344 2 16.4087 10.0976 1.2622
8345 2 15.1465 11.3598 1.2622
8383 2 13.8843 12.622 1.2622
8385 2 16.4087 12.622 1.2622
8866 2 15.1465 10.0976 2.52441
8867 2 16.4087 11.3598 2.52441
8894 2 15.1465 12.622 2.52441
141 4 18.9331 11.3598 0
142 4 17.6709 11.3598 1.2622
652 4 18.9331 11.3598 2.52441
8346 2 17.6709 11.3598 1.2622
8386 2 17.6709 12.622 0
8868 2 17.6709 10.0976 2.52441
8869 2 18.9331 11.3598 2.52441
8897 2 17.6709 12.622 2.52441
143 4 21.4575 10.0976 1.2622
144 4 20.1953 11.3598 1.2622
147 4 22.7197 11.3598 1.2622
180 4 22.7197 12.622 0
654 4 20.1953 10.0976 2.52441
655 4 21.4575 11.3598 2.52441
657 4 22.7197 10.0976 2.52441
8347 2 21.4575 11.3598 0
8348 2 20.1953 11.3598 1.2622
8350 2 22.7197 11.3598 1.2622
8870 2 21.4575 11.3598 2.52441
145 4 23.9819 11.3598 0
146 4 23.9819 10.0976 1.2622
148 4 25.2441 10.0976 0
149 4 26.5063 11.3598 0
150 4 25.2441 11.3598 1.2622
183 4 25.2441 12.622 0
658 4 23.9819 11.3598 2.52441
659 4 26.5063 11.3598 2.52441
8349 2 23.9819 10.0976 1.2622
8351 2 26.5063 11.3598 0
8352 2 25.2441 11.3598 1.2622
8390 2 23.9819 12.622 1.2622
8391 2 25.2441 12.622 0
8393 2 26.5063 12.622 1.2622
8871 2 23.9819 11.3598 2.52441
8874 2 26.5063 11.3598 2.52441
8902 2 25.2441 12.622 2.52441
151 4 29.0307 11.3598 0
184 4 27.7685 12.622 0
660 4 27.7685 10.0976 2.52441
661 4 29.0307 11.3598 2.52441
698 4 27.7685 12.622 2.52441
8353 2 27.7685 10.0976 0
8354 2 29.0307 10.0976 1.2622
8355 2 27.7685 11.3598 1.2622
152 4 30.2929 10.0976 0
153 4 31.5551 11.3598 0
154 4 30.2929 11.3598 1.2622
155 4 32.8173 10.0976 0
157 4 32.8173 11.3598 1.2622
186 4 31.5551 12.622 1.2622
662 4 30.2929 10.0976 2.52441
663 4 31.5551 11.3598 2.52441
664 4 32.8173 10.0976 2.52441
701 4 30.2929 12.622 2.52441
702 4 32.8173 12.622 2.52441
8356 2 30.2929 10.0976 0
8357 2 31.5551 10.0976 1.2622
8358 2 30.2929 11.3598 1.2622
8360 2 32.8173 11.3598 1.2622
8395 2 30.2929 12.622 0
8396 2 31.5551 12.622 1.2622
8398 2 32.8173 12.622 0
8878 2 32.8173 10.0976 2.52441
8906 2 30.2929 12.622 2.52441
8909 2 32.8173 12.622 2.52441
156 4 34.0795 10.0976 1.2622
158 4 35.3417 10.0976 0
188 4 34.0795 12.622 1.2622
667 4 35.3417 10.0976 2.52441
668 4 36.6039 11.3598 2.52441
705 4 35.3417 12.622 2.52441
8359 2 34.0795 10.0976 1.2622
8361 2 36.6039 11.3598 0
8399 2 34.0795 12.622 1.2622
8401 2 35.3417 12.622 0
159 4 37.8661 11.3598 1.2622
192 4 39.1283 12.622 1.2622
709 4 37.8661 12.622 2.52441
8362 2 37.8661 10.0976 0
8363 2 39.1283 11.3598 0
8364 2 39.1283 10.0976 1.2622
8365 2 37.8661 11.3598 1.2622
8916 2 37.8661 12.622 2.52441
161 4 1.2622 13.8843 0
163 4 0 13.8843 1.2622
193 4 1.2622 16.4087 0
194 4 1.2622 15.1465 1.2622
195 4 0 16.4087 1.2622
196 4 2.52441 15.1465 0
711 4 0 15.1465 2.52441
712 4 1.2622 16.4087 2.52441
713 4 2.52441 15.1465 2.52441
8367 2 1.2622 13.8843 0
8369 2 0 13.8843 1.2622
8373 2 2.52441 13.8843 1.2622
8404 2 2.52441 15.1465 0
8405 2 2.52441 16.4087 1.2622
8918 2 0 15.1465 2.52441
8919 2 1.2622 16.4087 2.52441
8920 2 2.52441 15.1465 2.52441
166 4 6.31102 13.8843 0
168 4 5.04882 13.8843 1.2622
197 4 3.78661 16.4087 0
198 4 5.04882 15.1465 0
199 4 6.31102 16.4087 0
200 4 6.31102 15.1465 1.2622
201 4 5.04882 16.4087 1.2622
676 4 3.78661 13.8843 2.52441
680 4 6.31102 13.8843 2.52441
715 4 6.31102 16.4087 2.52441
8371 2 3.78661 13.8843 0
8375 2 6.31102 13.8843 0
8406 2 5.04882 15.1465 0
8407 2 6.31102 16.4087 0
8884 2 3.78661 13.8843 2.52441
8887 2 6.31102 13.8843 2.52441
8921 2 3.78661 16.4087 2.52441
8923 2 5.04882 15.1465 2.52441
8924 2 6.31102 16.4087 2.52441
170 4 7.57323 13.8843 1.2622
202 4 7.57323 15.1465 0
203 4 8.83543 16.4087 0
204 4 8.83543 15.1465 1.2622
683 4 8.83543 13.8843 2.52441
718 4 7.57323 15.1465 2.52441
719 4 8.83543 16.4087 2.52441
8376 2 8.83543 13.8843 0
8408 2 7.57323 15.1465 0
8409 2 7.57323 16.4087 1.2622
8888 2 8.83543 13.8843 2.52441
8926 2 7.57323 15.1465 2.52441
8927 2 8.83543 16.4087 2.52441
172 4 11.3598 13.8843 0
174 4 10.0976 13.8843 1.2622
176 4 12.622 13.8843 1.2622
205 4 11.3598 16.4087 0
206 4 11.3598 15.1465 1.2622
208 4 12.622 16.4087 1.2622
686 4 11.3598 13.8843 2.52441
721 4 10.0976 15.1465 2.52441
8379 2 11.3598 13.8843 0
8381 2 10.0976 13.8843 1.2622
8410 2 10.0976 15.1465 0
8411 2 11.3598 16.4087 0
8412 2 10.0976 16.4087 1.2622
8413 2 12.622 15.1465 0
8891 2 11.3598 13.8843 2.52441
8928 2 10.0976 15.1465 2.52441
178 4 16.4087 13.8843 0
207 4 13.8843 16.4087 0
209 4 15.1465 15.1465 0
210 4 16.4087 16.4087 0
689 4 13.8843 13.8843 2.52441
691 4 16.4087 13.8843 2.52441
723 4 13.8843 16.4087 2.52441
8382 2 13.8843 13.8843 0
8384 2 16.4087 13.8843 0
8414 2 13.8843 15.1465 1.2622
8415 2 16.4087 16.4087 0
8416 2 16.4087 15.1465 1.2622
8892 2 13.8843 13.8843 2.52441
8895 2 16.4087 13.8843 2.52441
8930 2 13.8843 16.4087 2.52441
179 4 18.9331 13.8843 0
211 4 18.9331 16.4087 0
727 4 18.9331 16.4087 2.52441
8387 2 18.9331 13.8843 0
8417 2 17.6709 15.1465 0
8418 2 18.9331 15.1465 1.2622
8933 2 17.6709 15.1465 2.52441
8934 2 18.9331 16.4087 2.52441
182 4 22.7197 13.8843 1.2622
212 4 20.1953 15.1465 0
213 4 21.4575 16.4087 0
214 4 21.4575 15.1465 1.2622
215 4 20.1953 16.4087 1.2622
728 4 20.1953 15.1465 2.52441
729 4 21.4575 16.4087 2.52441
731 4 22.7197 15.1465 2.52441
8388 2 20.1953 13.8843 1.2622
8419 2 20.1953 15.1465 0
8420 2 21.4575 15.1465 1.2622
8421 2 22.7197 15.1465 0
8898 2 21.4575 13.8843 2.52441
8936 2 21.4575 16.4087 2.52441
8937 2 22.7197 15.1465 2.52441
181 4 23.9819 13.8843 0
216 4 23.9819 16.4087 0
217 4 23.9819 15.1465 1.2622
218 4 25.2441 15.1465 0
219 4 26.5063 15.1465 1.2622
734 4 25.2441 15.1465 2.52441
735 4 26.5063 16.4087 2.52441
8389 2 23.9819 13.8843 0
8392 2 26.5063 13.8843 0
8422 2 23.9819 16.4087 0
8423 2 23.9819 15.1465 1.2622
8424 2 25.2441 15.1465 0
8425 2 26.5063 16.4087 0
8899 2 23.9819 13.8843 2.52441
8903 2 26.5063 13.8843 2.52441
8938 2 23.9819 16.4087 2.52441
8941 2 26.5063 16.4087 2.52441
185 4 27.7685 13.8843 1.2622
220 4 27.7685 15.1465 0
221 4 29.0307 16.4087 0
699 4 29.0307 13.8843 2.52441
736 4 29.0307 16.4087 2.52441
8394 2 27.7685 13.8843 1.2622
8426 2 29.0307 16.4087 0
8427 2 27.7685 16.4087 1.2622
8943 2 27.7685 15.1465 2.52441
189 4 32.8173 13.8843 1.2622
222 4 31.5551 16.4087 0
223 4 31.5551 15.1465 1.2622
224 4 32.8173 15.1465 0
225 4 32.8173 16.4087 1.2622
739 4 30.2929 15.1465 2.52441
740 4 31.5551 16.4087 2.52441
8397 2 30.2929 13.8843 1.2622
8400 2 32.8173 13.8843 1.2622
8428 2 30.2929 16.4087 1.2622
8907 2 31.5551 13.8843 2.52441
8944 2 31.5551 16.4087 2.52441
8947 2 32.8173 15.1465 2.52441
187 4 34.0795 13.8843 0
190 4 36.6039 13.8843 0
226 4 35.3417 15.1465 0
227 4 36.6039 16.4087 0
228 4 35.3417 16.4087 1.2622
703 4 34.0795 13.8843 2.52441
706 4 36.6039 13.8843 2.52441
743 4 36.6039 16.4087 2.52441
8402 2 36.6039 13.8843 0
8429 2 34.0795 15.1465 1.2622
8430 2 36.6039 16.4087 0
8910 2 34.0795 13.8843 2.52441
8913 2 36.6039 13.8843 2.52441
8949 2 35.3417 15.1465 2.52441
191 4 39.1283 13.8843 0
229 4 39.1283 16.4087 0
710 4 39.1283 13.8843 2.52441
745 4 39.1283 16.4087 2.52441
8403 2 39.1283 13.8843 0
230 4 0 17.6709 0
231 4 1.2622 18.9331 0
232 4 1.2622 17.6709 1.2622
233 4 0 18.9331 1.2622
236 4 2.52441 18.9331 1.2622
747 4 0 17.6709 2.52441
748 4 1.2622 18.9331 2.52441
750 4 2.52441 17.6709 2.52441
8431 2 0 17.6709 0
8432 2 1.2622 18.9331 0
8433 2 1.2622 17.6709 1.2622
8434 2 0 18.9331 1.2622
8952 2 0 17.6709 2.52441
8953 2 1.2622 18.9331 2.52441
234 4 3.78661 18.9331 0
235 4 3.78661 17.6709 1.2622
237 4 6.31102 17.6709 1.2622
238 4 5.04882 18.9331 1.2622
752 4 6.31102 18.9331 2.52441
8435 2 3.78661 18.9331 0
8436 2 3.78661 17.6709 1.2622
8437 2 5.04882 17.6709 0
8438 2 6.31102 18.9331 0
8439 2 6.31102 17.6709 1.2622
8440 2 5.04882 18.9331 1.2622
8954 2 3.78661 18.9331 2.52441
8956 2 5.04882 17.6709 2.52441
239 4 7.57323 17.6709 0
240 4 8.83543 17.6709 1.2622
241 4 7.57323 18.9331 1.2622
753 4 8.83543 18.9331 2.52441
8958 2 8.83543 18.9331 2.52441
242 4 11.3598 18.9331 0
243 4 11.3598 17.6709 1.2622
244 4 10.0976 18.9331 1.2622
755 4 10.0976 17.6709 2.52441
756 4 11.3598 18.9331 2.52441
8441 2 11.3598 17.6709 1.2622
8962 2 12.622 17.6709 2.52441
245 4 15.1465 17.6709 0
246 4 16.4087 17.6709 1.2622
759 4 15.1465 17.6709 2.52441
8442 2 13.8843 18.9331 0
8443 2 13.8843 17.6709 1.2622
8444 2 16.4087 18.9331 0
8445 2 16.4087 17.6709 1.2622
8963 2 13.8843 18.9331 2.52441
247 4 18.9331 18.9331 0
248 4 18.9331 17.6709 1.2622
249 4 17.6709 18.9331 1.2622
8446 2 17.6709 17.6709 0
8965 2 17.6709 17.6709 2.52441
250 4 20.1953 18.9331 1.2622
251 4 22.7197 17.6709 0
765 4 22.7197 17.6709 2.52441
8447 2 20.1953 17.6709 0
8448 2 21.4575 18.9331 0
8449 2 22.7197 17.6709 0
8966 2 20.1953 17.6709 2.52441
8968 2 22.7197 17.6709 2.52441
252 4 25.2441 17.6709 0
253 4 26.5063 17.6709 1.2622
767 4 26.5063 18.9331 2.52441
8450 2 23.9819 17.6709 1.2622
8451 2 25.2441 17.6709 0
8452 2 26.5063 18.9331 0
8453 2 26.5063 17.6709 1.2622
8969 2 23.9819 18.9331 2.52441
8971 2 26.5063 18.9331 2.52441
254 4 29.0307 18.9331 0
769 4 27.7685 17.6709 2.52441
8454 2 27.7685 17.6709 0
8455 2 27.7685 18.9331 1.2622
8974 2 29.0307 18.9331 2.52441
255 4 31.5551 18.9331 0
256 4 31.5551 17.6709 1.2622
257 4 32.8173 18.9331 1.2622
772 4 32.8173 17.6709 2.52441
8456 2 30.2929 17.6709 0
8457 2 31.5551 18.9331 0
8458 2 30.2929 18.9331 1.2622
258 4 36.6039 18.9331 0
773 4 34.0795 18.9331 2.52441
8459 2 34.0795 18.9331 0
8460 2 36.6039 18.9331 0
8461 2 35.3417 18.9331 1.2622
8976 2 34.0795 18.9331 2.52441
259 4 39.1283 17.6709 1.2622
776 4 37.8661 17.6709 2.52441
777 4 39.1283 18.9331 2.52441
8462 2 39.1283 18.9331 0
8980 2 39.1283 18.9331 2.52441
260 4 0 20.1953 0
261 4 1.2622 21.4575 0
262 4 0 21.4575 1.2622
263 4 2.52441 20.1953 0
266 4 2.52441 21.4575 1.2622
295 4 2.52441 22.7197 0
778 4 0 20.1953 2.52441
779 4 1.2622 21.4575 2.52441
781 4 2.52441 20.1953 2.52441
811 4 2.52441 22.7197 2.52441
8463 2 1.2622 21.4575 0
8464 2 1.2622 20.1953 1.2622
8465 2 0 21.4575 1.2622
8466 2 2.52441 20.1953 0
8495 2 0 22.7197 0
8981 2 0 20.1953 2.52441
8984 2 2.52441 20.1953 2.52441
9014 2 0 22.7197 2.52441
264 4 3.78661 21.4575 0
265 4 3.78661 20.1953 1.2622
267 4 5.04882 20.1953 0
268 4 6.31102 20.1953 1.2622
297 4 6.31102 22.7197 1.2622
814 4 5.04882 22.7197 2.52441
8467 2 5.04882 20.1953 0
8468 2 6.31102 21.4575 0
8469 2 6.31102 20.1953 1.2622
8498 2 3.78661 22.7197 1.2622
8499 2 5.04882 22.7197 0
8985 2 3.78661 21.4575 2.52441
8986 2 5.04882 20.1953 2.52441
8987 2 6.31102 21.4575 2.52441
269 4 7.57323 20.1953 0
270 4 8.83543 21.4575 0
271 4 7.57323 21.4575 1.2622
299 4 8.83543 22.7197 1.2622
817 4 7.57323 22.7197 2.52441
8470 2 7.57323 20.1953 0
8502 2 8.83543 22.7197 1.2622
8990 2 8.83543 21.4575 2.52441
272 4 10.0976 21.4575 1.2622
275 4 12.622 21.4575 1.2622
301 4 10.0976 22.7197 0
302 4 11.3598 22.7197 1.2622
785 4 10.0976 20.1953 2.52441
786 4 11.3598 21.4575 2.52441
788 4 12.622 20.1953 2.52441
819 4 12.622 22.7197 2.52441
8471 2 11.3598 20.1953 1.2622
8472 2 10.0976 21.4575 1.2622
8504 2 10.0976 22.7197 0
8506 2 11.3598 22.7197 1.2622
8508 2 12.622 22.7197 0
8992 2 10.0976 20.1953 2.52441
9019 2 10.0976 22.7197 2.52441
273 4 13.8843 21.4575 0
274 4 13.8843 20.1953 1.2622
276 4 16.4087 20.1953 1.2622
277 4 15.1465 21.4575 1.2622
306 4 16.4087 22.7197 1.2622
789 4 16.4087 21.4575 2.52441
823 4 15.1465 22.7197 2.52441
8473 2 13.8843 21.4575 0
8474 2 15.1465 20.1953 0
8510 2 15.1465 22.7197 0
8994 2 13.8843 21.4575 2.52441
278 4 17.6709 20.1953 0
279 4 17.6709 21.4575 1.2622
792 4 17.6709 20.1953 2.52441
825 4 17.6709 22.7197 2.52441
8513 2 17.6709 22.7197 0
8997 2 17.6709 20.1953 2.52441
8998 2 18.9331 21.4575 2.52441
9023 2 17.6709 22.7197 2.52441
280 4 20.1953 20.1953 0
281 4 21.4575 20.1953 1.2622
282 4 22.7197 20.1953 0
308 4 20.1953 22.7197 0
793 4 20.1953 20.1953 2.52441
828 4 22.7197 22.7197 2.52441
8475 2 20.1953 20.1953 0
8476 2 21.4575 21.4575 0
8477 2 21.4575 20.1953 1.2622
8478 2 22.7197 20.1953 0
8515 2 21.4575 22.7197 1.2622
9000 2 22.7197 20.1953 2.52441
9027 2 20.1953 22.7197 2.52441
283 4 23.9819 21.4575 0
284 4 23.9819 20.1953 1.2622
285 4 25.2441 21.4575 1.2622
311 4 26.5063 22.7197 1.2622
797 4 25.2441 20.1953 2.52441
830 4 25.2441 22.7197 2.52441
8479 2 23.9819 21.4575 0
8480 2 25.2441 20.1953 0
8481 2 26.5063 21.4575 0
8482 2 26.5063 20.1953 1.2622
8483 2 25.2441 21.4575 1.2622
8519 2 25.2441 22.7197 0
8520 2 26.5063 22.7197 1.2622
9003 2 25.2441 20.1953 2.52441
9030 2 25.2441 22.7197 2.52441
286 4 27.7685 20.1953 0
287 4 29.0307 21.4575 0
798 4 27.7685 20.1953 2.52441
799 4 29.0307 21.4575 2.52441
832 4 27.7685 22.7197 2.52441
8484 2 29.0307 20.1953 1.2622
8485 2 27.7685 21.4575 1.2622
9005 2 29.0307 21.4575 2.52441
288 4 31.5551 21.4575 0
289 4 31.5551 20.1953 1.2622
290 4 30.2929 21.4575 1.2622
314 4 30.2929 22.7197 0
316 4 32.8173 22.7197 0
801 4 31.5551 21.4575 2.52441
837 4 32.8173 22.7197 2.52441
8486 2 31.5551 21.4575 0
8487 2 31.5551 20.1953 1.2622
8490 2 32.8173 21.4575 1.2622
8523 2 30.2929 22.7197 0
9007 2 30.2929 20.1953 2.52441
9008 2 31.5551 21.4575 2.52441
9035 2 30.2929 22.7197 2.52441
9038 2 32.8173 22.7197 2.52441
291 4 36.6039 20.1953 1.2622
318 4 34.0795 22.7197 1.2622
320 4 35.3417 22.7197 0
803 4 34.0795 21.4575 2.52441
806 4 36.6039 21.4575 2.52441
8488 2 34.0795 21.4575 0
8489 2 34.0795 20.1953 1.2622
8491 2 35.3417 20.1953 0
8492 2 36.6039 21.4575 0
8525 2 35.3417 22.7197 0
8526 2 36.6039 22.7197 1.2622
9009 2 34.0795 21.4575 2.52441
9011 2 35.3417 20.1953 2.52441
292 4 39.1283 20.1953 1.2622
293 4 37.8661 21.4575 1.2622
808 4 37.8661 20.1953 2.52441
809 4 39.1283 21.4575 2.52441
8493 2 39.1283 20.1953 1.2622
8494 2 37.8661 21.4575 1.2622
9042 2 37.8661 22.7197 2.52441
294 4 1.2622 23.9819 0
322 4 1.2622 26.5063 0
323 4 1.2622 25.2441 1.2622
324 4 2.52441 25.2441 0
843 4 0 25.2441 2.52441
844 4 1.2622 26.5063 2.52441
846 4 2.52441 25.2441 2.52441
8496 2 1.2622 23.9819 0
8528 2 0 25.2441 0
8529 2 0 26.5063 1.2622
8531 2 2.52441 26.5063 1.2622
9045 2 1.2622 26.5063 2.52441
296 4 3.78661 23.9819 0
325 4 3.78661 25.2441 1.2622
326 4 6.31102 25.2441 1.2622
327 4 5.04882 26.5063 1.2622
812 4 3.78661 23.9819 2.52441
849 4 6.31102 26.5063 2.52441
8497 2 3.78661 23.9819 0
8500 2 5.04882 23.9819 1.2622
8530 2 3.78661 26.5063 0
8532 2 5.04882 25.2441 0
8533 2 6.31102 26.5063 0
9015 2 3.78661 23.9819 2.52441
9046 2 3.78661 26.5063 2.52441
9049 2 5.04882 25.2441 2.52441
9050 2 6.31102 26.5063 2.52441
298 4 8.83543 23.9819 0
300 4 7.57323 23.9819 1.2622
328 4 8.83543 25.2441 1.2622
851 4 8.83543 26.5063 2.52441
8501 2 8.83543 23.9819 0
8503 2 7.57323 23.9819 1.2622
8534 2 8.83543 26.5063 0
9018 2 8.83543 23.9819 2.52441
9053 2 7.57323 25.2441 2.52441
304 4 12.622 23.9819 1.2622
329 4 10.0976 25.2441 0
330 4 11.3598 26.5063 0
331 4 10.0976 26.5063 1.2622
332 4 12.622 25.2441 0
852 4 10.0976 25.2441 2.52441
853 4 11.3598 26.5063 2.52441
856 4 12.622 25.2441 2.52441
8505 2 11.3598 23.9819 0
8507 2 10.0976 23.9819 1.2622
8535 2 11.3598 26.5063 0
8536 2 11.3598 25.2441 1.2622
8537 2 12.622 25.2441 0
8539 2 12.622 26.5063 1.2622
9020 2 11.3598 23.9819 2.52441
9055 2 10.0976 25.2441 2.52441
9056 2 11.3598 26.5063 2.52441
303 4 13.8843 23.9819 0
305 4 16.4087 23.9819 0
333 4 13.8843 26.5063 0
334 4 15.1465 25.2441 0
335 4 16.4087 26.5063 0
336 4 15.1465 26.5063 1.2622
820 4 13.8843 23.9819 2.52441
857 4 13.8843 26.5063 2.52441
8509 2 13.8843 23.9819 0
8511 2 16.4087 23.9819 0
8512 2 15.1465 23.9819 1.2622
8538 2 13.8843 25.2441 1.2622
8540 2 15.1465 25.2441 0
8541 2 16.4087 26.5063 0
8542 2 16.4087 25.2441 1.2622
8543 2 15.1465 26.5063 1.2622
9057 2 13.8843 26.5063 2.52441
9060 2 16.4087 26.5063 2.52441
307 4 18.9331 23.9819 0
337 4 18.9331 26.5063 0
338 4 18.9331 25.2441 1.2622
826 4 18.9331 23.9819 2.52441
860 4 17.6709 25.2441 2.52441
861 4 18.9331 26.5063 2.52441
8544 2 18.9331 26.5063 0
8545 2 18.9331 25.2441 1.2622
9024 2 18.9331 23.9819 2.52441
9063 2 17.6709 25.2441 2.52441
309 4 21.4575 23.9819 0
339 4 20.1953 25.2441 0
340 4 21.4575 26.5063 0
341 4 21.4575 25.2441 1.2622
342 4 20.1953 26.5063 1.2622
343 4 22.7197 25.2441 0
8514 2 21.4575 23.9819 0
8516 2 20.1953 23.9819 1.2622
8518 2 22.7197 23.9819 1.2622
8546 2 20.1953 25.2441 0
8547 2 21.4575 26.5063 0
8548 2 21.4575 25.2441 1.2622
8549 2 20.1953 26.5063 1.2622
8551 2 22.7197 26.5063 1.2622
9028 2 21.4575 23.9819 2.52441
310 4 26.5063 23.9819 0
312 4 25.2441 23.9819 1.2622
344 4 23.9819 26.5063 0
345 4 23.9819 25.2441 1.2622
346 4 25.2441 25.2441 0
865 4 23.9819 26.5063 2.52441
866 4 25.2441 25.2441 2.52441
867 4 26.5063 26.5063 2.52441
8517 2 23.9819 23.9819 0
8521 2 25.2441 23.9819 1.2622
8550 2 23.9819 25.2441 1.2622
8552 2 26.5063 25.2441 1.2622
8553 2 25.2441 26.5063 1.2622
9031 2 26.5063 23.9819 2.52441
9066 2 23.9819 26.5063 2.52441
313 4 29.0307 23.9819 0
347 4 27.7685 25.2441 0
833 4 29.0307 23.9819 2.52441
870 4 27.7685 25.2441 2.52441
871 4 29.0307 26.5063 2.52441
8522 2 29.0307 23.9819 0
9069 2 27.7685 25.2441 2.52441
9070 2 29.0307 26.5063 2.52441
315 4 31.5551 23.9819 0
319 4 32.8173 23.9819 1.2622
348 4 30.2929 25.2441 0
349 4 31.5551 25.2441 1.2622
350 4 30.2929 26.5063 1.2622
834 4 31.5551 23.9819 2.52441
8554 2 31.5551 26.5063 0
8555 2 30.2929 26.5063 1.2622
8556 2 32.8173 25.2441 0
9073 2 31.5551 26.5063 2.52441
9076 2 32.8173 25.2441 2.52441
317 4 34.0795 23.9819 0
351 4 34.0795 26.5063 0
352 4 35.3417 25.2441 0
353 4 36.6039 26.5063 0
354 4 36.6039 25.2441 1.2622
838 4 34.0795 23.9819 2.52441
8524 2 34.0795 23.9819 0
8557 2 34.0795 25.2441 1.2622
8558 2 36.6039 26.5063 0
9040 2 36.6039 23.9819 2.52441
9077 2 34.0795 26.5063 2.52441
9079 2 36.6039 26.5063 2.52441
321 4 39.1283 23.9819 0
355 4 39.1283 26.5063 0
356 4 37.8661 26.5063 1.2622
841 4 39.1283 23.9819 2.52441
874 4 37.8661 25.2441 2.52441
8527 2 39.1283 23.9819 0
8559 2 39.1283 26.5063 0
8560 2 37.8661 26.5063 1.2622
9043 2 39.1283 23.9819 2.52441
9080 2 37.8661 25.2441 2.52441
357 4 0 27.7685 0
358 4 1.2622 29.0307 0
359 4 1.2622 27.7685 1.2622