ITEM: TIMESTEP
0
ITEM: NUMBER OF ATOMS
16384
ITEM: BOX BOUNDS pp pp pp
0.0000000000000000e+00 2.4673462020356101e+01
0.0000000000000000e+00 2.4673462020356101e+01
0.0000000000000000e+00 2.4673462020356101e+01
ITEM: ATOMS id type x y z
1 4 0 0 0
2 4 0.777165 0.777165 0
3 4 2.3315 0.777165 0
4 4 2.3315 0 0.777165
5 4 1.55433 0.777165 0.777165
7 4 3.10866 0.777165 0.777165
32 4 0.777165 1.55433 0.777165
33 4 0 2.3315 0.777165
34 4 2.3315 1.55433 0.777165
35 4 1.55433 2.3315 0.777165
36 4 3.10866 1.55433 0
39 4 3.10866 2.3315 0.777165
73 4 0.777165 3.10866 0.777165
74 4 2.3315 3.10866 0.777165
522 4 2.3315 0 2.3315
523 4 1.55433 0.777165 2.3315
553 4 0.777165 2.3315 1.55433
554 4 0 2.3315 2.3315
555 4 2.3315 2.3315 1.55433
556 4 2.3315 1.55433 2.3315
557 4 1.55433 2.3315 2.3315
558 4 3.10866 1.55433 1.55433
560 4 3.10866 2.3315 2.3315
587 4 0 3.10866 1.55433
589 4 0.777165 3.10866 2.3315
1037 4 2.3315 0.777165 3.10866
1075 4 1.55433 1.55433 3.10866
1105 4 1.55433 3.10866 3.10866
8193 2 0 0 0
8194 2 0.777165 0.777165 0
8195 2 0.777165 0 0.777165
8196 2 0 0.777165 0.777165
8197 2 2.3315 0 0.777165
8198 2 3.10866 0 0
8226 2 0 1.55433 0
8227 2 0.777165 2.3315 0
8228 2 2.3315 1.55433 0.777165
8229 2 3.10866 1.55433 0
8256 2 0.777165 3.10866 0.777165
8258 2 1.55433 3.10866 0
8260 2 3.10866 3.10866 0
8730 2 0.777165 0.777165 1.55433
8731 2 0 0.777165 2.3315
8732 2 2.3315 0.777165 1.55433
8733 2 2.3315 0 2.3315
8734 2 1.55433 0.777165 2.3315
8735 2 3.10866 0 1.55433
8737 2 3.10866 0.777165 2.3315
8760 2 1.55433 1.55433 1.55433
8761 2 2.3315 2.3315 1.55433
8790 2 0 3.10866 1.55433
8791 2 0.777165 3.10866 2.3315
8793 2 1.55433 3.10866 1.55433
9232 2 0 0 3.10866
9233 2 0.777165 0.777165 3.10866
9234 2 1.55433 0 3.10866
9236 2 3.10866 0 3.10866
9265 2 0.777165 2.3315 3.10866
9267 2 1.55433 1.55433 3.10866
6 4 3.88583 0 0.777165
8 4 5.44016 0.777165 0
9 4 5.44016 0 0.777165
10 4 4.66299 0.777165 0.777165
11 4 6.21732 0 0
12 4 6.21732 0.777165 0.777165
37 4 3.88583 2.3315 0
38 4 3.88583 1.55433 0.777165
40 4 5.44016 2.3315 0
41 4 5.44016 1.55433 0.777165
42 4 4.66299 2.3315 0.777165
43 4 6.21732 1.55433 0
44 4 6.99449 2.3315 0
45 4 6.21732 2.3315 0.777165
76 4 4.66299 3.10866 0
77 4 5.44016 3.10866 0.777165
78 4 6.99449 3.10866 0.777165
524 4 3.88583 0 2.3315
525 4 5.44016 0.777165 1.55433
526 4 5.44016 0 2.3315
527 4 4.66299 0.777165 2.3315
528 4 6.21732 0 1.55433
529 4 6.99449 0 2.3315
559 4 3.88583 1.55433 2.3315
561 4 4.66299 1.55433 1.55433
562 4 5.44016 2.3315 1.55433
563 4 6.99449 2.3315 1.55433
564 4 6.99449 1.55433 2.3315
592 4 6.21732 3.10866 1.55433
593 4 6.99449 3.10866 2.3315
1040 4 3.88583 0.777165 3.10866
1042 4 4.66299 0 3.10866
1043 4 5.44016 0.777165 3.10866
1045 4 6.21732 0 3.10866
1046 4 6.99449 0.777165 3.10866
1077 4 3.88583 2.3315 3.10866
1080 4 4.66299 1.55433 3.10866
1081 4 5.44016 2.3315 3.10866
1110 4 6.21732 3.10866 3.10866
8199 2 3.88583 0.777165 0
8200 2 5.44016 0.777165 0
8201 2 6.99449 0 0.777165
8230 2 3.88583 2.3315 0
8231 2 6.21732 1.55433 0
8232 2 6.99449 1.55433 0.777165
8261 2 3.88583 3.10866 0.777165
8263 2 4.66299 3.10866 0
8265 2 6.21732 3.10866 0
8267 2 6.99449 3.10866 0.777165
8736 2 3.88583 0 2.3315
8738 2 5.44016 0 2.3315
8739 2 4.66299 0.777165 2.3315
8740 2 6.21732 0 1.55433
8741 2 6.21732 0.777165 2.3315
8762 2 3.88583 2.3315 1.55433
8763 2 3.88583 1.55433 2.3315
8764 2 4.66299 2.3315 2.3315
8765 2 6.99449 2.3315 1.55433
8766 2 6.99449 1.55433 2.3315
8767 2 6.21732 2.3315 2.3315
8796 2 3.88583 3.10866 2.3315
9237 2 3.88583 0.777165 3.10866
9239 2 5.44016 0.777165 3.10866
9240 2 6.21732 0 3.10866
9269 2 3.88583 2.3315 3.10866
9272 2 4.66299 1.55433 3.10866
9273 2 5.44016 2.3315 3.10866
9275 2 6.21732 1.55433 3.10866
9309 2 6.21732 3.10866 3.10866
13 4 9.32598 0 0
46 4 8.54882 1.55433 0.777165
47 4 7.77165 2.3315 0.777165
48 4 9.32598 1.55433 0
49 4 10.1031 2.3315 0
50 4 10.1031 1.55433 0.777165
51 4 9.32598 2.3315 0.777165
80 4 8.54882 3.10866 0.777165
81 4 9.32598 3.10866 0
82 4 10.1031 3.10866 0.777165
530 4 8.54882 0 2.3315
531 4 7.77165 0.777165 2.3315
532 4 10.1031 0.777165 1.55433
533 4 10.1031 0 2.3315
565 4 7.77165 1.55433 1.55433
566 4 8.54882 2.3315 1.55433
567 4 8.54882 1.55433 2.3315
568 4 9.32598 1.55433 1.55433
569 4 10.1031 2.3315 1.55433
570 4 10.1031 1.55433 2.3315
594 4 7.77165 3.10866 1.55433
596 4 9.32598 3.10866 1.55433
597 4 10.1031 3.10866 2.3315
1049 4 10.1031 0.777165 3.10866
1083 4 7.77165 1.55433 3.10866
1085 4 9.32598 1.55433 3.10866
1113 4 7.77165 3.10866 3.10866
8202 2 8.54882 0 0.777165
8203 2 7.77165 0.777165 0.777165
8204 2 9.32598 0 0
8205 2 10.1031 0.777165 0
8206 2 9.32598 0.777165 0.777165
8233 2 8.54882 2.3315 0
8234 2 10.1031 2.3315 0
8235 2 10.1031 1.55433 0.777165
8268 2 7.77165 3.10866 0
8270 2 8.54882 3.10866 0.777165
8742 2 7.77165 0.777165 2.3315
8743 2 9.32598 0 1.55433
8744 2 10.1031 0.777165 1.55433
8745 2 9.32598 0.777165 2.3315
8768 2 8.54882 2.3315 1.55433
8769 2 7.77165 2.3315 2.3315
8770 2 9.32598 1.55433 1.55433
8771 2 10.1031 2.3315 1.55433
8772 2 9.32598 2.3315 2.3315
8802 2 8.54882 3.10866 2.3315
9242 2 8.54882 0.777165 3.10866
9245 2 10.1031 0.777165 3.10866
9280 2 9.32598 1.55433 3.10866
9312 2 7.77165 3.10866 3.10866
9314 2 9.32598 3.10866 3.10866
14 4 10.8803 0 0
15 4 11.6575 0 0.777165
16 4 10.8803 0.777165 0.777165
17 4 12.4346 0 0
18 4 13.2118 0.777165 0
19 4 13.2118 0 0.777165
52 4 10.8803 2.3315 0.777165
53 4 12.4346 1.55433 0
54 4 13.2118 2.3315 0
55 4 13.2118 1.55433 0.777165
56 4 12.4346 2.3315 0.777165
57 4 13.989 1.55433 0
59 4 13.989 2.3315 0.777165
84 4 13.2118 3.10866 0.777165
534 4 10.8803 0 1.55433
535 4 10.8803 0.777165 2.3315
536 4 12.4346 0 1.55433
537 4 13.2118 0.777165 1.55433
538 4 13.2118 0 2.3315
539 4 12.4346 0.777165 2.3315
571 4 12.4346 1.55433 1.55433
572 4 13.2118 2.3315 1.55433
573 4 13.2118 1.55433 2.3315
574 4 12.4346 2.3315 2.3315
575 4 13.989 1.55433 1.55433
577 4 13.989 2.3315 2.3315
598 4 10.8803 3.10866 1.55433
600 4 11.6575 3.10866 2.3315
603 4 13.989 3.10866 1.55433
1051 4 11.6575 0.777165 3.10866
1053 4 12.4346 0 3.10866
1054 4 13.2118 0.777165 3.10866
1087 4 10.8803 1.55433 3.10866
1088 4 11.6575 2.3315 3.10866
1090 4 13.2118 2.3315 3.10866
1092 4 13.989 1.55433 3.10866
1120 4 13.989 3.10866 3.10866
8207 2 10.8803 0 0
8208 2 11.6575 0 0.777165
8209 2 13.2118 0.777165 0
8212 2 13.989 0.777165 0.777165
8236 2 10.8803 1.55433 0
8237 2 10.8803 2.3315 0.777165
8238 2 12.4346 1.55433 0
8239 2 13.2118 2.3315 0
8241 2 13.989 2.3315 0.777165
8274 2 12.4346 3.10866 0
8277 2 13.989 3.10866 0
8746 2 10.8803 0 1.55433
8747 2 11.6575 0 2.3315
8748 2 12.4346 0 1.55433
8749 2 12.4346 0.777165 2.3315
8752 2 13.989 0.777165 2.3315
8773 2 10.8803 1.55433 1.55433
8774 2 11.6575 1.55433 2.3315
8775 2 10.8803 2.3315 2.3315
8776 2 13.2118 2.3315 1.55433
8777 2 12.4346 2.3315 2.3315
8778 2 13.989 1.55433 1.55433
8804 2 10.8803 3.10866 1.55433
8806 2 13.2118 3.10866 2.3315
9249 2 12.4346 0 3.10866
9250 2 13.2118 0.777165 3.10866
9252 2 13.989 0 3.10866
9283 2 11.6575 2.3315 3.10866
9285 2 12.4346 1.55433 3.10866
9286 2 13.2118 2.3315 3.10866
9317 2 10.8803 3.10866 3.10866
9321 2 13.989 3.10866 3.10866
20 4 14.7661 0.777165 0
21 4 14.7661 0 0.777165
22 4 16.3205 0.777165 0
23 4 17.0976 0 0
58 4 14.7661 2.3315 0
60 4 16.3205 1.55433 0.777165
61 4 15.5433 2.3315 0.777165
87 4 16.3205 3.10866 0.777165
540 4 15.5433 0 1.55433
541 4 17.0976 0 1.55433
576 4 14.7661 2.3315 1.55433
578 4 15.5433 2.3315 2.3315
581 4 17.0976 2.3315 2.3315
604 4 17.0976 3.10866 1.55433
1056 4 14.7661 0.777165 3.10866
1061 4 17.0976 0 3.10866
1093 4 14.7661 2.3315 3.10866
1095 4 17.0976 1.55433 3.10866
1125 4 17.0976 3.10866 3.10866
8210 2 14.7661 0.777165 0
8211 2 14.7661 0 0.777165
8213 2 15.5433 0 0
8214 2 16.3205 0 0.777165
8215 2 15.5433 0.777165 0.777165
8217 2 17.0976 0.777165 0.777165
8240 2 14.7661 1.55433 0.777165
8242 2 16.3205 1.55433 0.777165
8243 2 17.0976 1.55433 0
8279 2 14.7661 3.10866 0.777165
8281 2 15.5433 3.10866 0
8283 2 16.3205 3.10866 0.777165
8750 2 14.7661 0.777165 1.55433
8751 2 14.7661 0 2.3315
8753 2 15.5433 0.777165 2.3315
8779 2 16.3205 1.55433 2.3315
8780 2 15.5433 2.3315 2.3315
8782 2 17.0976 2.3315 2.3315
8810 2 16.3205 3.10866 2.3315
8812 2 17.0976 3.10866 1.55433
9253 2 14.7661 0.777165 3.10866
9255 2 15.5433 0 3.10866
9289 2 15.5433 1.55433 3.10866
9290 2 16.3205 2.3315 3.10866
9291 2 17.0976 1.55433 3.10866
9325 2 15.5433 3.10866 3.10866
24 4 17.8748 0.777165 0
25 4 19.4291 0.777165 0
26 4 20.9835 0.777165 0
62 4 17.8748 1.55433 0.777165
63 4 18.652 1.55433 0
64 4 19.4291 2.3315 0
65 4 19.4291 1.55433 0.777165
66 4 20.9835 2.3315 0
67 4 20.9835 1.55433 0.777165
89 4 17.8748 3.10866 0.777165
542 4 17.8748 0.777165 1.55433
543 4 19.4291 0.777165 1.55433
544 4 19.4291 0 2.3315
545 4 18.652 0.777165 2.3315
546 4 20.2063 0 1.55433
547 4 20.9835 0.777165 1.55433
548 4 20.9835 0 2.3315
549 4 20.2063 0.777165 2.3315
579 4 17.8748 2.3315 1.55433
580 4 17.8748 1.55433 2.3315
582 4 19.4291 2.3315 1.55433
583 4 20.2063 1.55433 1.55433
584 4 20.9835 2.3315 1.55433
606 4 20.9835 3.10866 2.3315
1062 4 17.8748 0.777165 3.10866
1065 4 18.652 0 3.10866
1067 4 20.2063 0 3.10866
1096 4 17.8748 2.3315 3.10866
1097 4 19.4291 2.3315 3.10866
1099 4 20.2063 1.55433 3.10866
1100 4 20.9835 2.3315 3.10866
1128 4 18.652 3.10866 3.10866
8216 2 17.8748 0.777165 0
8218 2 18.652 0 0
8219 2 19.4291 0.777165 0
8220 2 18.652 0.777165 0.777165
8221 2 20.2063 0 0
8222 2 20.9835 0 0.777165
8223 2 20.2063 0.777165 0.777165
8244 2 17.8748 2.3315 0
8245 2 18.652 1.55433 0
8246 2 19.4291 1.55433 0.777165
8247 2 20.2063 1.55433 0
8248 2 20.9835 2.3315 0
8249 2 20.9835 1.55433 0.777165
8250 2 20.2063 2.3315 0.777165
8285 2 18.652 3.10866 0
8287 2 20.9835 3.10866 0.777165
8754 2 17.8748 0.777165 1.55433
8755 2 17.8748 0 2.3315
8756 2 18.652 0.777165 2.3315
8757 2 20.2063 0 1.55433
8758 2 20.9835 0 2.3315
8781 2 17.8748 1.55433 2.3315
8783 2 18.652 1.55433 1.55433
8784 2 19.4291 2.3315 1.55433
8785 2 18.652 2.3315 2.3315
8786 2 20.2063 2.3315 2.3315
8814 2 17.8748 3.10866 2.3315
8816 2 18.652 3.10866 1.55433
8818 2 19.4291 3.10866 2.3315
8820 2 20.9835 3.10866 2.3315
9258 2 19.4291 0.777165 3.10866
9293 2 20.2063 1.55433 3.10866
9332 2 20.2063 3.10866 3.10866
27 4 21.7606 0 0
28 4 22.5378 0 0.777165
29 4 21.7606 0.777165 0.777165
30 4 23.315 0 0
31 4 24.0921 0.777165 0
68 4 21.7606 1.55433 0
69 4 22.5378 2.3315 0
70 4 23.315 1.55433 0
71 4 24.0921 2.3315 0
72 4 23.315 2.3315 0.777165
94 4 21.7606 3.10866 0
95 4 23.315 3.10866 0
550 4 21.7606 0.777165 2.3315
551 4 23.315 0 1.55433
552 4 23.315 0.777165 2.3315
585 4 22.5378 1.55433 2.3315
586 4 24.0921 2.3315 1.55433
609 4 23.315 3.10866 1.55433
1069 4 22.5378 0.777165 3.10866
1070 4 23.315 0 3.10866
1071 4 24.0921 0.777165 3.10866
1102 4 22.5378 2.3315 3.10866
1103 4 24.0921 2.3315 3.10866
1133 4 21.7606 3.10866 3.10866
8224 2 22.5378 0 0.777165
8225 2 23.315 0 0
8251 2 21.7606 1.55433 0
8252 2 23.315 1.55433 0
8253 2 24.0921 2.3315 0
8254 2 24.0921 1.55433 0.777165
8255 2 23.315 2.3315 0.777165
8289 2 21.7606 3.10866 0
8292 2 23.315 3.10866 0
8759 2 24.0921 0.777165 1.55433
8787 2 21.7606 1.55433 1.55433
8788 2 22.5378 1.55433 2.3315
8789 2 24.0921 2.3315 1.55433
8823 2 24.0921 3.10866 2.3315
9261 2 21.7606 0 3.10866
9262 2 22.5378 0.777165 3.10866
9264 2 24.0921 0.777165 3.10866
9294 2 21.7606 1.55433 3.10866
9295 2 22.5378 2.3315 3.10866
9298 2 23.315 1.55433 3.10866
9299 2 24.0921 2.3315 3.10866
9335 2 23.315 3.10866 3.10866
75 4 1.55433 3.88583 0.777165
98 4 0.777165 5.44016 0
99 4 0.777165 4.66299 0.777165
100 4 0 5.44016 0.777165
101 4 1.55433 4.66299 0
102 4 2.3315 5.44016 0
103 4 2.3315 4.66299 0.777165
104 4 3.10866 4.66299 0
132 4 0.777165 6.99449 0
133 4 2.3315 6.99449 0
588 4 0.777165 3.88583 1.55433
590 4 2.3315 3.88583 1.55433
591 4 1.55433 3.88583 2.3315
611 4 0 5.44016 2.3315
612 4 2.3315 5.44016 1.55433
613 4 3.10866 4.66299 1.55433
615 4 3.10866 5.44016 2.3315
640 4 0.777165 6.99449 1.55433
641 4 0.777165 6.21732 2.3315
642 4 0 6.99449 2.3315
643 4 2.3315 6.21732 2.3315
1106 4 2.3315 3.88583 3.10866
1138 4 1.55433 4.66299 3.10866
1140 4 3.10866 4.66299 3.10866
1169 4 1.55433 6.21732 3.10866
1170 4 2.3315 6.99449 3.10866
1171 4 3.10866 6.21732 3.10866
8257 2 0 3.88583 0.777165
8259 2 2.3315 3.88583 0
8262 2 3.10866 3.88583 0.777165
8295 2 0 4.66299 0
8296 2 1.55433 4.66299 0
8297 2 2.3315 5.44016 0
8298 2 2.3315 4.66299 0.777165
8299 2 3.10866 4.66299 0
8326 2 0.777165 6.99449 0
8327 2 0.777165 6.21732 0.777165
8328 2 0 6.99449 0.777165
8329 2 1.55433 6.21732 0
8330 2 2.3315 6.99449 0
8331 2 2.3315 6.21732 0.777165
8332 2 1.55433 6.99449 0.777165
8333 2 3.10866 6.21732 0
8335 2 3.10866 6.99449 0.777165
8792 2 0 3.88583 2.3315
8794 2 2.3315 3.88583 1.55433
8795 2 1.55433 3.88583 2.3315
8797 2 3.10866 3.88583 2.3315
8824 2 0 4.66299 1.55433
8825 2 0.777165 5.44016 1.55433
8826 2 1.55433 4.66299 1.55433
8827 2 3.10866 4.66299 1.55433
8852 2 0 6.21732 1.55433
8853 2 0.777165 6.99449 1.55433
8854 2 0.777165 6.21732 2.3315
8855 2 0 6.99449 2.3315
8856 2 1.55433 6.21732 1.55433
8857 2 2.3315 6.99449 1.55433
8858 2 2.3315 6.21732 2.3315
8859 2 1.55433 6.99449 2.3315
8861 2 3.10866 6.99449 2.3315
9302 2 0.777165 3.88583 3.10866
9339 2 0 4.66299 3.10866
9340 2 0.777165 5.44016 3.10866
9342 2 1.55433 4.66299 3.10866
9343 2 3.10866 4.66299 3.10866
9377 2 0 6.21732 3.10866
9378 2 1.55433 6.21732 3.10866
9379 2 2.3315 6.99449 3.10866
9382 2 3.10866 6.21732 3.10866
105 4 3.88583 4.66299 0.777165
106 4 5.44016 5.44016 0
107 4 5.44016 4.66299 0.777165
134 4 3.88583 6.21732 0.777165
135 4 4.66299 6.99449 0.777165
136 4 6.21732 6.99449 0.777165
614 4 3.88583 5.44016 1.55433
616 4 5.44016 5.44016 1.55433
617 4 4.66299 5.44016 2.3315
644 4 5.44016 6.21732 2.3315
645 4 4.66299 6.99449 2.3315
646 4 6.99449 6.21732 2.3315
647 4 6.21732 6.99449 2.3315
1111 4 6.99449 3.88583 3.10866
1141 4 3.88583 5.44016 3.10866
1142 4 4.66299 4.66299 3.10866
1144 4 6.21732 4.66299 3.10866
1145 4 6.99449 5.44016 3.10866
1172 4 3.88583 6.99449 3.10866
1175 4 4.66299 6.21732 3.10866
1178 4 6.21732 6.21732 3.10866
1179 4 6.99449 6.99449 3.10866
8264 2 4.66299 3.88583 0.777165
8266 2 6.99449 3.88583 0
8300 2 3.88583 5.44016 0
8301 2 4.66299 4.66299 0
8302 2 5.44016 5.44016 0
8303 2 4.66299 5.44016 0.777165
8304 2 6.99449 5.44016 0
8305 2 6.99449 4.66299 0.777165
8334 2 3.88583 6.99449 0
8336 2 5.44016 6.99449 0
8337 2 6.99449 6.99449 0
8338 2 6.99449 6.21732 0.777165
8339 2 6.21732 6.99449 0.777165
8798 2 5.44016 3.88583 1.55433
8799 2 4.66299 3.88583 2.3315
8800 2 6.21732 3.88583 2.3315
8828 2 3.88583 5.44016 1.55433
8829 2 5.44016 5.44016 1.55433
8830 2 4.66299 5.44016 2.3315
8831 2 6.21732 4.66299 1.55433
8832 2 6.21732 5.44016 2.3315
8860 2 3.88583 6.99449 1.55433
8862 2 4.66299 6.99449 2.3315
8863 2 6.99449 6.99449 1.55433
9306 2 5.44016 3.88583 3.10866
9310 2 6.99449 3.88583 3.10866
9344 2 3.88583 5.44016 3.10866
9347 2 4.66299 4.66299 3.10866
9348 2 5.44016 5.44016 3.10866
9383 2 3.88583 6.99449 3.10866
9386 2 4.66299 6.21732 3.10866
79 4 8.54882 3.88583 0
108 4 7.77165 4.66299 0
109 4 8.54882 5.44016 0
110 4 8.54882 4.66299 0.777165
111 4 9.32598 4.66299 0
112 4 10.1031 4.66299 0.777165
113 4 9.32598 5.44016 0.777165
137 4 7.77165 6.21732 0
138 4 8.54882 6.99449 0
139 4 9.32598 6.21732 0
140 4 10.1031 6.99449 0
595 4 8.54882 3.88583 1.55433
618 4 7.77165 4.66299 1.55433
619 4 8.54882 4.66299 2.3315
620 4 10.1031 5.44016 1.55433
648 4 8.54882 6.21732 2.3315
649 4 7.77165 6.99449 2.3315
650 4 10.1031 6.21732 2.3315
651 4 9.32598 6.99449 2.3315
1115 4 10.1031 3.88583 3.10866
1146 4 7.77165 4.66299 3.10866
1148 4 9.32598 4.66299 3.10866
1183 4 10.1031 6.99449 3.10866
8269 2 8.54882 3.88583 0
8271 2 10.1031 3.88583 0
8272 2 9.32598 3.88583 0.777165
8306 2 8.54882 5.44016 0
8307 2 10.1031 5.44016 0
8308 2 9.32598 5.44016 0.777165
8340 2 7.77165 6.21732 0
8341 2 8.54882 6.21732 0.777165
8342 2 7.77165 6.99449 0.777165
8343 2 10.1031 6.99449 0
8344 2 10.1031 6.21732 0.777165
8345 2 9.32598 6.99449 0.777165
8801 2 8.54882 3.88583 1.55433
8803 2 9.32598 3.88583 2.3315
8833 2 10.1031 5.44016 1.55433
8864 2 7.77165 6.21732 1.55433
8865 2 8.54882 6.21732 2.3315
8866 2 9.32598 6.21732 1.55433
8867 2 10.1031 6.99449 1.55433
9313 2 8.54882 3.88583 3.10866
9353 2 9.32598 4.66299 3.10866
9354 2 10.1031 5.44016 3.10866
9389 2 8.54882 6.99449 3.10866
9391 2 9.32598 6.21732 3.10866
9392 2 10.1031 6.99449 3.10866
83 4 10.8803 3.88583 0.777165
86 4 13.989 3.88583 0.777165
114 4 10.8803 4.66299 0
115 4 11.6575 5.44016 0
116 4 11.6575 4.66299 0.777165
117 4 10.8803 5.44016 0.777165
118 4 12.4346 5.44016 0.777165
119 4 13.989 4.66299 0
122 4 13.989 5.44016 0.777165
141 4 11.6575 6.99449 0
142 4 10.8803 6.99449 0.777165
143 4 13.2118 6.21732 0.777165
144 4 12.4346 6.99449 0.777165
147 4 13.989 6.99449 0.777165
599 4 11.6575 3.88583 1.55433
601 4 13.2118 3.88583 1.55433
602 4 12.4346 3.88583 2.3315
621 4 11.6575 5.44016 1.55433
622 4 10.8803 5.44016 2.3315
623 4 12.4346 4.66299 1.55433
624 4 13.2118 5.44016 1.55433
625 4 12.4346 5.44016 2.3315
626 4 13.989 4.66299 1.55433
652 4 11.6575 6.99449 1.55433
653 4 10.8803 6.99449 2.3315
654 4 12.4346 6.21732 1.55433
655 4 13.2118 6.99449 1.55433
656 4 13.2118 6.21732 2.3315
657 4 13.989 6.21732 1.55433
1149 4 10.8803 4.66299 3.10866
1152 4 13.2118 5.44016 3.10866
1186 4 11.6575 6.99449 3.10866
1188 4 12.4346 6.21732 3.10866
1189 4 13.2118 6.99449 3.10866
1191 4 13.989 6.21732 3.10866
8273 2 10.8803 3.88583 0.777165
8275 2 13.2118 3.88583 0
8276 2 12.4346 3.88583 0.777165
8280 2 13.989 3.88583 0.777165
8309 2 10.8803 4.66299 0
8310 2 11.6575 4.66299 0.777165
8311 2 10.8803 5.44016 0.777165
8312 2 12.4346 4.66299 0
8313 2 13.2118 5.44016 0
8314 2 13.989 4.66299 0
8346 2 10.8803 6.99449 0.777165
8347 2 13.2118 6.99449 0
8348 2 12.4346 6.99449 0.777165
8350 2 13.989 6.99449 0.777165
8805 2 13.2118 3.88583 1.55433
8807 2 12.4346 3.88583 2.3315
8808 2 13.989 3.88583 2.3315
8834 2 11.6575 5.44016 1.55433
8835 2 12.4346 4.66299 1.55433
8836 2 13.2118 5.44016 1.55433
8837 2 12.4346 5.44016 2.3315
8868 2 10.8803 6.21732 1.55433
8869 2 11.6575 6.99449 1.55433
8870 2 13.2118 6.99449 1.55433
8873 2 13.989 6.99449 2.3315
9318 2 11.6575 3.88583 3.10866
9319 2 13.2118 3.88583 3.10866
9356 2 10.8803 4.66299 3.10866
9357 2 11.6575 5.44016 3.10866
9360 2 13.989 4.66299 3.10866
9393 2 10.8803 6.21732 3.10866
9395 2 12.4346 6.21732 3.10866
85 4 14.7661 3.88583 0
88 4 15.5433 3.88583 0.777165
90 4 17.0976 3.88583 0.777165
120 4 14.7661 5.44016 0
121 4 14.7661 4.66299 0.777165
123 4 15.5433 4.66299 0
124 4 16.3205 4.66299 0.777165
145 4 14.7661 6.99449 0
146 4 14.7661 6.21732 0.777165
148 4 15.5433 6.21732 0
149 4 16.3205 6.99449 0
150 4 15.5433 6.99449 0.777165
627 4 14.7661 4.66299 2.3315
628 4 15.5433 4.66299 1.55433
629 4 16.3205 5.44016 1.55433
630 4 15.5433 5.44016 2.3315
632 4 17.0976 5.44016 2.3315
658 4 14.7661 6.99449 1.55433
659 4 16.3205 6.99449 1.55433
660 4 17.0976 6.21732 1.55433
1192 4 14.7661 6.99449 3.10866
1194 4 15.5433 6.21732 3.10866
1195 4 16.3205 6.99449 3.10866
8278 2 14.7661 3.88583 0
8282 2 16.3205 3.88583 0
8315 2 14.7661 4.66299 0.777165
8316 2 15.5433 4.66299 0
8317 2 17.0976 4.66299 0
8318 2 17.0976 5.44016 0.777165
8349 2 14.7661 6.21732 0.777165
8351 2 16.3205 6.99449 0
8352 2 15.5433 6.99449 0.777165
8353 2 17.0976 6.21732 0
8355 2 17.0976 6.99449 0.777165
8809 2 16.3205 3.88583 1.55433
8811 2 15.5433 3.88583 2.3315
8815 2 17.0976 3.88583 2.3315
8838 2 14.7661 5.44016 1.55433
8839 2 15.5433 4.66299 1.55433
8840 2 16.3205 5.44016 1.55433
8841 2 16.3205 4.66299 2.3315
8842 2 15.5433 5.44016 2.3315
8844 2 17.0976 5.44016 2.3315
8871 2 14.7661 6.99449 1.55433
8872 2 14.7661 6.21732 2.3315
8874 2 16.3205 6.99449 1.55433
8875 2 16.3205 6.21732 2.3315
8876 2 15.5433 6.99449 2.3315
9322 2 14.7661 3.88583 3.10866
9326 2 16.3205 3.88583 3.10866
9361 2 14.7661 5.44016 3.10866
9364 2 15.5433 4.66299 3.10866
9365 2 16.3205 5.44016 3.10866
9367 2 17.0976 4.66299 3.10866
9396 2 14.7661 6.99449 3.10866
9398 2 16.3205 6.99449 3.10866
9401 2 17.0976 6.21732 3.10866
91 4 19.4291 3.88583 0
92 4 18.652 3.88583 0.777165
93 4 20.2063 3.88583 0.777165
125 4 19.4291 5.44016 0
126 4 19.4291 4.66299 0.777165
127 4 18.652 5.44016 0.777165
128 4 20.2063 4.66299 0
129 4 20.9835 4.66299 0.777165
151 4 17.8748 6.99449 0
152 4 18.652 6.21732 0
153 4 19.4291 6.99449 0
154 4 18.652 6.99449 0.777165
155 4 20.2063 6.21732 0
156 4 20.9835 6.21732 0.777165
157 4 20.2063 6.99449 0.777165
605 4 18.652 3.88583 2.3315
607 4 20.2063 3.88583 2.3315
631 4 17.8748 4.66299 2.3315
633 4 18.652 4.66299 1.55433
634 4 20.2063 5.44016 2.3315
661 4 17.8748 6.99449 1.55433
662 4 18.652 6.21732 1.55433
663 4 19.4291 6.99449 1.55433
664 4 20.2063 6.21732 1.55433
665 4 20.9835 6.21732 2.3315
666 4 20.2063 6.99449 2.3315
1126 4 17.8748 3.88583 3.10866
1130 4 20.9835 3.88583 3.10866
1156 4 17.8748 5.44016 3.10866
1158 4 18.652 4.66299 3.10866
1160 4 20.9835 5.44016 3.10866
1198 4 17.8748 6.99449 3.10866
1199 4 20.2063 6.21732 3.10866
8284 2 17.8748 3.88583 0
8286 2 20.9835 3.88583 0
8288 2 20.2063 3.88583 0.777165
8319 2 20.9835 4.66299 0.777165
8320 2 20.2063 5.44016 0.777165
8354 2 17.8748 6.21732 0.777165
8356 2 18.652 6.21732 0
8357 2 19.4291 6.21732 0.777165
8358 2 18.652 6.99449 0.777165
8359 2 20.9835 6.21732 0.777165
8360 2 20.2063 6.99449 0.777165
8813 2 17.8748 3.88583 1.55433
8817 2 19.4291 3.88583 1.55433
8819 2 18.652 3.88583 2.3315
8843 2 17.8748 5.44016 1.55433
8845 2 18.652 5.44016 2.3315
8846 2 20.2063 5.44016 2.3315
8877 2 19.4291 6.21732 2.3315
8878 2 20.2063 6.21732 1.55433
9329 2 19.4291 3.88583 3.10866
9369 2 18.652 4.66299 3.10866
9370 2 20.9835 5.44016 3.10866
9403 2 20.2063 6.21732 3.10866
96 4 24.0921 3.88583 0
97 4 23.315 3.88583 0.777165
130 4 21.7606 4.66299 0
131 4 24.0921 5.44016 0
158 4 21.7606 6.21732 0
159 4 23.315 6.99449 0.777165
608 4 21.7606 3.88583 2.3315
610 4 24.0921 3.88583 1.55433
635 4 22.5378 5.44016 1.55433
636 4 21.7606 5.44016 2.3315
637 4 23.315 4.66299 1.55433
638 4 24.0921 4.66299 2.3315
639 4 23.315 5.44016 2.3315
667 4 21.7606 6.21732 1.55433
668 4 22.5378 6.99449 1.55433
669 4 22.5378 6.21732 2.3315
670 4 24.0921 6.21732 2.3315
671 4 23.315 6.99449 2.3315
1136 4 24.0921 3.88583 3.10866
1161 4 21.7606 4.66299 3.10866
1162 4 22.5378 5.44016 3.10866
1164 4 23.315 4.66299 3.10866
1165 4 24.0921 5.44016 3.10866
1201 4 21.7606 6.21732 3.10866
1203 4 23.315 6.21732 3.10866
1204 4 24.0921 6.99449 3.10866
8290 2 22.5378 3.88583 0
8291 2 21.7606 3.88583 0.777165
8293 2 24.0921 3.88583 0
8294 2 23.315 3.88583 0.777165
8321 2 21.7606 4.66299 0
8322 2 21.7606 5.44016 0.777165
8323 2 23.315 4.66299 0
8324 2 24.0921 5.44016 0
8325 2 23.315 5.44016 0.777165
8361 2 22.5378 6.99449 0
8362 2 23.315 6.21732 0
8363 2 24.0921 6.99449 0
8364 2 24.0921 6.21732 0.777165
8365 2 23.315 6.99449 0.777165
8821 2 21.7606 3.88583 2.3315
8822 2 24.0921 3.88583 1.55433
8847 2 21.7606 4.66299 1.55433
8848 2 22.5378 5.44016 1.55433
8849 2 22.5378 4.66299 2.3315
8850 2 21.7606 5.44016 2.3315
8851 2 24.0921 5.44016 1.55433
8879 2 24.0921 6.21732 2.3315
9336 2 24.0921 3.88583 3.10866
9372 2 21.7606 4.66299 3.10866
9373 2 22.5378 5.44016 3.10866
9375 2 23.315 4.66299 3.10866
9405 2 21.7606 6.21732 3.10866
9406 2 22.5378 6.99449 3.10866
9409 2 24.0921 6.99449 3.10866
160 4 0 7.77165 0
161 4 0.777165 8.54882 0
162 4 0.777165 7.77165 0.777165
163 4 0 8.54882 0.777165
164 4 1.55433 7.77165 0
165 4 2.3315 7.77165 0.777165
168 4 3.10866 8.54882 0.777165
193 4 0.777165 10.1031 0
194 4 0.777165 9.32598 0.777165
195 4 0 10.1031 0.777165
196 4 1.55433 9.32598 0
197 4 2.3315 10.1031 0
198 4 3.10866 9.32598 0
201 4 3.10866 10.1031 0.777165
672 4 0 7.77165 1.55433
673 4 0.777165 7.77165 2.3315
674 4 0 8.54882 2.3315
675 4 1.55433 7.77165 1.55433
676 4 2.3315 8.54882 1.55433
677 4 2.3315 7.77165 2.3315
678 4 1.55433 8.54882 2.3315
679 4 3.10866 7.77165 1.55433
711 4 0 9.32598 1.55433
712 4 0.777165 10.1031 1.55433
713 4 1.55433 9.32598 1.55433
714 4 1.55433 10.1031 2.3315
717 4 3.10866 10.1031 2.3315
1207 4 0 7.77165 3.10866
1208 4 0.777165 8.54882 3.10866
1243 4 1.55433 9.32598 3.10866
8366 2 0 7.77165 0
8367 2 0.777165 8.54882 0
8368 2 0.777165 7.77165 0.777165
8369 2 0 8.54882 0.777165
8370 2 1.55433 7.77165 0
8371 2 2.3315 8.54882 0
8372 2 2.3315 7.77165 0.777165
8373 2 1.55433 8.54882 0.777165
8374 2 3.10866 7.77165 0
8404 2 1.55433 9.32598 0
8405 2 1.55433 10.1031 0.777165
8406 2 3.10866 9.32598 0
8880 2 0 7.77165 1.55433
8881 2 0.777165 7.77165 2.3315
8882 2 0 8.54882 2.3315
8883 2 1.55433 7.77165 1.55433
8884 2 2.3315 8.54882 1.55433
8885 2 2.3315 7.77165 2.3315
8886 2 3.10866 7.77165 1.55433
8918 2 0 9.32598 1.55433
8919 2 0.777165 10.1031 1.55433
8920 2 1.55433 9.32598 1.55433
8921 2 2.3315 10.1031 1.55433
8922 2 2.3315 9.32598 2.3315
8923 2 3.10866 9.32598 1.55433
9412 2 0 7.77165 3.10866
9413 2 0.777165 8.54882 3.10866
9416 2 1.55433 7.77165 3.10866
9417 2 2.3315 8.54882 3.10866
9420 2 3.10866 7.77165 3.10866
9446 2 1.55433 9.32598 3.10866
9447 2 3.10866 9.32598 3.10866
166 4 3.88583 8.54882 0
167 4 3.88583 7.77165 0.777165
169 4 5.44016 7.77165 0.777165
170 4 4.66299 8.54882 0.777165
171 4 6.21732 7.77165 0
172 4 6.99449 8.54882 0
173 4 6.99449 7.77165 0.777165
174 4 6.21732 8.54882 0.777165
199 4 3.88583 10.1031 0
200 4 3.88583 9.32598 0.777165
202 4 4.66299 9.32598 0
203 4 5.44016 10.1031 0
204 4 5.44016 9.32598 0.777165
205 4 6.99449 10.1031 0
206 4 6.99449 9.32598 0.777165
680 4 3.88583 8.54882 1.55433
681 4 3.88583 7.77165 2.3315
682 4 4.66299 7.77165 1.55433
683 4 5.44016 8.54882 1.55433
684 4 4.66299 8.54882 2.3315
685 4 6.21732 7.77165 1.55433
686 4 6.99449 8.54882 1.55433
687 4 6.99449 7.77165 2.3315
715 4 3.88583 10.1031 1.55433
716 4 3.88583 9.32598 2.3315
718 4 4.66299 9.32598 1.55433
719 4 5.44016 10.1031 1.55433
720 4 4.66299 10.1031 2.3315
721 4 6.21732 9.32598 1.55433
722 4 6.21732 10.1031 2.3315
1211 4 3.88583 8.54882 3.10866
1212 4 4.66299 7.77165 3.10866
1213 4 5.44016 8.54882 3.10866
1214 4 6.21732 7.77165 3.10866
1215 4 6.99449 8.54882 3.10866
1247 4 4.66299 9.32598 3.10866
1248 4 5.44016 10.1031 3.10866
1251 4 6.21732 9.32598 3.10866
1252 4 6.99449 10.1031 3.10866
8375 2 3.88583 8.54882 0
8376 2 5.44016 8.54882 0
8377 2 5.44016 7.77165 0.777165
8378 2 6.21732 7.77165 0
8379 2 6.99449 8.54882 0
8380 2 6.99449 7.77165 0.777165
8381 2 6.21732 8.54882 0.777165
8407 2 3.88583 10.1031 0
8408 2 4.66299 9.32598 0
8409 2 4.66299 10.1031 0.777165
8410 2 6.21732 9.32598 0
8411 2 6.99449 10.1031 0
8412 2 6.21732 10.1031 0.777165
8887 2 3.88583 8.54882 1.55433
8888 2 5.44016 8.54882 1.55433
8889 2 4.66299 8.54882 2.3315
8890 2 6.21732 7.77165 1.55433
8891 2 6.99449 8.54882 1.55433
8924 2 3.88583 10.1031 1.55433
8925 2 3.88583 9.32598 2.3315
8926 2 4.66299 9.32598 1.55433
8927 2 5.44016 10.1031 1.55433
8928 2 6.21732 9.32598 1.55433
8929 2 6.99449 9.32598 2.3315
9421 2 3.88583 8.54882 3.10866
9422 2 4.66299 7.77165 3.10866
9423 2 5.44016 8.54882 3.10866
9425 2 6.21732 7.77165 3.10866
9426 2 6.99449 8.54882 3.10866
9448 2 3.88583 10.1031 3.10866
9451 2 4.66299 9.32598 3.10866
9453 2 6.99449 10.1031 3.10866
175 4 7.77165 7.77165 0
176 4 7.77165 8.54882 0.777165
177 4 9.32598 7.77165 0
178 4 10.1031 8.54882 0
207 4 8.54882 10.1031 0
208 4 7.77165 10.1031 0.777165
209 4 9.32598 9.32598 0
210 4 10.1031 10.1031 0
688 4 7.77165 7.77165 1.55433
689 4 8.54882 8.54882 1.55433
690 4 8.54882 7.77165 2.3315
691 4 10.1031 8.54882 1.55433
692 4 10.1031 7.77165 2.3315
693 4 9.32598 8.54882 2.3315
723 4 8.54882 10.1031 1.55433
724 4 8.54882 9.32598 2.3315
725 4 10.1031 9.32598 2.3315
726 4 9.32598 10.1031 2.3315
1219 4 9.32598 7.77165 3.10866
1220 4 10.1031 8.54882 3.10866
1254 4 7.77165 9.32598 3.10866
1255 4 8.54882 10.1031 3.10866
1257 4 9.32598 9.32598 3.10866
1258 4 10.1031 10.1031 3.10866
8382 2 8.54882 8.54882 0
8383 2 8.54882 7.77165 0.777165
8384 2 10.1031 8.54882 0
8385 2 10.1031 7.77165 0.777165
8413 2 7.77165 9.32598 0
8414 2 8.54882 9.32598 0.777165
8415 2 10.1031 10.1031 0
8416 2 10.1031 9.32598 0.777165
8892 2 8.54882 8.54882 1.55433
8893 2 8.54882 7.77165 2.3315
8894 2 9.32598 7.77165 1.55433
8895 2 10.1031 8.54882 1.55433
8896 2 9.32598 8.54882 2.3315
8930 2 8.54882 10.1031 1.55433
8931 2 8.54882 9.32598 2.3315
8932 2 9.32598 10.1031 2.3315
9454 2 7.77165 9.32598 3.10866
9455 2 8.54882 10.1031 3.10866
9456 2 9.32598 9.32598 3.10866
9457 2 10.1031 10.1031 3.10866
179 4 11.6575 8.54882 0
180 4 13.989 7.77165 0
182 4 13.989 8.54882 0.777165
211 4 11.6575 10.1031 0
212 4 12.4346 9.32598 0
213 4 13.2118 10.1031 0
214 4 13.2118 9.32598 0.777165
215 4 12.4346 10.1031 0.777165
694 4 13.2118 7.77165 2.3315
695 4 12.4346 8.54882 2.3315
727 4 11.6575 10.1031 1.55433
728 4 12.4346 9.32598 1.55433
729 4 13.2118 10.1031 1.55433
730 4 13.2118 9.32598 2.3315
731 4 13.989 9.32598 1.55433
733 4 13.989 10.1031 2.3315
1222 4 10.8803 7.77165 3.10866
1223 4 11.6575 8.54882 3.10866
1261 4 13.2118 10.1031 3.10866
8386 2 10.8803 7.77165 0
8387 2 11.6575 8.54882 0
8388 2 12.4346 8.54882 0.777165
8417 2 10.8803 9.32598 0
8418 2 11.6575 9.32598 0.777165
8419 2 12.4346 9.32598 0
8420 2 13.2118 9.32598 0.777165
8421 2 13.989 9.32598 0
8897 2 10.8803 7.77165 1.55433
8898 2 13.2118 8.54882 1.55433
8901 2 13.989 8.54882 2.3315
8933 2 10.8803 9.32598 1.55433
8934 2 11.6575 10.1031 1.55433
8935 2 10.8803 10.1031 2.3315
8936 2 13.2118 10.1031 1.55433
8937 2 13.989 9.32598 1.55433
8940 2 13.989 10.1031 2.3315
9430 2 11.6575 8.54882 3.10866
9432 2 13.989 7.77165 3.10866
9460 2 13.2118 10.1031 3.10866
9463 2 13.989 9.32598 3.10866
181 4 14.7661 8.54882 0
183 4 15.5433 7.77165 0
184 4 17.0976 7.77165 0
185 4 17.0976 8.54882 0.777165
216 4 14.7661 10.1031 0
217 4 14.7661 9.32598 0.777165
218 4 15.5433 9.32598 0
219 4 16.3205 9.32598 0.777165
220 4 17.0976 9.32598 0
696 4 14.7661 7.77165 2.3315
697 4 15.5433 8.54882 2.3315
698 4 17.0976 7.77165 1.55433
700 4 17.0976 8.54882 2.3315
732 4 14.7661 9.32598 2.3315
734 4 15.5433 9.32598 1.55433
735 4 16.3205 10.1031 1.55433