ITEM: TIMESTEP
0
ITEM: NUMBER OF ATOMS
50688
ITEM: BOX BOUNDS xy xz yz pp pp pp
-20.3679009 69.5458069 9.6329088
-22.2159996 65.355896 0.0
-22.2159996 65.355896 0.0
ITEM: ATOMS id type x y z VoronoiIndex1 VoronoiIndex2 VoronoiIndex3 VoronoiIndex4 VoronoiIndex5 VoronoiIndex6 VoronoiIndex7 VoronoiIndex8 VoronoiIndex9 AtomicVolume
9 1 -10.0600004 -12.8000002 4.1719999 0 0 0 3 6 4 0 0 0 11.7095566
23 4 15.4200001 21.1200008 -0.5598001 0 0 1 5 5 5 0 0 0 13.8176489
25 2 7.857 18.5799999 17.8400002 0 0 1 2 4 3 1 0 0 11.6621437
35 2 21.1299992 14.9899998 -13.2399998 0 0 0 0 12 2 0 0 0 12.1735411
42 2 21.7999993 15.54 -9.1800003 0 0 1 2 6 3 1 0 0 11.4985008
57 5 6.1929998 -4.927 -19.6200009 0 0 0 1 10 2 0 0 0 11.7022572
71 2 2.9990002 16.7099991 -13.9700004 0 0 0 1 10 2 0 0 0 11.9469682
80 5 -1.152 20.7099991 -16.2900009 0 0 0 2 10 3 0 0 0 12.4312058
81 4 14.4499998 -3.454 -9.3599997 0 0 0 0 12 0 0 0 0 11.549594
82 5 -13.6099997 -15.5699997 -21.1200008 0 0 0 1 10 2 0 0 0 11.9535208
91 2 2.181 17.8999996 -10.1000004 0 0 0 2 8 2 0 0 0 11.3304844
101 1 -8.1409998 -19.4899998 -4.0599999 0 0 0 2 8 2 0 0 0 10.6327677
105 4 2.4790001 11.79 -16.1700001 0 0 0 2 8 4 0 0 0 11.7007742
110 5 -7.4200001 -18.4400006 2.922 0 0 1 1 11 2 0 0 0 13.0121384
112 2 11.4499998 -4.4159999 14.7799998 0 0 1 1 8 3 1 0 0 12.3181133
128 5 -13.87 -13.6199999 7.3080001 0 0 0 4 6 3 0 0 0 11.4982271
141 5 3.9300002 7.0560002 -9.5159998 0 0 0 2 8 2 0 0 0 12.4143915
147 5 12.0299997 -2.846 11.0500002 0 0 1 1 8 3 1 0 0 12.1671057
157 4 0.3044 20.9599992 13.2799997 0 0 1 3 5 5 0 0 0 12.3748531
159 4 15.1800003 -3.1930001 14.9499998 0 0 0 2 8 2 0 0 0 11.3892651
168 5 4.5799999 -8.8509998 -15.1700001 0 0 0 2 10 1 0 0 0 11.934473
171 2 -1.474 6.8590002 -10.0699997 0 0 0 5 6 1 0 0 0 11.7362728
174 4 -6.4629998 15.3500004 11.4099999 0 0 0 0 12 2 0 0 0 12.4768257
184 2 13.6800003 -1.716 12.7399998 0 0 0 2 8 3 0 0 0 11.5110865
186 5 13.4799996 11.8800002 -15.8400002 0 0 1 3 4 5 1 0 0 12.5774889
196 5 10.8500004 -8.1499996 -2.006 0 0 0 1 10 2 0 0 0 11.996913
214 2 1.186 14.9899998 -18.0100002 0 0 0 3 6 4 0 0 0 11.1045017
217 2 -15.0100002 -7.3540001 19.5100003 0 0 0 2 10 0 0 0 0 11.095789
220 2 -19.0900002 -20.0200005 -9.7080002 0 0 1 3 5 5 0 0 0 12.1879978
243 4 3.2379999 1.101 14.1599999 0 0 1 2 7 5 0 0 0 12.1098871
244 5 11.7799998 -12.6300001 18.9099998 0 0 0 0 12 2 0 0 0 12.489583
245 1 -8.408 3.3429999 -21.5499993 0 0 0 4 6 3 0 0 0 11.7837029
247 2 11.2299996 13.5299998 -4.849 0 0 0 1 10 2 0 0 0 11.8308916
254 2 -7.776 18.5400009 -7.112 0 0 0 2 8 1 0 0 0 11.3726292
273 4 20.5499993 -11.75 -0.5895 0 0 0 4 8 2 0 0 0 12.2910967
275 4 15.75 -0.399 11.8599998 0 0 0 5 2 4 2 0 0 11.914919
288 5 -10.5600004 13.0500002 21.3199997 0 0 0 0 12 0 0 0 0 11.3278713
291 4 -16.0499992 12.8599998 -13.5799999 0 0 0 2 10 3 0 0 0 12.2394142
295 4 -2.991 2.5780001 -8.9659996 0 0 1 1 9 4 0 0 0 12.0469608
299 5 -0.2375 18.6499996 -19.8799992 0 0 0 0 12 2 0 0 0 12.7224217
300 2 19.0699997 -8.606 1.614 0 0 0 4 4 5 0 0 0 12.07973
313 5 -0.3386 -14.4899998 3.684 0 0 1 1 9 4 0 0 0 13.6391125
314 5 -16.1200008 -21.7800007 3.694 0 0 0 0 12 3 0 0 0 13.4620505
327 4 -1.508 -3.227 14.6300001 0 0 0 0 12 0 0 0 0 11.2673912
335 1 -8.9899998 17.4099999 -14.9899998 0 0 0 4 4 6 0 0 0 12.1042481
348 4 -8.1610003 3.0090001 11.87 0 0 3 2 3 5 0 0 0 12.0114164
360 4 11.2299996 -21.2600002 -7.6630001 0 0 0 1 10 6 0 0 0 13.6637478
364 4 -8.4930001 4.6900001 -14.8999996 0 0 1 4 7 2 2 0 0 14.2751007
387 4 16.2099991 -11.6999998 0.8142 0 0 1 0 11 3 0 0 0 12.3231402
397 1 -7.4060001 1.337 18.8600006 0 0 0 2 8 2 0 0 0 11.1259537
401 4 -14.0100002 12.4399996 11.1800003 0 0 1 3 7 4 0 0 0 12.7192316
410 4 8.4680004 -4.5279999 7.625 0 0 1 1 9 3 0 0 0 12.4157333
412 1 -6.0339999 12.7799998 -7.4250002 0 0 0 1 10 2 0 0 0 11.6655483
415 2 -7.2350001 1.6360001 -12.9300004 0 0 0 2 8 2 0 0 0 11.317914
419 2 6.0500002 -10.7299996 -11.3199997 0 0 0 3 8 2 0 0 0 11.6242876
420 5 10.3000002 -10.3800001 -10.8500004 0 0 1 4 5 4 0 0 0 12.0482082
432 5 4.5630002 8.9390002 8.1309996 0 0 0 1 10 3 0 0 0 12.6489115
438 4 -12.8000002 -19.9099998 16.3700009 0 0 0 2 10 3 0 0 0 13.1093435
439 4 -7.829 18.8799992 -16.6100006 0 0 0 3 6 4 0 0 0 12.5048819
442 4 5.7189999 16.8299999 -18.3400002 0 0 0 0 12 2 0 0 0 12.375845
453 4 0.9202 0.9227 7.6409998 0 0 1 3 8 2 1 0 0 13.4784537
459 4 -9.9519998 0.7378 -21.2999992 0 0 0 2 8 4 0 0 0 12.766407
465 3 20.0900002 -10.0500002 -15.5699997 0 0 0 1 10 2 0 0 0 11.5184536
477 5 -12.6000004 -4.9190002 -3.5569999 0 0 0 4 4 6 0 0 0 12.4422026
485 4 7.4710002 4.481 -15.6099997 0 0 1 1 9 3 0 0 0 12.0429983
515 5 0.1683 -13.9700004 16.6800003 0 0 0 3 6 4 0 0 0 11.3540802
520 5 5.6490002 -16.9699994 11.2299996 0 0 0 4 6 3 0 0 0 12.3130913
533 4 11.1099997 4.9780002 -4.7280002 0 0 0 0 12 4 0 0 0 12.9739924
537 2 17.2199993 8.6630001 -9.3380003 0 0 0 2 8 1 0 0 0 11.2654209
539 2 -7.0869999 7.6240001 -21.7000008 0 0 0 2 8 2 0 0 0 11.1745567
540 5 -8.4420004 -17.8199997 0.8224 0 0 0 0 12 0 0 0 0 10.6516924
550 4 8.625 -10.5 11.9300004 0 0 0 2 8 5 0 0 0 12.0753288
557 2 -13.3699999 20.9799996 -9.0749998 0 0 0 2 8 2 0 0 0 11.0051632
562 2 4.1209998 -12.9899998 -22.0699997 0 0 0 0 12 0 0 0 0 11.7051068
564 4 14.2200003 -1.624 17.1100006 0 0 1 4 7 3 2 0 0 13.0496387
567 4 7.4549999 -14.2600002 20.7099991 0 0 0 0 12 0 0 0 0 11.1554041
574 5 17.3500004 -16.4400006 -12.87 0 0 0 1 10 3 0 0 0 12.4154844
576 5 -16.4699993 6.5689998 -16.7700005 0 0 0 2 10 0 0 0 0 11.3013106
580 2 17.3099995 -15.6000004 -10.5799999 0 0 0 3 6 3 0 0 0 11.8069716
585 4 12.1499996 -9.1770001 -11.8100004 0 0 1 2 7 5 0 0 0 12.7643795
603 5 -9.8850002 -19.4599991 -0.2317 0 0 0 1 10 2 0 0 0 11.879468
620 4 1.96 16.4500008 8.1920004 0 0 0 2 8 4 0 0 0 12.1972666
622 5 2.257 -5.0450001 5.3270002 0 0 0 0 12 2 0 0 0 11.948947
642 4 -4.877 2.566 -20.1800003 0 0 0 4 6 5 0 0 0 12.7617073
643 5 15.8400002 -0.2261 -17.4899998 0 0 1 4 5 4 0 0 0 12.2694187
650 2 17.9200002 -12.96 17.1599999 0 0 0 0 12 0 0 0 0 11.1872397
653 4 0.3471 -17.0100002 3.563 0 0 0 0 12 4 0 0 0 14.2177038
654 4 1.685 -8.6169997 -0.5125 0 0 0 0 12 2 0 0 0 12.0014467
656 4 6.7410002 -14.3900004 14.8999996 0 0 0 0 12 2 0 0 0 12.3726673
665 4 -7.6469999 -7.5489998 -22.1200008 0 0 0 3 6 4 0 0 0 12.0355549
666 4 -9.4370003 -11.1300001 -0.6188 0 0 0 0 12 2 0 0 0 12.1706562
671 2 19.0200005 -0.7916 17.3400002 0 0 0 0 12 0 0 0 0 11.9994268
673 2 10.3900004 5.7249999 12.5900002 0 0 0 0 12 0 0 0 0 11.462205
679 4 9.8809996 13.4700003 17.6299992 0 0 0 0 12 0 0 0 0 11.3622122
683 5 -5.5819998 11.1499996 19.0300007 0 0 0 1 10 2 0 0 0 11.9222194
687 5 14.9700004 -10.3800001 19.7099991 0 0 0 2 10 1 0 0 0 12.2400885
694 5 -15.79 15.4499998 5.0640001 0 0 1 2 7 5 0 0 0 12.4568672
716 4 1.739 4.4029999 4.4840002 0 0 1 3 8 2 1 0 0 11.8889532
717 4 6.857 -19.8999996 2.1140001 0 0 0 1 10 2 0 0 0 11.983163
728 5 5.849 -0.02089 3.937 0 0 0 1 10 4 0 0 0 12.6691523
740 2 21.6200009 4.4270001 17.7999993 0 0 0 2 8 1 1 0 0 12.2607556
745 4 1.43 -15.9300004 -17.5900002 0 0 0 4 8 0 0 0 0 11.864379
761 5 -4.4829998 12.1099997 -12.4200001 0 0 0 4 5 4 1 0 0 13.3370905
770 4 -18.7199993 -19.6100006 19.3400002 0 0 0 1 10 3 0 0 0 12.7275801
775 2 -2.4549999 -14.2200003 21.4099999 0 0 1 0 11 1 0 0 0 11.633852
776 4 19.7900009 6.6690002 4.9920002 0 0 0 3 8 2 0 0 0 11.9227848
781 4 -6.605 -20.0200005 -11.25 0 0 0 3 7 4 1 0 0 13.1812086
798 5 -7.2340002 21.4799996 -4.2270002 0 0 1 3 6 3 1 0 0 11.8147984
806 4 -6.9369998 4.592 16.4899998 0 0 0 4 7 2 1 0 0 12.0683842
841 5 -9.6490002 21.2999992 -11.9700004 0 0 0 4 6 4 0 0 0 11.6313515
843 2 3.6540001 -3.582 -8.2299996 0 0 0 4 4 5 0 0 0 11.2971344
846 3 18.9300004 -14.5299998 -14.5600004 0 0 0 1 10 2 0 0 0 11.945305
864 2 6.2230001 -3.5179999 1.0980001 0 0 0 3 8 1 0 0 0 11.0703898
897 5 6.3200002 -4.612 11.1300001 0 0 0 2 8 2 0 0 0 11.1387434
905 4 20.1800003 -3.9790002 -2.928 0 0 0 0 12 2 0 0 0 11.5965567
917 5 9.4650002 -13.6300001 19.9400006 0 0 0 0 12 0 0 0 0 11.6429892
949 2 14.5200005 3.9130002 21.3099995 0 0 0 1 10 2 0 0 0 11.1944408
952 2 11.6700001 0.7286001 1.152 0 0 0 0 12 2 0 0 0 12.857357
961 2 -0.8582 -20.1299992 -6.5430002 0 0 0 4 6 3 0 0 0 11.0920115
980 2 -0.1966 20.3199997 17.2000008 0 0 0 0 12 0 0 0 0 11.1552429
990 4 5.3299999 -14.5 -20.6499996 0 0 0 0 12 0 0 0 0 12.1818237
996 5 14.1499996 -9.3269997 15.9200002 0 0 0 1 10 3 0 0 0 11.8514434
999 4 2.1919999 9.3299999 -9.9099998 0 0 1 1 9 5 0 0 0 12.8234959
1009 5 8.3249998 11.3999996 18.0200005 0 0 0 2 10 1 0 0 0 12.5910797
1018 3 23.7199993 18.6200009 13.7700005 0 0 0 2 10 1 0 0 0 12.3820419
1023 2 17.7000008 -2.9920002 -16.4200001 0 0 2 3 6 2 2 0 0 12.2891655
1027 4 -5.626 -11.2700005 17.5 0 0 0 3 7 4 1 0 0 12.2417507
1034 4 13.9700004 7.164 -14.3800001 0 0 0 1 10 2 0 0 0 11.7301827
1039 5 10.5299998 10.6400004 -21.2099991 0 0 0 4 6 3 0 0 0 11.3151188
1040 1 9.1350002 -15.1400003 -21.0300007 0 0 0 3 5 4 1 0 0 11.9063702
1053 4 -15.8400002 -1.28 0.2976 0 0 0 0 12 2 0 0 0 12.3130789
1063 5 18.0400009 -20.1599999 -14.9399996 0 0 0 1 10 2 0 0 0 11.6881752
1067 3 18.25 -6.685 -19.3999996 0 0 1 2 6 5 1 0 0 12.9948912
1068 5 -4.1040001 5.3709998 -1.8 0 0 0 3 6 5 0 0 0 11.7401066
1087 4 -12.6599999 16.7000008 -0.1945 0 0 0 2 10 3 0 0 0 13.0367565
1089 4 -2.5750001 -8.0229998 3.902 0 0 0 1 10 6 0 0 0 13.943306
1091 5 -0.7583 -16.7900009 8.2460003 0 0 2 1 8 3 0 0 0 12.4869442
1094 5 10.2399998 2.763 18.8999996 0 0 0 4 4 4 0 0 0 11.46206
1101 4 -6.8779998 -17.3400002 10.0100002 0 0 0 1 10 2 0 0 0 11.9353658
1111 4 -12.5 -18.8400002 20.4500008 0 0 0 3 8 2 0 0 0 11.5930186
1113 4 13.9799996 4.6869998 18.7800007 0 0 0 3 8 3 0 0 0 12.4897976
1119 4 18.3600006 -6.7459998 19.8899994 0 0 0 0 12 3 0 0 0 12.800396
1127 2 -5.1760001 15.1300001 -2.909 0 0 0 1 10 2 0 0 0 12.2331572
1129 2 18.2900009 19.8299999 20.0300007 0 0 0 0 12 0 0 0 0 11.3318606
1143 5 -4.2950001 11.5100003 -0.005142 0 0 0 3 6 6 0 0 0 12.7246123
1147 4 -11.5900002 0.4714 -10.7700005 0 0 0 2 8 5 0 0 0 12.3686056
1152 2 -10.6999998 -12.1899996 -8.4110003 0 0 0 0 12 0 0 0 0 11.1518259
1158 2 3.803 13.3900004 13.1499996 0 0 0 0 12 0 0 0 0 11.1886406
1161 4 10.6499996 -1.39 -3.0380001 0 0 0 1 10 4 0 0 0 13.2408028
1167 4 20.9799996 -4.6199999 -0.6797 0 0 0 0 12 0 0 0 0 11.1206999
1171 5 -0.6419 -0.8155 14.1599999 0 0 0 2 8 5 0 0 0 12.6801749
1175 4 7.3579998 17.0900002 15.6300001 0 0 0 0 12 4 0 0 0 12.8051119
1185 2 9.6280003 -4.3319998 -21.5599995 0 0 0 0 12 0 0 0 0 11.5339604
1190 2 -8.5620003 -15.9700004 -15.8999996 0 0 0 2 8 2 0 0 0 10.8605434
1191 4 -12.4700003 20.2199993 -12.4200001 0 0 0 4 5 4 1 0 0 12.6714058
1196 2 14.2100001 21.3600006 -18.9799996 0 0 0 3 6 3 0 0 0 11.2597284
1207 5 11.8500004 18.2900009 18.2600002 0 0 0 0 12 0 0 0 0 11.5093785
1208 4 15.8900004 17.7099991 -4.6960001 0 0 0 4 8 2 0 0 0 12.735138
1212 4 9.7360001 -3.441 11.3500004 0 0 1 3 5 4 2 0 0 12.6201706
1214 5 18.0100002 4.606 15.7799998 0 0 1 2 5 5 0 0 0 11.8125401
1216 1 10.5900002 21.3799992 -13.6199999 0 0 0 2 8 3 0 0 0 11.8137579
1217 5 -7.138 9.3070002 3.74 0 0 0 0 12 2 0 0 0 12.5467959
1226 4 11.6000004 18.8199997 -16.2700005 0 0 0 2 8 4 0 0 0 12.2948446
1232 4 -17.1000004 5.4920001 -8.5699997 0 0 0 0 12 3 0 0 0 13.1558132
1245 5 20.1399994 -14.1400003 1.106 0 0 0 2 10 0 0 0 0 11.3509998
1246 4 10.1700001 11.0900002 -10.87 0 0 0 1 12 3 0 0 0 13.7376251
1249 2 -7.2659998 -8.2939997 21.2800007 0 0 0 3 6 4 0 0 0 10.9617004
1250 2 -5.2859998 11.7700005 6.665 0 0 0 2 8 3 0 0 0 11.5447035
1252 4 -14.3599997 -17.2399998 -19.0699997 0 0 0 2 10 2 0 0 0 12.3576574
1261 4 6.4650002 -1.4550001 -0.5278 0 0 0 1 9 3 1 0 0 12.3530216
1269 5 -14.4499998 -19.0799999 -6.927 0 0 1 2 8 3 1 1 0 13.4809809
1270 2 0.7295 5.9369998 0.4027 0 0 0 2 8 4 0 0 0 11.511858
1295 4 -1.873 -21.5799999 -4.671 0 0 0 4 6 4 0 0 0 12.7831574
1305 5 -0.6431 16.8500004 14.4899998 0 0 1 1 9 3 0 0 0 12.6778832
1306 5 -4.0549998 16.2700005 -8.7410002 0 0 0 1 10 3 0 0 0 12.7027283
1318 5 -0.2311 -3.0550001 -13.1700001 0 0 0 1 10 2 0 0 0 11.5394326
1325 4 17.2600002 21.25 4.5409999 0 0 0 2 8 4 0 0 0 11.6585207
1328 2 5.8330002 13.8400002 -6.2189999 0 0 0 3 7 3 1 0 0 12.4120293
1335 5 -3.8239999 -0.2221 20.4400006 0 0 0 2 10 1 0 0 0 12.1833706
1337 4 16.9200002 -13.5200005 -7.3740001 0 0 0 3 6 4 0 0 0 11.3244953
1340 4 15.25 14.8800002 -0.2124 0 0 1 3 4 6 1 0 0 12.5040083
1352 4 -17.4200001 -20.9699994 17.6599999 0 0 0 2 10 4 0 0 0 13.3764105
1357 5 17.3899994 -9.5340004 -5.099 0 0 0 3 8 4 0 0 0 12.831873
1371 4 17.7999993 8.9589996 -1.5950001 0 0 0 0 12 0 0 0 0 11.0517597
1374 4 17.4300003 -6.9569998 1.3660001 0 0 0 1 10 3 0 0 0 12.7014799
1386 2 7.856 1.378 4.5570002 0 0 0 3 6 4 0 0 0 11.4199124
1388 5 13.2200003 -3.201 -7.2329998 0 0 0 2 8 2 0 0 0 11.3670921
1393 4 4.4270001 -6.4580002 4.9790002 0 0 0 1 10 2 0 0 0 11.4280625
1415 4 2.7230001 -13.5200005 -2.1849999 0 0 1 1 10 3 1 0 0 13.1413784
1419 4 13.4399996 -18.0300007 -13.6999998 0 0 0 1 12 1 0 0 0 12.4145517
1427 5 20.1299992 -16.5400009 -2.866 0 0 0 0 12 0 0 0 0 11.5403481
1431 4 -17.4599991 -8.474 2.3469999 0 0 0 0 12 4 0 0 0 13.4192686
1433 5 1.86 -5.2230001 15.2299996 0 0 0 5 4 2 2 0 0 11.7905379
1444 4 -4.3189998 1.7230001 11.3299999 0 0 0 2 8 4 0 0 0 12.234664
1447 4 4.4270001 -19.9699994 14.8299999 0 0 0 4 5 4 1 0 0 12.5683346
1450 1 18.6800003 5.355 -6.283 0 0 0 4 6 2 0 0 0 11.5757437
1452 4 -8.1540003 -8.5129996 -19.5799999 0 0 0 1 10 3 0 0 0 11.8639812
1469 2 4.4400001 -17.2700005 -1.527 0 0 0 1 10 2 0 0 0 11.7910156
1471 5 -16.6399994 -20.0400009 -10.7200003 0 0 1 3 4 5 1 0 0 12.0113945
1487 4 3.29 -15.8000002 -8.6180001 0 0 1 2 7 3 1 0 0 12.4014454
1504 5 10.2799997 5.046 -16.7700005 0 0 1 4 5 4 0 0 0 12.3920736
1516 2 17.4799996 18.3500004 -2.796 0 0 0 0 12 0 0 0 0 11.2643471
1533 2 9.0799999 1.099 -6.0040002 0 0 1 0 11 1 0 0 0 11.2896013
1534 4 7.967 15.75 0.8474 0 0 0 3 7 3 1 0 0 12.5293627
1543 1 -17.2099991 -17.0100002 5.4980002 0 0 0 3 6 2 2 0 0 11.6472073
1548 4 11.8100004 -16.0699997 16.4400006 0 0 0 2 8 4 0 0 0 12.8544788
1550 4 -2.592 -14.3900004 -12.9799996 0 0 0 3 8 3 0 0 0 12.8492908
1561 4 -13.3299999 3.5639999 4.0100002 0 0 0 4 5 5 1 0 0 13.3000603
1566 1 8.5790005 1.259 -8.6160002 0 0 0 1 10 4 0 0 0 12.582078
1581 2 4.3930001 8.7889996 -3.9260002 0 0 1 3 5 5 0 0 0 12.0606327
1584 2 20.2999992 18.8799992 19.1499996 0 0 0 0 12 0 0 0 0 10.9026662
1585 3 -7.6599999 -19.3199997 14.8400002 0 0 0 0 12 0 0 0 0 11.476696
1595 5 3.287 1.174 -12.6099997 0 0 0 2 8 3 0 0 0 12.5860396
1605 5 7.4439998 -5.415 0.1134 0 0 1 1 9 3 0 0 0 12.0874558
1618 4 -1.408 -6.2969999 21.25 0 0 0 1 10 5 0 0 0 13.4790764
1622 4 8.481 14.4200001 -1.758 0 0 0 0 12 3 0 0 0 13.5419655
1625 4 8.672 -6.903 8.349 0 0 0 1 12 2 0 0 0 13.1830483
1630 4 0.8442 -16.7099991 12.5699997 0 0 0 2 8 5 0 0 0 13.2094021
1632 4 0.00385 -5.4980002 -13.4499998 0 0 0 2 8 4 0 0 0 12.0238905
1644 4 6.178 12.9899998 13.87 0 0 2 1 7 3 1 1 0 12.8846732
1661 5 21.0 2.1700001 -19.7199993 0 0 0 1 10 2 0 0 0 12.6082392
1667 4 -4.4959998 9.0030003 -8.9069996 0 0 0 2 10 1 0 0 0 11.7577057
1672 4 9.2620001 -19.2399998 -20.1599999 0 0 0 2 8 4 0 0 0 12.1219978
1687 5 15.1300001 -0.8531 14.5 0 0 1 2 6 3 1 0 0 12.0876989
1694 2 17.25 -0.9769 3.227 0 0 0 0 12 0 0 0 0 11.1646786
1699 4 18.2600002 -7.8400002 8.4209996 0 0 0 2 8 4 0 0 0 12.3486166
1700 5 11.8100004 12.2600002 20.6700001 0 0 1 3 4 5 1 0 0 11.8841076
1705 1 -1.737 -14.6999998 -0.4919 0 0 0 0 12 0 0 0 0 11.2706032
1707 4 16.7900009 4.7129998 -12.25 0 0 0 3 6 4 0 0 0 12.8227692
1712 2 14.4799996 -14.3900004 -20.25 0 0 0 2 8 3 0 0 0 12.0766716
1714 4 17.2099991 0.5278 16.1700001 0 0 1 0 9 1 2 0 0 11.8509494
1724 2 -2.731 -0.202 -12.7700005 0 0 0 0 12 0 0 0 0 10.9473468
1730 5 -3.6400001 -2.2219999 19.0400009 0 0 0 2 10 0 0 0 0 11.7273016
1733 1 -6.6539998 -15.2700005 19.0699997 0 0 0 0 12 0 0 0 0 11.3706503
1737 4 12.5799999 -20.3700009 -0.606 0 0 0 1 10 2 0 0 0 11.9743862
1743 4 -5.8990002 -18.3700009 0.6219 0 0 0 4 10 0 0 0 0 12.3102999
1745 4 -14.8199997 -21.5900002 16.8600006 0 0 0 1 10 2 0 0 0 12.3653488
1750 4 1.324 4.3249998 -1.512 0 0 1 2 7 4 0 0 0 11.5275698
1751 4 -1.2180001 -11.25 -3.0339999 0 0 0 4 6 3 0 0 0 12.1370077
1772 2 -6.191 21.5 -19.7900009 0 0 1 2 7 3 0 0 0 12.2773438
1796 2 11.8800002 -8.257 -20.7000008 0 0 0 2 10 1 0 0 0 11.8815366
1803 2 15.1599999 -4.4169998 -7.026 0 0 1 0 9 3 0 0 0 11.6938181
1805 4 20.7299996 16.6399994 -18.3899994 0 0 0 0 12 0 0 0 0 11.4656134
1813 4 -14.4600001 -3.027 -8.4829998 0 0 0 0 12 2 0 0 0 12.6937571
1834 4 18.9699994 17.4300003 20.9899998 0 0 0 0 12 3 0 0 0 13.6372805
1837 4 -15.4099999 11.25 -18.8799992 0 0 0 0 12 4 0 0 0 13.4504071
1838 2 6.612 18.2299996 -3.0320001 0 0 0 1 10 2 0 0 0 11.3889437
1847 4 17.7299996 -15.9300004 -18.0300007 0 0 1 2 7 5 0 0 0 12.6609335
1849 5 -1.951 -7.7820001 -12.8999996 0 0 1 1 7 5 0 0 0 11.997697
1853 2 19.5699997 21.3299999 -12.6499996 0 0 0 0 12 0 0 0 0 12.0878162
1854 4 15.9700004 -6.962 8.2629995 0 0 0 0 12 0 0 0 0 11.6208601
1860 2 -8.5059996 -4.901 -17.0400009 0 0 0 1 10 2 0 0 0 12.4880171
1865 2 -16.8700008 -8.8129998 14.5299998 0 0 0 3 6 4 0 0 0 12.1639414
1868 4 -13.2799997 5.6479998 6.7620001 0 0 0 0 12 3 0 0 0 13.1892214
1873 4 13.6999998 -19.5200005 -8.3050003 0 0 0 0 12 0 0 0 0 11.6381884
1880 5 7.4730001 -19.2600002 20.3700009 0 0 0 1 10 3 0 0 0 11.9608184
1890 4 -11.6199999 -20.9899998 7.968 0 0 0 2 8 2 0 0 0 11.2829542
1893 2 10.3800001 -10.8900004 1.0599999 0 0 0 0 12 0 0 0 0 11.1510725
1898 5 -12.1400003 17.0699997 20.7000008 0 0 0 0 12 0 0 0 0 11.4686747
1911 4 16.0699997 -13.3000002 5.6869998 0 0 0 4 6 3 0 0 0 11.455761
1921 4 13.4499998 16.0300007 4.3509998 0 0 0 4 6 4 0 0 0 12.0884523
1925 2 13.79 -20.0599995 -15.0100002 0 0 0 1 10 2 0 0 0 12.5703345
1926 4 -2.816 7.6919999 -7.883 0 0 0 0 12 2 0 0 0 12.6085062
1928 4 -1.347 6.1129999 1.398 0 0 0 2 8 4 0 0 0 12.2882366
1934 4 -3.879 17.2299996 -6.3959999 0 0 0 2 8 4 0 0 0 12.9407292
1935 4 5.9990002 -1.861 5.81 0 0 0 0 12 0 0 0 0 11.6151076
1938 4 -4.5900002 -3.4619999 -9.4029999 0 0 1 2 5 5 0 0 0 11.7448893
1943 5 -8.3699999 20.9799996 -18.2800007 0 0 0 2 8 5 0 0 0 13.2197647
1947 5 -6.1389999 1.803 17.0599995 0 0 0 3 8 2 0 0 0 11.9011994
1948 4 -4.5229998 -4.2839999 -11.6199999 0 0 0 1 10 5 0 0 0 13.057291
1954 5 -9.2229996 -10.3000002 14.1000004 0 0 0 1 10 3 0 0 0 12.5969162
1986 4 -4.731 10.75 12.0600004 0 0 0 2 8 2 0 0 0 12.1758394
1993 5 -11.6800003 -7.8379998 -17.3799992 0 0 1 1 8 4 1 0 0 13.2561522
1996 4 -4.9569998 15.0 6.2849999 0 0 0 2 8 5 0 0 0 12.3188448
1998 2 -1.314 3.9200002 7.6539998 0 0 0 4 7 2 1 0 0 12.5299797
2001 4 9.0220003 -5.5609999 5.547 0 0 1 1 9 4 0 0 0 12.4285803
2006 5 -12.5299998 -10.5200005 -20.6399994 0 0 1 2 7 3 0 0 0 11.4102678
2009 4 -12.25 -18.1700001 -1.201 0 0 0 1 12 2 0 0 0 12.741333
2020 2 13.5200005 -3.0680001 4.039 0 0 0 2 8 2 0 0 0 11.7491551
2022 5 16.7600003 -12.29 19.3500004 0 0 0 0 12 2 0 0 0 12.4221478
2027 4 -3.86 -3.7019999 14.1000004 0 0 1 2 9 3 0 0 0 12.28619
2028 2 -8.3710003 6.4289999 1.243 0 0 0 2 8 4 0 0 0 12.0235605
2050 2 -15.5200005 -20.2999992 -15.5799999 0 0 0 4 4 4 0 0 0 10.9811812
2052 5 -12.7799998 19.5300007 2.718 0 0 0 0 12 0 0 0 0 11.7804652
2055 4 8.0120001 -3.7320001 -10.3199997 0 0 0 1 10 4 0 0 0 13.3566742
2056 5 16.6900006 11.5100003 9.9390002 0 0 0 1 10 2 0 0 0 12.7107287
2062 2 8.5570002 15.4799996 -15.5900002 0 0 1 2 7 3 0 0 0 11.4588681
2073 4 -3.721 -14.4300003 -19.8500004 0 0 2 0 10 2 0 0 0 12.3709803
2081 5 -16.9200002 -15.3599997 1.6900001 0 0 1 1 9 2 0 0 0 11.3331614
2082 2 17.3500004 15.9099998 11.5699997 0 0 1 2 7 3 0 0 0 12.0443058
2083 4 -2.73 -19.4400006 -13.8500004 0 0 0 3 10 1 0 0 0 12.4101353
2087 5 -11.5100003 -8.6260004 -7.0510001 0 0 1 3 5 3 2 0 0 12.345604
2089 1 18.8899994 -13.79 -18.8099995 0 0 0 3 6 4 0 0 0 12.4447088
2093 5 -4.0079999 -15.1400003 11.4200001 0 0 0 0 12 0 0 0 0 11.4438439
2095 4 -1.151 -10.0799999 -19.8999996 0 0 0 2 8 6 0 0 0 13.400609
2096 5 -18.4300003 -5.4959998 12.75 0 0 1 1 8 3 1 0 0 11.4869843
2143 2 5.7379999 2.937 16.8999996 0 0 1 2 7 5 0 0 0 12.800272
2154 4 17.3899994 14.4600001 -1.691 0 0 0 2 8 4 0 0 0 13.2071695
2155 4 -6.553 20.5200005 -22.0799999 0 0 0 1 10 2 0 0 0 11.4133835
2160 2 11.7100001 9.3330002 2.7260001 0 0 1 2 7 3 0 0 0 11.5146389
2167 5 17.2299996 14.2700005 9.2130003 0 0 0 2 8 7 0 0 0 14.5143214
2176 5 8.3999996 13.4799996 0.8601 0 0 0 3 7 3 1 0 0 11.9486562
2178 4 -11.7600003 -19.8400002 -5.6100002 0 0 1 1 8 5 1 0 0 13.6248856
2181 4 -9.1800003 8.1540003 15.8900004 0 0 0 0 12 4 0 0 0 12.981537
2185 2 -15.7100001 -21.3799992 -6.849 0 0 0 3 6 4 0 0 0 11.6812363
2187 2 -3.8540002 9.757 18.1900005 0 0 0 1 10 2 0 0 0 11.0512285
2197 2 19.7199993 17.1299992 5.8140002 0 0 0 3 8 1 0 0 0 11.852934
2207 5 13.7799998 -8.5559998 -8.0799999 0 0 2 3 4 4 0 0 0 12.3247996
2212 4 -11.29 -5.0580001 -17.4799996 0 0 3 3 4 4 3 0 0 13.828991
2241 4 4.5159998 -5.1609998 0.9259 0 0 0 1 10 4 0 0 0 12.3932104
2274 1 -7.7690001 -19.9699994 0.8245 0 0 0 3 6 4 0 0 0 11.2553177
2290 4 -4.6539998 -20.4799996 12.9399996 0 0 0 1 10 2 0 0 0 12.1546516
2291 2 -13.3900004 15.9300004 -14.2799997 0 0 0 2 8 4 0 0 0 11.3203182
2295 1 6.4070001 -1.214 18.0200005 0 0 0 0 12 0 0 0 0 11.8539286
2306 4 22.8099995 9.1199999 4.909 0 0 0 1 10 2 0 0 0 11.7702542
2315 4 15.6000004 0.07637 -21.5900002 0 0 1 3 6 1 1 0 0 11.5938263
2324 1 12.1300001 -9.8940002 10.04 0 0 1 3 5 5 0 0 0 12.1078425
2325 4 -16.0599995 -6.8369999 -7.0359998 0 0 0 2 8 4 0 0 0 11.9087362
2333 2 8.3100004 21.5200005 19.75 0 0 0 0 12 0 0 0 0 11.0976934
2334 5 -1.311 8.7360001 14.4700003 0 0 0 4 4 6 0 0 0 12.6824007
2341 4 21.2199993 8.967 -10.0299997 0 0 0 2 8 4 0 0 0 12.1450462
2342 3 1.216 6.8060003 -16.1399994 0 0 0 0 12 0 0 0 0 11.1347103
2346 4 -16.0100002 -2.7550001 4.349 0 0 0 2 8 5 0 0 0 13.2149973
2356 3 18.9099998 -1.834 -9.9139996 0 0 0 1 12 2 0 0 0 12.7876568
2377 4 5.0469999 -19.9599992 21.0900002 0 0 0 0 12 0 0 0 0 11.2242642
2388 4 -5.0320001 7.6669998 -1.785 0 0 0 1 10 3 0 0 0 12.1415014
2389 2 -15.4399996 -15.5799999 -17.6100006 0 0 0 3 6 4 0 0 0 11.3363629
2400 2 -13.0100002 -1.067 20.1100006 0 0 0 4 5 4 1 0 0 12.6438761
2409 5 -6.9369998 21.3299999 19.9200002 0 0 0 3 8 3 0 0 0 11.9431964
2411 4 16.8199997 -18.1900005 -2.6770001 0 0 0 4 5 3 1 0 0 12.2527819
2414 1 1.069 7.6160002 15.1800003 0 0 0 3 8 2 0 0 0 12.2714749
2428 4 -7.5850001 14.0600004 13.2600002 0 0 0 2 10 1 0 0 0 12.0320072
2437 2 -12.0900002 9.7910004 18.4300003 0 0 0 3 6 4 0 0 0 11.2350502
2438 1 9.757 -9.9639998 -1.077 0 0 0 0 12 0 0 0 0 10.7152863
2440 4 10.8599998 -12.2200003 -0.929 0 0 0 3 8 3 0 0 0 12.5826578
2465 5 -2.873 -9.6669998 7.5799999 0 0 1 4 7 2 0 0 0 12.4898634
2476 1 11.0100002 -21.8299999 19.4899998 0 0 0 2 8 2 0 0 0 11.1309509
2480 4 12.9300004 11.4399996 -20.4799996 0 0 0 0 12 3 0 0 0 12.7180376
2502 4 -7.197 -11.3000002 -2.1619999 0 0 0 2 10 1 0 0 0 11.7702055
2504 2 -9.7250004 -9.1140003 -14.8100004 0 0 2 0 8 2 2 0 0 11.3439789
2509 4 -10.1800003 17.9599992 -21.0300007 0 0 0 2 8 4 0 0 0 13.0498056
2511 5 -6.6409998 6.2340002 -3.7290001 0 0 0 4 4 6 0 0 0 12.8519736
2519 4 7.356 -8.8610002 17.4300003 0 0 0 1 9 2 1 0 0 12.2893019
2520 4 2.108 -18.8299999 -5.8909998 0 0 2 2 6 6 0 0 0 12.4726963
2521 2 5.2140002 5.3480001 13.1999998 0 0 0 1 10 2 0 0 0 11.6269779
2526 2 -6.4489999 15.6099997 18.0599995 0 0 0 3 6 4 0 0 0 11.3537855
2534 5 -7.4099999 9.2600002 -17.2299996 0 0 1 2 7 5 0 0 0 12.4997235
2535 5 -6.507 -5.2969999 3.964 0 0 0 2 8 5 0 0 0 12.5074845
2565 4 -7.962 9.7089997 -21.8799992 0 0 0 2 10 2 0 0 0 11.83978
2577 3 -1.9 -3.1960001 10.3699999 0 0 0 0 12 4 0 0 0 13.2360659
2582 2 2.336 13.8800002 -11.6199999 0 0 0 1 10 2 0 0 0 11.5735789
2587 4 23.4200001 16.6800003 9.2060003 0 0 0 1 10 4 0 0 0 13.0618496
2588 2 21.5300007 13.4899998 -10.4200001 0 0 0 2 8 4 0 0 0 11.7033816
2590 4 -7.0469999 11.0 11.1000004 0 0 0 1 10 3 0 0 0 12.7046957
2592 3 -14.3500004 14.8800002 -21.0900002 0 0 0 3 8 3 0 0 0 11.9616042
2594 2 4.079 3.283 -17.1700001 0 0 0 2 8 3 0 0 0 11.9914132
2595 5 -18.8899994 -16.1200008 3.4360001 0 0 0 2 10 2 0 0 0 12.3858662
2600 1 12.2399998 18.3700009 10.4399996 0 0 0 3 6 5 0 0 0 11.7579413
2608 5 3.0009999 -10.2600002 10.1899996 0 0 0 4 5 5 1 0 0 12.7005186
2613 5 -11.4499998 -10.6700001 20.2700005 0 0 0 3 8 2 0 0 0 11.7327461
2615 2 8.0120001 -20.4300003 6.678 0 0 0 2 8 2 0 0 0 11.3604069
2623 3 -16.2700005 2.1070001 -20.5799999 0 0 1 2 7 6 0 0 0 14.0312643
2648 2 2.2590001 -5.6030002 -14.2200003 0 0 0 0 12 0 0 0 0 10.9252224
2651 4 13.1999998 -20.2600002 9.9580002 0 0 0 0 12 2 0 0 0 12.8325529
2659 4 16.9899998 -3.141 -8.7030001 0 0 0 1 10 2 0 0 0 12.2240772
2672 2 -9.8549996 -14.5900002 11.2299996 0 0 1 4 4 3 1 0 0 11.737155
2677 4 21.1700001 19.1399994 6.0710001 0 0 0 1 10 2 0 0 0 12.4498539
2680 4 16.3799992 -6.8179999 18.4099999 0 0 0 3 8 2 0 0 0 12.2072334
2692 4 -15.79 -8.3389998 -5.0830002 0 0 0 3 6 4 0 0 0 11.3844442
2697 1 -14.4799996 17.9300004 -1.724 0 0 0 3 6 5 0 0 0 12.431736
2706 4 14.1700001 4.1240001 -12.6400004 0 0 0 2 8 5 0 0 0 12.8246565
2715 4 5.7659998 -5.0910001 18.0300007 0 0 0 2 8 4 0 0 0 12.0997229
2719 4 1.6310001 -8.1379995 -10.9300004 0 0 0 0 12 0 0 0 0 12.3268175
2723 4 22.0499992 10.3199997 2.962 0 0 0 0 12 4 0 0 0 13.8285961
2741 5 13.1800003 13.1400003 1.386 0 0 0 2 8 2 0 0 0 10.669014
2771 5 7.3509998 -17.8700008 10.1199999 0 0 0 4 6 3 0 0 0 11.010747
2773 2 9.5150004 -17.9899998 -15.2600002 0 0 0 1 10 2 0 0 0 12.0423841
2784 5 -2.0669999 -20.75 1.91 0 0 0 2 8 5 0 0 0 13.0267324
2803 5 -9.3660002 -14.5 -8.6599999 0 0 0 1 10 2 0 0 0 12.4831362
2805 4 14.3299999 11.3999996 -2.6229999 0 0 0 3 8 4 0 0 0 13.3900204
2813 4 -8.0900002 -6.8740002 -10.5600004 0 0 0 2 10 3 0 0 0 13.7665596
2823 4 0.89 -21.3700009 20.1599999 0 0 0 0 12 2 0 0 0 12.5491524
2830 4 -3.786 21.4899998 11.1099997 0 0 0 2 8 4 0 0 0 12.936326
2840 2 -5.2789998 19.3299999 3.8870002 0 0 1 2 7 2 0 0 0 11.3136034
2848 4 -3.5980001 -7.5949998 6.4689999 0 0 0 2 8 2 0 0 0 11.602952
2850 4 -3.612 4.3340001 10.8400002 0 0 0 2 10 1 0 0 0 12.0121536
2860 1 3.694 -1.05 -18.6499996 0 0 1 4 3 5 0 0 0 11.7678175
2862 3 18.6599999 -20.3099995 -10.5799999 0 0 0 1 10 4 0 0 0 12.908331
2864 4 -4.836 17.8500004 20.9200002 0 0 0 1 10 4 0 0 0 12.9926414
2871 5 -8.2010002 15.1999998 -12.9799996 0 0 1 4 5 3 2 0 0 12.9082786
2878 2 1.043 -6.9499998 8.934 0 0 0 4 4 4 2 0 0 12.502389
2900 4 3.3659999 4.513 -21.6200009 0 0 0 1 10 2 0 0 0 11.7270308
2911 4 2.3829999 18.7399998 -12.3800001 0 0 0 0 12 2 0 0 0 11.9821644
2929 4 -13.6300001 -13.6800003 -13.7799998 0 0 0 4 6 5 0 0 0 12.5822535
2942 4 -3.6070001 -18.7199993 14.6800003 0 0 0 3 6 4 0 0 0 12.4606285
2961 4 1.63 -10.4799996 -9.7959996 0 0 0 1 12 3 0 0 0 13.7037869
2993 4 15.7700005 21.1700001 -17.1499996 0 0 0 1 10 4 0 0 0 12.3780842
2994 4 -4.8850002 -9.5419998 -1.296 0 0 0 0 12 3 0 0 0 12.8258009
2995 2 7.4039998 -2.0369999 15.4099999 0 0 0 2 8 5 0 0 0 12.6266213
2997 2 -16.4099999 -8.1639996 -21.2900009 0 0 1 0 11 1 0 0 0 12.3343802
2999 2 19.1800003 21.3299999 0.9881 0 0 1 2 7 2 0 0 0 11.5459624
3019 4 19.7399998 16.8400002 -8.9329996 0 0 0 1 10 5 0 0 0 14.0554562
3020 5 16.25 6.1350002 -19.0699997 0 0 1 3 5 5 0 0 0 12.0996399
3021 5 -3.1170001 -9.1129999 0.6835 0 0 0 1 10 4 0 0 0 12.8191357
3024 5 -2.9330002 7.6500001 -21.2199993 0 0 0 3 8 4 0 0 0 12.9644232
3048 4 3.8870002 11.0600004 14.3599997 0 0 1 0 10 4 1 0 0 13.5095864
3056 4 12.8299999 -15.0799999 -7.5570002 0 0 0 4 7 4 1 0 0 12.8602868
3064 2 16.9099998 -14.8100004 -20.3400002 0 0 0 1 10 2 0 0 0 12.3527146
3066 2 -17.1700001 5.0180001 -12.79 0 0 0 2 8 2 0 0 0 12.1281366
3070 4 13.9899998 4.868 14.6199999 0 0 0 3 10 0 0 0 0 11.5117741
3072 4 -12.96 -4.6550002 -19.2399998 0 0 0 2 10 1 0 0 0 12.0007
3083 4 -12.29 -10.3800001 -9.0459995 0 0 0 3 8 3 0 0 0 12.3577166
3101 5 21.2700005 1.594 -6.1630001 0 0 0 3 6 4 0 0 0 11.8151999
3110 2 6.5479999 17.4400006 2.142 0 0 1 3 4 5 1 0 0 11.9487296
3119 5 14.3500004 11.3500004 14.04 0 0 1 1 9 3 0 0 0 12.3637447
3126 2 -14.6999998 -1.793 18.0 0 0 0 1 10 2 0 0 0 11.9525242
3129 2 2.7650001 15.1800003 -7.4980002 0 0 0 2 8 2 0 0 0 11.2230873
3137 2 4.5520001 -3.188 -19.0699997 0 0 1 2 7 2 0 0 0 11.8824778
3142 2 -8.3330002 13.6199999 -16.9099998 0 0 0 0 12 2 0 0 0 13.1836996
3145 2 -3.3310001 -21.7900009 -9.1429997 0 0 0 1 10 2 0 0 0 11.9430352
3164 2 18.2600002 -15.54 0.2412 0 0 0 1 10 2 0 0 0 12.0807123
3169 5 -2.264 17.7600003 7.903 0 0 1 3 4 4 1 0 0 12.3108368
3174 4 -5.1170001 -3.2160001 17.1399994 0 0 0 2 11 1 1 0 0 13.8061371
3190 2 1.426 14.1199999 8.7779999 0 0 0 0 12 0 0 0 0 12.0841303
3193 2 17.4899998 2.6429999 8.7519999 0 0 0 2 8 3 0 0 0 11.9975576
3219 4 -3.7049999 7.29 18.8999996 0 0 0 4 4 3 2 0 0 12.0283985
3223 4 19.2000008 -15.5299998 -20.7199993 0 0 0 2 10 2 0 0 0 12.6407662
3231 5 12.9499998 18.9200002 3.2379999 0 0 1 1 11 2 0 0 0 13.0085936
3238 5 3.579 -21.4400006 19.2299996 0 0 0 1 10 4 0 0 0 13.174139
3240 1 -11.4200001 20.2000008 -3.593 0 0 0 1 10 2 0 0 0 11.0653868
3242 2 -2.312 0.7497 13.0600004 0 0 1 4 5 4 0 0 0 12.962697
3248 4 -17.2199993 -6.4660001 6.626 0 0 0 0 12 3 0 0 0 13.6489773
3253 5 8.9119998 4.8979998 10.6000004 0 0 0 1 10 3 0 0 0 13.1740694
3257 4 2.902 -15.4799996 -21.4500008 0 0 0 1 10 4 0 0 0 13.3659983
3274 2 -1.092 15.7700005 16.6399994 0 0 0 3 6 4 0 0 0 11.2294359
3278 4 16.4400006 -8.1020002 -18.8299999 0 0 0 2 8 0 2 0 0 11.1409168
3282 5 6.4749999 15.0900002 20.5599995 0 0 0 0 12 2 0 0 0 12.3797865
3283 4 -14.6099997 17.4599991 -21.8500004 0 0 1 3 7 4 0 0 0 12.6210194
3298 5 -4.5 0.3459 9.2229996 0 0 0 3 8 3 0 0 0 12.2336035
3303 5 -5.3909998 -8.2460003 14.5299998 0 0 1 0 11 1 0 0 0 11.3365307
3313 2 -1.2330001 -8.3570004 6.1609998 0 0 1 0 9 3 0 0 0 12.1172857
3317 5 14.7299996 4.474 0.9994 0 0 0 0 12 0 0 0 0 11.554081
3323 5 13.04 14.2299996 -16.4099999 0 0 1 1 7 3 2 0 0 12.2591725
3338 5 1.3200001 -5.5580001 -19.1700001 0 0 0 3 6 4 0 0 0 11.7084656
3344 4 -16.4699993 7.1170001 -0.9049 0 0 0 1 10 2 0 0 0 11.8236714
3351 1 -9.4230004 17.7299996 10.3999996 0 0 2 5 0 5 2 0 0 11.7663689