ITEM: TIMESTEP
0
ITEM: NUMBER OF ATOMS
50688
ITEM: BOX BOUNDS xy xz yz pp pp pp
-20.3673 64.6417313 4.7294278
-22.2210007 65.3610001 0.0
-22.2210007 65.3610001 0.0
ITEM: ATOMS id type x y z VoronoiIndex1 VoronoiIndex2 VoronoiIndex3 VoronoiIndex4 VoronoiIndex5 VoronoiIndex6 VoronoiIndex7 VoronoiIndex8 VoronoiIndex9 AtomicVolume
7 2 -10.0299997 -13.8100004 -3.2130001 0 0 0 2 10 1 0 0 0 11.7705937
21 2 -12.7799998 1.99 14.3000002 0 0 0 0 12 0 0 0 0 11.3668881
26 5 -14.5200005 -17.5200005 -8.8520002 0 0 0 3 8 5 0 0 0 13.2116013
28 2 5.5300002 4.7540002 -10.29 0 0 0 0 12 0 0 0 0 11.0578499
36 2 14.54 -15.1199999 -20.9300004 0 0 0 0 12 0 0 0 0 11.4326859
38 5 9.2930002 -11.3299999 17.5599995 0 0 0 2 10 0 0 0 0 12.0761347
42 2 12.0699997 -3.6180001 -21.4899998 0 0 0 0 12 0 0 0 0 11.5204354
43 5 1.085 12.8000002 10.0500002 0 0 0 3 6 4 0 0 0 11.5561238
50 2 14.4099999 -3.5539999 -21.9300004 0 0 0 0 12 0 0 0 0 11.328105
61 4 -10.5600004 -8.6400004 -3.3010001 0 0 0 3 6 4 0 0 0 12.3504543
66 4 -16.4400006 -5.4310003 -2.3970001 0 0 0 2 8 4 0 0 0 12.4219332
68 1 -16.2399998 -0.5189 2.972 0 0 1 3 3 4 0 0 0 11.1892233
98 2 3.848 -8.3999996 18.8400002 0 0 0 0 12 0 0 0 0 10.6930561
119 5 -16.5200005 21.5400009 -4.9050002 0 0 0 1 10 1 1 0 0 12.0613632
128 5 -10.4799996 6.0780001 -10.75 0 0 0 3 6 6 0 0 0 12.6745167
146 4 3.3180001 9.3760004 -11.4300003 0 0 0 0 10 4 0 0 0 13.0709839
150 2 -12.6700001 7.9130002 8.9209996 0 0 0 3 6 5 0 0 0 11.811225
171 2 7.1079998 -0.7291 -3.181 0 0 0 1 10 2 0 0 0 11.65765
176 5 11.6899996 -20.3400002 11.8199997 0 0 0 2 8 3 0 0 0 11.7479763
177 5 14.0 15.0100002 -19.6800003 0 0 0 3 6 4 0 0 0 11.2621899
181 5 -6.0209999 -11.2399998 5.901 0 0 0 0 12 0 0 0 0 10.9921952
191 5 -10.87 5.5619998 -13.2399998 0 0 1 1 8 3 1 0 0 12.1684589
200 4 -15.1899996 -10.9200002 12.0500002 0 0 1 4 5 4 0 0 0 12.4110298
216 2 14.1099997 16.6700001 12.04 0 0 0 0 12 0 0 0 0 11.3252201
219 4 11.9700004 -2.7690001 15.9899998 0 0 1 0 9 3 0 0 0 11.7862807
220 2 -5.2329998 17.6700001 -5.3260002 0 0 0 1 10 2 0 0 0 11.9801932
231 4 -13.8299999 3.533 7.0289998 0 0 1 2 7 3 0 0 0 11.8738298
240 2 2.958 10.7700005 6.0869999 0 0 0 3 6 4 0 0 0 11.7590781
243 4 7.7140003 17.7999993 -2.0969999 0 0 0 2 10 2 0 0 0 12.2890844
244 5 -6.3720002 -12.8199997 -20.7999993 0 0 1 1 8 3 1 0 0 12.5455628
245 1 18.5100003 -17.3600006 5.5780001 0 0 0 2 8 4 0 0 0 12.1131887
249 4 -4.8400002 -6.0770001 19.0499992 0 0 0 1 12 2 0 0 0 13.3794117
260 2 -16.7199993 6.6090002 -15.6599999 0 0 0 2 10 1 0 0 0 11.899314
262 2 2.4820001 2.81 9.3879995 0 0 0 4 6 3 0 0 0 12.636672
263 1 -6.5630002 -2.896 -16.4400006 0 0 0 0 12 0 0 0 0 11.3049154
266 5 19.8400002 -18.2000008 16.5100003 0 0 0 2 8 5 0 0 0 12.9880944
272 4 -18.6900006 -9.1389999 -18.5100003 0 0 0 0 12 2 0 0 0 12.5488224
277 4 -13.75 -0.2141 -6.5390001 0 0 1 2 9 3 0 0 0 12.4160996
283 5 -1.828 10.6700001 -10.9499998 0 0 0 1 10 4 0 0 0 13.016489
298 4 -5.2420001 17.4300003 3.451 0 0 0 1 10 4 0 0 0 12.7494602
301 1 -12.3999996 18.8500004 20.2000008 0 0 1 4 3 5 0 0 0 11.491396
311 5 -10.2100001 14.0500002 -4.6370001 0 0 0 0 14 2 0 0 0 13.3066502
318 5 -1.351 -14.4499998 -6.2870002 0 0 1 2 7 4 0 0 0 11.4657755
322 4 -8.2819996 -8.481 2.9690002 0 0 0 0 12 2 0 0 0 12.3462029
335 1 -15.8999996 -18.4099999 -5.8220001 0 0 0 2 8 4 0 0 0 12.4961329
336 4 -9.6289997 -16.6000004 -2.421 0 0 0 1 10 2 0 0 0 11.5980311
362 5 -8.0559998 -9.7609997 -4.1399999 0 0 0 1 11 2 1 0 0 13.870759
370 5 -14.5 -17.1599999 -11.5799999 0 0 0 0 12 2 0 0 0 12.9329596
372 5 11.4899998 -19.6700001 3.9760002 0 0 0 1 10 2 0 0 0 12.5431013
377 5 -4.1859999 15.9200002 -0.6184 0 0 0 1 10 4 0 0 0 13.2963886
398 1 -1.5 0.5894 -1.1770001 0 0 0 2 8 3 0 0 0 11.6615334
416 2 -7.6989999 -21.1700001 -11.4899998 0 0 0 2 8 2 0 0 0 11.657816
431 2 -4.0029998 19.7700005 -19.5200005 0 0 0 1 10 2 0 0 0 11.1946621
439 4 -15.0 -8.2609997 15.4799996 0 0 1 3 7 4 0 0 0 12.3874569
442 4 3.5480001 -20.9799996 -12.6199999 0 0 0 1 10 4 0 0 0 13.2497358
452 4 -12.1599999 -21.9300004 -20.3999996 0 0 0 1 10 2 0 0 0 11.6294527
482 4 7.4099999 -0.2029 -19.6800003 0 0 0 1 10 2 0 0 0 12.1686716
506 4 -2.158 -0.05294 16.5200005 0 0 1 1 9 2 2 0 0 12.3139849
527 5 11.3800001 -5.0100002 4.6570001 0 0 0 2 8 4 0 0 0 11.5987997
531 5 21.1000004 6.4600001 12.6400004 0 0 1 2 7 5 0 0 0 12.9109946
537 2 2.7550001 17.8299999 4.6690002 0 0 1 2 7 2 0 0 0 11.3711949
539 2 1.662 -22.1800003 -16.4699993 0 0 0 3 8 4 0 0 0 12.1130066
548 4 0.8648 -7.89 1.5060001 0 0 0 0 12 0 0 0 0 11.9149638
549 5 -14.1499996 12.6099997 -16.9400006 0 0 1 2 9 3 0 0 0 12.0244532
553 4 9.9790002 4.8649998 -21.4400006 0 0 0 0 12 0 0 0 0 11.0749779
559 4 16.9699994 5.7529998 -21.4099999 0 0 0 3 8 2 0 0 0 11.7051659
561 4 5.375 15.2299996 -5.5289998 0 0 0 3 6 5 0 0 0 12.1962843
564 4 -2.708 4.23 -11.8000002 0 0 0 1 10 3 0 0 0 12.6422854
569 2 9.7690001 -3.3150001 4.5549999 0 0 0 3 6 4 0 0 0 11.8987914
570 4 -14.8400002 -20.4799996 -5.8309999 0 0 0 2 8 2 0 0 0 11.2524843
571 5 -13.0500002 5.8140002 7.988 0 0 2 1 7 3 1 1 0 12.4991656
587 5 19.8400002 16.9200002 16.5499993 0 0 0 1 10 2 0 0 0 11.9205894
597 2 0.3827 -17.7000008 -13.54 0 0 0 3 6 5 0 0 0 11.5698891
613 5 17.6700001 -5.2230001 -1.868 0 0 0 2 8 4 0 0 0 11.9758874
618 2 0.6841 6.6090002 -12.7799998 0 0 0 0 12 0 0 0 0 11.0675316
623 4 18.1100006 17.1200008 4.6859999 0 0 0 4 8 1 0 0 0 12.454238
638 5 -10.6499996 -8.7329998 8.7629996 0 0 0 3 6 3 0 0 0 11.9510728
643 5 -10.3400002 4.1789999 2.1300001 0 0 0 1 10 2 0 0 0 11.1692915
645 5 -11.3100004 16.7999993 5.9310002 0 0 0 2 8 4 0 0 0 11.7912236
654 4 5.796 -16.9400006 1.671 0 0 1 2 7 3 2 0 0 12.1171722
671 2 4.1830001 -9.7159996 9.3950005 0 0 0 0 12 0 0 0 0 11.0473347
681 2 -14.3800001 20.3999996 -8.0860004 0 0 0 3 6 4 0 0 0 11.3149128
699 5 19.5900002 3.4719999 2.866 0 0 0 2 8 4 0 0 0 12.5199604
718 2 -19.4500008 -20.0799999 -17.9300004 0 0 2 3 4 5 0 0 0 11.2924414
727 5 -4.685 -20.6499996 21.3199997 0 0 0 4 5 3 3 0 0 12.5888109
729 1 2.425 -21.9200002 9.2150002 0 0 0 2 7 2 1 0 0 11.1910505
741 4 5.3520002 15.5299998 2.0350001 0 0 0 3 6 5 0 0 0 12.635047
742 4 13.8800002 2.7679999 9.7019997 0 0 0 5 3 4 1 0 0 11.742774
755 5 16.2900009 -14.1999998 -17.5100003 0 0 0 2 8 4 0 0 0 11.7648487
758 2 7.27 11.6199999 14.9799996 0 0 0 2 10 0 0 0 0 11.892622
760 1 9.1669998 8.96 -17.25 0 0 0 0 12 0 0 0 0 10.8380509
762 5 20.1200008 -5.4270001 -8.0939999 0 0 0 3 6 6 0 0 0 12.9464998
765 1 -1.834 12.0900002 -21.1700001 0 0 0 0 12 0 0 0 0 11.6883011
818 5 7.704 10.0600004 5.8280001 0 0 1 2 7 5 0 0 0 12.8196287
842 5 12.1800003 1.052 -6.527 0 0 0 2 10 2 0 0 0 12.2042475
849 4 -1.383 3.6140001 12.0100002 0 0 1 2 6 3 1 0 0 11.3856869
850 5 5.2379999 18.3799992 -18.0100002 0 0 0 0 12 0 0 0 0 10.9082718
870 2 -18.3899994 9.9320002 -1.435 0 0 0 0 12 0 0 0 0 10.8072148
882 3 -7.8390002 16.5900002 16.3500004 0 0 0 2 8 5 0 0 0 13.2209063
899 4 0.02907 -9.3240004 -0.4926 0 0 0 0 12 2 0 0 0 12.5292111
901 4 1.364 19.2800007 -1.474 0 0 0 0 12 2 0 0 0 12.1378813
915 5 -3.8540002 -22.1499996 -3.7790001 0 0 0 1 10 2 0 0 0 12.6606684
926 5 0.619 7.5879998 8.9750004 0 0 0 2 10 3 0 0 0 12.994588
936 1 2.3039999 13.29 -14.7799998 0 0 0 0 12 0 0 0 0 10.6754685
941 5 2.8069999 5.0949998 14.1800003 0 0 0 1 10 4 0 0 0 13.1109209
946 4 -0.9694 -13.5600004 20.9400006 0 0 0 0 12 2 0 0 0 12.1142607
950 3 -1.003 -1.586 6.158 0 0 1 2 9 4 0 0 0 13.5706616
951 5 9.8839998 16.6299992 -1.097 0 0 1 1 11 1 1 0 0 12.9566336
958 5 13.9899998 8.0439997 -2.0250001 0 0 0 2 10 1 0 0 0 11.4628821
961 2 -1.532 18.7000008 -17.3799992 0 0 0 1 10 2 0 0 0 11.7283468
962 4 -5.2189999 -14.6000004 -11.5799999 0 0 0 1 10 3 0 0 0 12.0327292
963 5 -7.579 -12.6000004 -15.4499998 0 0 0 4 4 6 0 0 0 11.8585548
978 4 -17.0499992 -19.2700005 13.4200001 0 0 0 1 10 2 0 0 0 11.9919892
990 4 12.6800003 16.4699993 -0.8825 0 0 2 1 10 2 0 0 0 13.4666386
995 1 2.5680001 -17.0 13.0699997 0 0 0 0 12 2 0 0 0 12.0510836
1007 2 4.1290002 -4.8309999 -2.5510001 0 0 0 0 12 0 0 0 0 10.974722
1010 4 -14.9799996 4.0300002 -20.6499996 0 0 1 2 7 5 0 0 0 13.0666304
1025 1 3.4790001 -12.8599998 11.79 0 0 1 3 5 5 0 0 0 11.3157692
1027 4 19.4300003 -9.5249996 8.4399996 0 0 0 0 12 3 0 0 0 13.0439272
1047 4 -8.7270003 21.0100002 2.694 0 0 0 3 8 2 0 0 0 11.8185206
1050 1 2.3 -10.1499996 18.6000004 0 0 0 2 10 0 0 0 0 11.0210495
1051 4 6.329 17.0900002 -19.6200009 0 0 0 0 12 0 0 0 0 11.4685412
1055 2 11.1300001 5.507 -8.0469999 0 0 0 2 8 3 0 0 0 11.4292345
1057 4 14.6199999 -8.4860001 -11.9399996 0 0 0 2 10 1 0 0 0 12.2237806
1059 4 -4.5630002 13.0799999 2.6670001 0 0 0 3 6 5 0 0 0 11.9451294
1063 5 -9.7770005 9.6090002 9.4720001 0 0 1 1 9 4 0 0 0 12.8234425
1068 5 -18.0 14.9499998 -3.0550001 0 0 0 1 10 3 0 0 0 12.0952673
1089 4 14.3199997 -20.3899994 -16.5300007 0 0 0 0 12 3 0 0 0 12.6017132
1094 5 -17.4200001 0.7562 11.2600002 0 0 2 2 3 6 1 0 0 12.4256563
1110 5 3.847 -2.3350001 18.5499993 0 0 0 2 8 5 0 0 0 12.075594
1118 1 15.9499998 -13.8500004 0.9436 0 0 0 0 12 0 0 0 0 11.2831125
1128 2 4.8109999 -19.0599995 0.7525 0 0 2 0 8 2 2 0 0 11.4015522
1153 5 7.395 -15.3299999 19.2700005 0 0 0 0 12 0 0 0 0 12.1161079
1159 4 5.171 -10.04 15.1999998 0 0 0 2 8 4 0 0 0 12.3256064
1167 4 -5.5739999 20.8199997 -12.2399998 0 0 0 3 8 2 0 0 0 12.2473564
1169 2 17.6900006 1.936 -19.6900006 0 0 0 0 12 0 0 0 0 11.0514259
1178 2 9.1470003 5.883 10.0500002 0 0 1 2 5 3 2 0 0 12.3397589
1187 5 -2.3180001 18.3700009 -13.4700003 0 0 1 2 9 3 0 0 0 12.2949104
1188 4 13.1400003 15.9499998 8.3330002 0 0 0 0 12 2 0 0 0 12.3212128
1190 2 7.356 -17.9799996 -17.0699997 0 0 1 2 7 3 0 0 0 11.1120653
1194 5 -16.2199993 12.6700001 17.6800003 0 0 0 2 8 4 0 0 0 12.34198
1199 4 -13.3900004 -10.1599999 -15.1400003 0 0 1 1 9 5 0 0 0 12.6463318
1214 5 -8.1140003 8.8299999 -21.6800003 0 0 0 4 6 2 0 0 0 11.5558548
1222 1 -6.777 16.6900006 -1.731 0 0 0 1 10 2 0 0 0 12.3005352
1244 3 -6.903 -10.7399998 -9.4580002 0 0 0 0 12 0 0 0 0 10.8570442
1247 1 14.0500002 0.8405 -20.0100002 0 0 0 2 8 2 0 0 0 11.3880329
1261 4 7.0040002 18.6499996 20.4699993 0 0 0 3 6 3 0 0 0 11.1683006
1264 2 12.2399998 17.0100002 10.5699997 0 0 0 1 10 2 0 0 0 11.5483542
1272 4 19.1800003 18.5400009 -9.1730003 0 0 0 4 6 3 0 0 0 11.7111197
1276 4 -17.2800007 -20.7700005 9.2329998 0 0 0 3 6 6 0 0 0 12.1655712
1280 5 -6.3379998 1.153 -11.4300003 0 0 0 1 10 2 0 0 0 12.3074618
1283 4 20.9699994 2.609 12.96 0 0 0 2 8 4 0 0 0 12.0663786
1288 5 -8.4499998 -9.257 15.8999996 0 0 0 3 8 2 0 0 0 12.2184754
1299 4 -1.848 -11.0100002 6.1729999 0 0 0 2 8 4 0 0 0 12.7598753
1302 4 9.5609999 -1.6230001 -18.8299999 0 0 0 1 10 4 0 0 0 13.0759611
1303 2 -2.3180001 5.428 -0.1173 0 0 1 2 7 3 0 0 0 11.9314442
1305 5 10.5100003 13.8500004 4.6550002 0 0 0 0 12 2 0 0 0 12.2589464
1320 2 -9.9759998 12.6400004 12.2200003 0 0 0 0 12 0 0 0 0 11.0700264
1338 2 -6.1279998 20.7800007 -19.0900002 0 0 1 2 5 5 0 0 0 11.2433214
1339 5 8.1110001 2.365 3.563 0 0 1 2 7 4 2 0 0 12.9099102
1342 4 -8.0480003 18.6599999 18.0 0 0 0 1 12 2 0 0 0 13.0903378
1363 2 -5.968 -4.4270001 2.5869999 0 0 0 1 10 4 0 0 0 12.8962088
1365 4 18.1700001 -10.0500002 -16.7700005 0 0 0 1 12 2 0 0 0 12.8458118
1370 4 -16.5900002 -19.8199997 15.75 0 0 0 2 9 3 1 0 0 13.312666
1377 4 -3.4519999 -3.898 -12.5900002 0 0 1 2 7 5 0 0 0 12.7617846
1387 3 -11.8900004 -22.0799999 6.6430002 0 0 0 5 6 4 0 0 0 13.6124106
1398 4 -18.1100006 -6.487 -17.5 0 0 1 2 9 4 0 0 0 13.0461388
1434 5 -9.1459999 9.276 -11.1800003 0 0 0 4 5 5 1 0 0 12.8903752
1435 4 -18.3999996 -12.0500002 -3.115 0 0 0 2 10 2 0 0 0 12.3629303
1445 2 6.395 3.016 8.467 0 0 0 0 12 0 0 0 0 11.8525028
1456 4 -6.5689998 -10.3500004 -19.9799996 0 0 0 3 6 5 0 0 0 12.1255484
1457 4 -5.1810002 2.832 3.678 0 0 0 1 10 2 0 0 0 11.9054156
1463 4 7.1399999 17.4200001 0.3978 0 0 0 3 6 4 0 0 0 11.855937
1477 2 -0.9811 -6.415 -19.2700005 0 0 0 3 6 4 0 0 0 12.1869669
1478 2 19.9400006 17.6800003 6.2779999 0 0 0 2 8 2 0 0 0 11.7649775
1485 4 6.7839999 -22.1700001 -4.7690001 0 0 2 1 6 5 0 0 0 11.6096764
1492 5 -0.6843 20.6200009 9.599 0 0 0 2 8 4 0 0 0 11.9678556
1502 5 4.5749998 6.2839999 -4.507 0 0 0 0 12 0 0 0 0 12.0602074
1509 5 7.1030002 -19.4699993 16.5900002 0 0 0 4 6 4 0 0 0 12.1936884
1515 5 -6.9829998 0.5935 -19.5200005 0 0 0 0 12 0 0 0 0 11.0295572
1523 2 -7.9330002 13.3800001 -21.2399998 0 0 0 2 10 0 0 0 0 11.6584263
1545 4 7.0089998 -9.0059996 -16.4599991 0 0 0 2 8 2 0 0 0 11.512538
1556 5 15.96 -6.9060002 -7.9959998 0 0 0 3 8 3 0 0 0 12.803134
1565 2 -18.1900005 -7.5029998 -5.5799999 0 0 0 0 12 0 0 0 0 10.4454794
1583 2 -3.1370001 -7.3899999 2.5769999 0 0 1 3 5 5 0 0 0 11.9406196
1587 5 -15.25 -0.125 -14.54 0 0 0 2 10 1 0 0 0 11.8036127
1599 4 15.3999996 18.3799992 -20.6599999 0 0 1 1 9 4 0 0 0 12.534936
1605 5 13.9499998 12.8999996 -2.8740002 0 0 0 3 8 3 0 0 0 12.2004328
1607 4 0.8025 11.0200005 18.4200001 0 0 0 0 12 0 0 0 0 11.7764874
1615 4 13.2700005 20.6900006 0.2224 0 0 0 4 5 4 0 0 0 11.4145804
1620 4 -11.0299997 -1.322 19.6200009 0 0 0 5 6 3 0 0 0 12.7436924
1627 4 -17.7099991 -20.2000008 -9.4029999 0 0 0 0 12 0 0 0 0 11.1125298
1634 5 13.8299999 17.8299999 -5.956 0 0 2 4 2 5 2 0 0 12.7508307
1642 4 10.4799996 -19.3400002 6.0689998 0 0 0 2 8 4 0 0 0 12.5264397
1657 5 -7.4190002 15.3400002 14.04 0 0 0 1 10 4 0 0 0 12.9722062
1663 2 -5.349 -3.4660001 10.8900004 0 0 0 2 10 0 0 0 0 11.0092583
1669 4 -7.263 -20.2299996 -5.165 0 0 0 0 12 3 0 0 0 13.3073568
1692 5 -15.6000004 -20.7999993 11.7200003 0 0 0 1 10 2 0 0 0 12.2974892
1694 2 11.25 -17.6200009 -3.704 0 0 1 1 9 1 2 0 0 12.018672
1698 4 -4.5520001 -1.359 21.2000008 0 0 0 1 10 2 0 0 0 11.7295313
1702 2 7.5040002 -10.1700001 14.6499996 0 0 0 2 8 1 0 0 0 11.3088846
1706 4 7.059 -0.1764 -9.6169997 0 0 0 3 5 4 1 0 0 12.2031412
1722 5 -1.551 -1.787 -2.0510001 0 0 0 4 5 6 1 0 0 13.1396294
1726 5 3.901 -8.2679997 -6.0209999 0 0 1 1 9 3 0 0 0 11.8745728
1730 5 15.1400003 19.7099991 9.2600002 0 0 0 3 8 2 0 0 0 12.3290682
1766 4 -6.0450001 -18.5799999 -3.28 0 0 0 0 12 2 0 0 0 12.0820732
1774 4 0.4652 1.581 -12.54 0 0 0 0 12 3 0 0 0 13.4358425
1781 5 -17.25 19.6499996 7.1810002 0 0 0 2 8 3 0 0 0 11.5502405
1795 4 -0.6726 20.5599995 -13.3800001 0 0 0 0 12 0 0 0 0 11.5821867
1805 4 -14.5100003 17.8600006 9.4160004 0 0 0 1 10 4 0 0 0 13.0423174
1807 4 19.4099999 -7.9759998 14.5 0 0 0 1 10 3 0 0 0 12.4998045
1812 4 12.0799999 -8.1730003 15.4300003 0 0 0 2 8 5 0 0 0 12.6735707
1818 4 -4.7259999 0.4834 17.1100006 0 0 0 2 8 4 0 0 0 12.8546324
1826 2 -19.5499993 -11.1099997 13.1700001 0 0 0 3 6 2 0 0 0 11.2761593
1829 5 -8.9639998 16.6000004 -19.3400002 0 0 0 0 12 0 0 0 0 11.1415901
1847 4 5.296 -21.7700005 -10.8999996 0 0 0 2 10 0 0 0 0 11.4106474
1851 1 -2.109 20.5400009 16.2099991 0 0 1 0 9 3 0 0 0 11.4034729
1865 2 13.1800003 -6.6300001 5.764 0 0 1 2 7 3 2 0 0 12.5404625
1873 4 4.0 -19.8799992 5.625 0 0 0 1 10 3 0 0 0 13.0186367
1882 2 11.87 11.8299999 15.4300003 0 0 0 2 8 3 0 0 0 11.9302312
1897 4 20.7299996 -0.3603 15.79 0 0 0 3 6 5 0 0 0 12.4267092
1905 4 -8.7069998 -5.8220001 12.0299997 0 0 0 1 10 4 0 0 0 12.4112806
1906 2 -5.6500001 17.2099991 0.6937 0 0 0 1 10 2 0 0 0 11.4460106
1920 5 11.8400002 -5.2589998 7.3530002 0 0 0 0 12 3 0 0 0 12.5975085
1942 5 5.2030001 -19.5699997 15.1199999 0 0 0 5 6 2 0 0 0 11.9617376
1947 5 3.7950001 6.31 10.5500002 0 0 0 3 6 4 0 0 0 12.7622252
1951 4 7.914 21.0699997 17.2099991 0 0 1 0 11 4 0 0 0 13.7679863
1965 2 -5.1230002 1.309 -20.8999996 0 0 0 1 10 2 0 0 0 11.9943362
1970 2 18.6599999 19.8600006 -19.3600006 0 0 0 2 10 0 0 0 0 11.4715004
1975 4 -5.389 2.313 -18.5900002 0 0 1 1 8 3 1 0 0 12.4227658
1990 5 7.79 -8.922 -5.3140001 0 0 0 0 12 0 0 0 0 10.9752828
2013 5 1.204 12.2799997 -5.848 0 0 0 2 8 2 0 0 0 11.401434
2016 4 -18.5799999 -13.6700001 13.5600004 0 0 0 2 8 4 0 0 0 12.3860779
2020 2 0.8358 -9.3199997 -17.1299992 0 0 0 0 12 0 0 0 0 10.6271038
2029 4 3.402 3.4100001 15.8500004 0 0 0 3 6 4 0 0 0 12.4223728
2041 5 18.3400002 1.182 16.2099991 0 0 0 0 12 2 0 0 0 12.1016674
2046 2 -14.2799997 -9.7700005 4.3039999 0 0 0 0 12 0 0 0 0 11.9574814
2053 2 -14.5500002 6.474 -1.4450001 0 0 1 1 8 3 1 0 0 12.8901464
2054 4 15.9700004 -3.329 6.7820001 0 0 0 1 10 4 0 0 0 12.4488983
2066 5 -5.5840001 -17.3500004 10.5299998 0 0 1 1 9 5 0 0 0 13.3354979
2082 2 -13.8400002 -14.9300004 -12.5500002 0 0 2 2 3 4 1 0 0 11.6645909
2089 1 -10.8800002 -4.9299998 12.04 0 0 0 3 6 4 0 0 0 11.2253819
2097 5 0.8254 -7.1630001 -1.2230001 0 0 0 0 12 3 0 0 0 13.1208506
2104 2 17.9699994 -18.8500004 -15.7600003 0 0 0 0 12 0 0 0 0 11.3351355
2112 4 -19.2700005 -2.889 0.8866 0 0 0 1 10 4 0 0 0 12.6563397
2116 5 13.8599998 -14.4700003 -11.04 0 0 2 3 5 3 1 1 0 11.9395914
2119 2 -12.9700004 14.5299998 -3.9430002 0 0 0 0 12 0 0 0 0 11.1293078
2124 5 17.4099999 -15.5 13.8199997 0 0 0 1 10 2 0 0 0 12.1303101
2126 5 15.3599997 -6.6900001 -13.5299998 0 0 0 1 10 2 0 0 0 11.8522416
2144 4 13.0799999 7.033 4.7119999 0 0 0 2 8 3 0 0 0 11.7999792
2147 1 13.9899998 -14.3900004 -15.87 0 0 0 1 10 2 0 0 0 11.3868694
2148 2 13.9399996 9.9449998 -6.6640001 0 0 0 0 12 0 0 0 0 11.971449
2151 2 -8.1809998 6.8730002 21.3899994 0 0 0 0 12 0 0 0 0 11.6943598
2163 2 -1.7460001 15.8599998 10.2299996 0 0 0 0 12 0 0 0 0 10.962268
2169 1 -19.2999992 -21.7600003 -8.1750002 0 0 0 1 10 2 0 0 0 11.4590063
2180 5 2.2190001 1.5190001 -10.1300001 0 0 1 2 7 3 2 0 0 12.8918552
2183 2 19.3799992 6.6240001 -12.8400002 0 0 0 0 12 0 0 0 0 11.1039667
2202 4 -12.1300001 12.1099997 18.8400002 0 0 0 1 10 4 0 0 0 12.7020417
2208 2 9.0860004 11.9200002 3.6140001 0 0 0 4 6 4 0 0 0 12.2097826
2213 2 -17.4099999 -9.441 12.6599999 0 0 0 4 6 2 0 0 0 11.8387347
2214 2 4.927 -0.05003 -4.2529998 0 0 1 0 11 1 0 0 0 12.4831448
2224 5 -8.5129996 -18.6499996 -17.6399994 0 0 0 2 8 2 0 0 0 11.2865086
2228 5 -9.2220001 16.3899994 -14.0799999 0 0 0 1 10 2 0 0 0 12.085084
2232 3 5.053 -17.9899998 -9.731 0 0 0 3 6 4 0 0 0 11.5003348
2256 2 -13.8100004 3.533 -16.2099991 0 0 1 3 7 2 0 0 0 11.7359848
2273 5 12.4799996 -20.5499993 9.5170002 0 0 1 0 11 3 0 0 0 12.2749806
2274 1 20.8199997 6.27 7.3410001 0 0 0 2 10 2 0 0 0 12.2596312
2284 5 14.4099999 14.5799999 -14.79 0 0 0 2 10 3 0 0 0 13.1099577
2285 4 -6.5190001 -8.2209997 -21.8299999 0 0 0 1 10 2 0 0 0 12.3280954
2295 1 -13.04 12.2299996 5.9530002 0 0 1 2 7 3 0 0 0 11.706976
2296 4 -15.96 2.74 8.3100004 0 0 0 3 6 2 2 0 0 12.5358591
2298 5 13.6099997 21.4099999 -6.6589999 0 0 1 3 6 4 1 0 0 12.7785921
2304 4 14.5500002 -8.0450001 10.8400002 0 0 0 1 9 4 1 0 0 13.3468466
2314 4 -2.573 21.4799996 -20.6200009 0 0 0 3 6 4 0 0 0 12.2988815
2317 4 -0.6505 1.993 19.5699997 0 0 0 0 12 0 0 0 0 11.3119154
2322 4 7.2729998 -8.1020002 -9.3400002 0 0 1 1 9 2 0 0 0 11.4404526
2337 5 18.8999996 -9.2980003 -14.5699997 0 0 0 4 5 4 1 0 0 11.910244
2341 4 19.2900009 -6.0900002 -14.4700003 0 0 0 2 8 4 0 0 0 12.6999455
2354 2 -16.3500004 19.3500004 -9.1569996 0 0 0 3 6 4 0 0 0 11.8007708
2368 2 3.7090001 -15.4399996 -15.29 0 0 0 1 10 2 0 0 0 12.1797028
2369 5 1.038 14.3400002 -10.04 0 0 0 1 12 2 0 0 0 13.008399
2380 4 -17.9899998 -14.1599999 11.3100004 0 0 0 1 10 2 0 0 0 12.2329893
2385 4 -7.645 2.975 14.2299996 0 0 0 0 12 4 0 0 0 13.0147715
2386 2 20.7299996 21.0100002 -22.0100002 0 0 0 3 6 3 0 0 0 12.0788593
2407 2 2.155 7.7820001 2.063 0 0 0 3 6 3 0 0 0 11.8944492
2409 5 -17.1599999 19.3899994 -3.891 0 0 1 1 9 3 0 0 0 12.7643814
2414 1 18.8600006 -12.6999998 -17.0100002 0 0 1 3 5 4 0 0 0 11.4577875
2418 4 -16.25 19.9599992 5.0700002 0 0 0 3 6 4 0 0 0 11.8390808
2427 4 -6.9039998 1.01 -16.7700005 0 0 0 1 10 3 0 0 0 12.0998001
2430 2 -17.4300003 1.35 -14.25 0 0 1 4 5 2 0 0 0 11.451829
2441 2 -7.1020002 -17.2099991 8.401 0 0 0 2 9 2 0 0 0 13.1457119
2442 4 20.6900006 2.1329999 -20.4899998 0 0 0 1 10 4 0 0 0 13.1456175
2443 5 21.4699993 20.5100003 3.076 0 0 0 3 6 5 0 0 0 12.8613864
2446 2 8.7609997 -9.9490004 -12.7100001 0 0 0 2 10 0 0 0 0 11.5378428
2451 2 -10.5299998 -4.211 1.192 0 0 0 1 10 2 0 0 0 11.4377766
2457 4 14.6800003 3.3800001 7.3649998 0 0 0 3 7 4 1 0 0 13.087451
2466 2 -17.6499996 4.2709999 7.757 0 0 0 0 12 0 0 0 0 10.9802142
2482 5 -7.4250002 0.6372 -21.8199997 0 0 0 1 10 2 0 0 0 11.530303
2489 2 6.4829998 -6.0819998 -8.4510002 0 0 0 3 8 2 0 0 0 11.5568142
2494 2 -11.5799999 -4.6669998 -8.6529999 0 0 0 0 12 0 0 0 0 11.6105461
2496 4 7.856 8.0389996 7.639 0 0 0 1 10 2 2 0 0 12.6764069
2506 2 -8.2749996 20.3899994 0.3769 0 0 0 1 10 3 0 0 0 12.0078182
2513 5 17.5599995 17.5499993 -19.9599992 0 0 0 1 10 3 0 0 0 12.6017542
2520 4 -15.7700005 -11.7100001 18.75 0 0 0 1 10 3 0 0 0 12.8825036
2521 2 2.0469999 14.9499998 10.2600002 0 0 0 0 12 0 0 0 0 11.1003008
2523 4 15.7200003 12.2200003 21.0900002 0 0 0 2 9 3 1 0 0 13.059618
2527 1 -8.264 -11.3699999 -13.4799996 0 0 1 2 7 2 0 0 0 11.8656244
2541 2 -5.8670002 13.75 19.7299996 0 0 0 1 10 2 0 0 0 12.2191115
2543 5 -12.1400003 1.592 -1.188 0 0 0 3 8 4 0 0 0 12.6025677
2545 5 -11.25 3.6080001 10.8999996 0 0 2 1 8 4 0 0 0 12.25457
2548 2 -4.7719999 -6.6859999 -16.6700001 0 0 0 0 12 2 0 0 0 12.7317457
2553 2 -5.151 3.3859999 -12.3900004 0 0 0 1 10 2 0 0 0 11.8675222
2557 4 1.3 17.1200008 -14.5600004 0 0 0 0 12 2 0 0 0 12.682127
2562 5 -1.908 18.6499996 -20.1000004 0 0 0 2 10 2 0 0 0 12.8923016
2564 4 9.9510002 10.04 -12.0200005 0 0 0 3 6 7 0 0 0 12.6440697
2573 5 15.3599997 -3.8870002 13.7600003 0 0 0 3 8 3 0 0 0 11.989708
2574 2 -4.6360002 -21.25 4.1230002 0 0 0 0 12 0 0 0 0 10.8567686
2594 2 9.9860002 -2.4460001 -8.0299997 0 0 0 1 12 2 0 0 0 12.6660433
2596 4 18.9200002 15.0699997 19.8899994 0 0 1 2 7 2 2 0 0 11.552742
2619 5 -4.0370002 -7.2490001 21.0699997 0 0 0 0 12 2 0 0 0 11.905117
2627 4 1.504 -15.1400003 -16.6599999 0 0 0 2 8 4 0 0 0 13.1166487
2632 4 5.3390002 0.983 -20.4599991 0 0 0 2 10 2 0 0 0 12.4480057
2644 2 7.731 17.3999996 10.2100001 0 0 1 4 5 3 0 0 0 11.4454184
2647 4 18.0400009 -5.7480002 -18.8799992 0 0 0 1 12 2 0 0 0 12.7940159
2657 4 -9.257 18.7999993 -14.8900004 0 0 0 2 10 2 0 0 0 12.4637537
2664 5 -15.4799996 -5.0710001 -18.2299996 0 0 0 4 6 4 0 0 0 11.7048149
2673 4 -17.4300003 -4.5339999 14.1300001 0 0 0 3 6 6 0 0 0 12.2134543
2675 4 -8.6330004 4.6830001 10.25 0 0 1 2 9 2 0 0 0 12.1395512
2680 4 -14.29 12.8400002 -2.346 0 0 0 0 12 3 0 0 0 13.2167568
2695 4 0.04645 -7.132 20.8999996 0 0 1 1 9 2 2 0 0 12.0309305
2719 4 -16.25 -16.1599999 8.4449997 0 0 0 0 12 0 0 0 0 11.7377291
2722 5 -13.4300003 20.6200009 0.8464 0 0 0 1 10 2 0 0 0 11.4475413
2752 2 20.1100006 15.8999996 -4.9520002 0 0 1 1 8 3 1 0 0 12.1521902
2754 5 -14.2299996 9.1409998 15.9700004 0 0 0 1 10 2 0 0 0 11.588439
2760 5 -0.7706 0.5217 -20.2199993 0 0 0 1 10 4 0 0 0 14.1710558
2768 2 11.4399996 6.052 -5.6989999 0 0 0 3 6 4 0 0 0 11.8446542
2774 4 13.8900004 0.9073 6.7880001 0 0 0 2 10 3 0 0 0 12.2522593
2778 4 8.007 12.1499996 17.5599995 0 0 0 0 12 4 0 0 0 13.4613724
2782 4 -9.1569996 -21.0100002 13.3000002 0 0 0 1 10 4 0 0 0 12.8788786
2787 4 -18.0499992 1.924 6.6170001 0 0 0 3 8 3 0 0 0 12.7103033
2790 4 0.5301 17.8700008 3.385 0 0 0 2 8 6 0 0 0 13.5452366
2799 4 4.9650002 -12.1000004 -21.8999996 0 0 0 1 12 3 0 0 0 13.970108
2800 4 -10.8800002 16.6100006 -20.5699997 0 0 0 3 6 4 0 0 0 11.3904343
2802 5 -1.033 11.9499998 11.1300001 0 0 1 2 7 4 0 0 0 12.112875
2814 4 -17.3500004 -7.8119998 8.1730003 0 0 0 2 8 5 0 0 0 12.3101559
2820 4 17.0499992 -11.0500002 9.1940003 0 0 0 1 10 3 0 0 0 11.844655
2823 4 -9.5579996 12.4899998 18.3799992 0 0 0 0 12 0 0 0 0 12.700963
2824 4 18.8600006 6.6589999 5.4120002 0 0 0 1 10 3 0 0 0 12.9166708
2830 4 -15.3299999 -21.7199993 -16.3099995 0 0 0 2 10 2 0 0 0 12.5830393
2848 4 17.8799992 -17.3299999 1.123 0 0 0 3 8 3 0 0 0 12.1426897
2851 3 -11.8000002 2.1619999 -15.7799998 0 0 1 2 11 1 0 0 0 13.0861502
2857 4 -0.2715 20.9699994 -2.6640001 0 0 0 0 12 2 0 0 0 12.1079922
2885 2 18.4699993 17.1800003 -17.6299992 0 0 0 2 10 3 0 0 0 13.0166063
2895 4 7.5380001 -19.7700005 -4.6669998 0 0 0 4 4 6 0 0 0 12.5228634
2899 5 20.0200005 -11.9300004 -1.7230001 0 0 0 0 12 0 0 0 0 10.9411278
2906 4 18.4300003 9.5430002 1.973 0 0 0 1 12 1 0 0 0 11.8516798
2908 5 0.08847 8.3959999 0.6172 0 0 0 2 8 3 0 0 0 11.6447802
2914 2 1.299 -1.805 -6.2750001 0 0 0 0 12 0 0 0 0 10.8960228
2932 4 -8.3070002 -14.3100004 -1.461 0 0 0 1 12 1 0 0 0 12.4647684
2955 4 -5.3569999 8.4849997 -14.0799999 0 0 0 2 10 3 0 0 0 13.2034636
2966 5 -17.0400009 10.3400002 11.8000002 0 0 0 1 10 2 0 0 0 11.4425059
2975 5 10.0900002 -4.9499998 -6.7290001 0 0 1 2 7 6 0 0 0 12.8939438
2985 4 -0.4583 3.4979999 -16.5400009 0 0 0 1 10 3 0 0 0 12.181159
2993 4 16.4899998 -0.305 10.0200005 0 0 0 2 7 2 3 0 0 12.2044554
2994 4 -8.6949997 -14.9499998 -14.4899998 0 0 0 1 10 4 0 0 0 12.2465086
3004 5 14.0600004 -2.4300001 -9.5010004 0 0 0 2 10 4 0 0 0 13.444479
3009 4 10.6499996 -10.1800003 -7.8140002 0 0 0 0 12 2 0 0 0 12.3244248
3020 5 10.8900004 20.3199997 -9.5310002 0 0 0 1 10 2 0 0 0 12.1703577
3025 2 -14.79 -9.389 -3.6860001 0 0 0 2 10 2 0 0 0 12.4581776
3038 2 -15.0699997 6.5669999 19.9799996 0 0 0 0 12 0 0 0 0 11.4867335
3060 4 -8.2329998 20.9599992 -15.4399996 0 0 0 0 12 0 0 0 0 11.2956457
3068 2 8.1669998 3.494 6.5060001 0 0 0 0 12 3 0 0 0 12.6092272
3100 4 0.03804 2.0999999 0.1755 0 0 0 1 10 3 0 0 0 12.206871
3113 2 -17.6000004 -19.2199993 -14.54 0 0 1 1 9 2 0 0 0 11.7214232
3115 4 1.173 8.1260004 -2.553 0 0 0 4 5 5 1 0 0 13.3287983
3118 4 5.0999999 -2.694 -3.2320001 0 0 0 1 10 4 0 0 0 13.2810907
3134 2 6.6409998 7.6339998 -14.6800003 0 0 0 2 8 2 0 0 0 11.7573481
3150 2 19.3500004 19.4200001 8.1540003 0 0 0 2 10 2 0 0 0 12.5248633
3151 4 -13.9399996 16.4200001 20.2999992 0 0 0 2 8 3 0 0 0 11.6200838
3152 4 1.887 -17.4400006 -15.3800001 0 0 0 0 12 0 0 0 0 11.4610977
3158 2 15.0 -7.257 3.9460002 0 0 0 3 6 4 0 0 0 11.9306556
3159 5 -4.204 15.4899998 -5.6989999 0 0 0 2 8 3 0 0 0 11.3489332
3165 5 15.4700003 -15.1300001 18.6299992 0 0 0 2 8 4 0 0 0 12.9410096
3167 2 1.5160001 2.7100001 20.7800007 0 0 0 2 8 3 0 0 0 11.9634752
3174 4 -2.412 -0.06247 -5.408 0 0 0 1 12 2 0 0 0 12.8346224
3180 2 19.8099995 19.8099995 -6.9070002 0 0 0 3 6 4 0 0 0 11.831872
3182 4 19.1599999 -18.8400002 -18.4799996 0 0 0 0 12 4 0 0 0 13.2207337
3185 5 3.1300001 5.2140002 6.5960002 0 0 0 2 9 3 1 0 0 13.1462898
3186 5 9.2040005 -1.4730001 -1.76 0 0 1 1 9 4 0 0 0 12.8252812
3189 5 -17.8199997 -14.0900002 18.9099998 0 0 0 1 10 3 0 0 0 12.1841288
3199 5 11.5799999 18.3999996 0.5035 0 0 1 1 9 3 0 0 0 12.8113137
3201 5 -13.1400003 19.5400009 -12.7799998 0 0 1 3 5 5 0 0 0 11.6507979
3220 4 -6.6620002 19.3899994 -14.2399998 0 0 0 2 10 2 0 0 0 12.496274
3222 4 16.5699997 -2.645 -9.7539997 0 0 0 3 6 5 0 0 0 12.2667456
3230 5 -16.7999993 6.9759998 -6.955 0 0 0 2 8 4 0 0 0 12.4750061
3233 4 -18.9500008 -6.2140002 14.6199999 0 0 0 1 10 3 0 0 0 11.8058691
3234 4 -4.2179999 -7.4330001 5.0570002 0 0 0 0 12 3 0 0 0 13.2433691
3240 1 5.3499999 8.4320002 -12.87 0 0 0 2 10 2 0 0 0 12.1293688
3241 4 -10.7600003 21.3199997 -14.2700005 0 0 1 1 9 5 0 0 0 13.4027205
3246 5 1.727 -20.8999996 4.3330002 0 0 0 2 8 4 0 0 0 12.5135174
3267 5 7.4099999 -13.9799996 -7.7690001 0 0 0 2 10 4 0 0 0 13.0597057
3286 5 14.54 -7.8369999 15.1099997 0 0 0 0 12 0 0 0 0 11.5136719
3287 5 12.3100004 15.4099999 -16.5799999 0 0 0 0 12 0 0 0 0 11.584508
3295 4 -17.5599995 -1.798 -19.9699994 0 0 0 0 12 2 0 0 0 12.2990065
3298 5 7.1799998 -20.8700008 14.4399996 0 0 1 1 9 0 2 0 0 11.8382225
3301 5 20.7399998 15.6800003 -7.243 0 0 1 2 7 3 0 0 0 12.336648
3315 4 6.3109999 -10.3199997 9.9259996 0 0 0 2 8 2 0 0 0 11.7635441
3323 5 -14.8100004 1.254 12.4600001 0 0 0 1 12 2 0 0 0 13.2143908
3337 5 -6.27 -16.6200009 1.346 0 0 0 4 4 7 0 0 0 12.1545267
3343 5 -9.6700001 19.2900009 -6.4580002 0 0 0 0 12 0 0 0 0 11.7476082
3346 2 -15.4899998 -16.1499996 -4.2160001 0 0 0 1 10 2 0 0 0 11.4590931
3357 4 -10.6199999 12.6899996 -6.6420002 0 0 0 2 8 4 0 0 0 11.818408
3362 1 -16.4200001 -5.7989998 -20.4200001 0 0 1 3 6 3 1 0 0 11.4343186
3365 5 -14.5900002 -2.6700001 -0.331 0 0 0 3 6 4 0 0 0 12.4226141
3387 5 20.1599999 17.7999993 -19.5100003 0 0 0 0 12 2 0 0 0 12.4521542
3406 5 -8.5019999 6.487 -0.6924 0 0 0 2 8 2 0 0 0 10.876893
3408 5 -13.5500002 4.5850001 -13.6800003 0 0 0 1 12 1 0 0 0 12.3845596
3414 2 20.1800003 20.6100006 -4.763 0 0 1 3 5 4 0 0 0 11.6219235
3433 4 -0.0257 18.1599999 -12.3500004 0 0 0 0 12 3 0 0 0 12.6846133
3444 5 15.5100003 -13.3199997 3.1919999 0 0 0 2 7 4 1 0 0 12.4036112
3446 4 13.5799999 -10.0600004 6.8779998 0 0 1 3 7 3 2 0 0 13.643445
3454 2 12.0299997 14.3999996 2.6760001 0 0 0 2 8 2 0 0 0 10.9161758
3456 5 -16.3600006 -19.9200002 6.7940002 0 0 1 1 8 4 1 0 0 12.5602322
3465 5 -10.3199997 0.2459 -8.96 0 0 0 0 12 0 0 0 0 11.5869532
3467 4 5.8449998 -6.6290002 -10.8000002 0 0 0 2 8 4 0 0 0 11.7711191
3471 2 -14.1499996 -21.0 16.75 0 0 0 0 12 0 0 0 0 11.2995014
3481 4 3.919 -14.5799999 -17.5799999 0 0 0 1 10 2 0 0 0 12.0562267
3482 3 -13.3199997 8.4469996 4.388 0 0 0 3 6 4 0 0 0 11.6323023
3489 2 -3.31 -7.5669999 -19.3400002 0 0 0 2 10 2 0 0 0 12.5286427
3497 2 20.2900009 11.0799999 7.5840001 0 0 0 2 8 2 0 0 0 11.3124485
3501 4 11.4399996 -6.5279999 9.4390002 0 0 0 2 7 2 1 0 0 11.889184
3507 5 -18.0 -11.6199999 17.8400002 0 0 1 3 5 7 0 0 0 13.0571966
3529 5 15.3000002 -8.368 -2.0179999 0 0 0 2 10 1 0 0 0 11.9186936
3536 5 -15.8500004 -22.1599999 1.49 0 0 0 2 8 4 0 0 0 11.9718418
3540 4 4.936 3.24 -8.2799997 0 0 1 2 7 2 2 0 0 12.6416302
3544 4 -8.6110001 3.109 21.3999996 0 0 0 2 8 4 0 0 0 12.5976887
3561 5 -1.793 14.4799996 5.9920002 0 0 0 2 10 2 0 0 0 12.68466
3563 2 -8.8850002 -7.4260001 -22.1900005 0 0 0 1 10 2 0 0 0 11.8025332
3569 2 -14.8599998 -6.6750002 -13.4700003 0 0 0 0 12 0 0 0 0 10.9456224
3571 4 1.3380001 10.1199999 -0.8503 0 0 0 3 6 6 0 0 0 12.4978552
3589 4 -15.6000004 -7.4439998 -8.5150004 0 0 0 3 6 4 0 0 0 11.713913
3597 2 15.6999998 -0.2814 -9.7430001 0 0 0 4 4 3 2 0 0 12.7470942
3613 4 -1.2410001 16.2000008 -13.4300003 0 0 0 1 10 2 0 0 0 12.248066
3614 4 -2.4470001 2.392 7.0019999 0 0 0 2 8 5 0 0 0 12.8313627
3617 5 -9.868 -22.1800003 0.3544 0 0 0 2 8 0 2 0 0 11.7000313
3634 5 18.4300003 -13.5299998 -6.264 0 0 0 1 10 4 0 0 0 12.6454125
3636 4 8.7510004 -16.3099995 -0.7464 0 0 2 0 8 2 2 0 0 12.0657406