ITEM: TIMESTEP
0
ITEM: NUMBER OF ATOMS
16384
ITEM: BOX BOUNDS pp pp pp
0.0000000000000000e+00 5.6171498642087201e+01
0.0000000000000000e+00 5.6171498642087201e+01
0.0000000000000000e+00 5.6171498642087201e+01
ITEM: ATOMS id type x y z
1 4 0 0 0
2 4 1.76929 1.76929 0
8193 2 0 0 0
8194 2 1.76929 1.76929 0
8195 2 1.76929 0 1.76929
8196 2 0 1.76929 1.76929
3 4 5.30787 1.76929 0
4 4 5.30787 0 1.76929
5 4 3.53858 1.76929 1.76929
8197 2 5.30787 0 1.76929
6 4 8.84646 0 1.76929
7 4 7.07717 1.76929 1.76929
8198 2 7.07717 0 0
8199 2 8.84646 1.76929 0
8 4 12.385 1.76929 0
9 4 12.385 0 1.76929
10 4 10.6157 1.76929 1.76929
8200 2 12.385 1.76929 0
11 4 14.1543 0 0
12 4 14.1543 1.76929 1.76929
8201 2 15.9236 0 1.76929
8202 2 19.4622 0 1.76929
8203 2 17.6929 1.76929 1.76929
13 4 21.2315 0 0
8204 2 21.2315 0 0
8205 2 23.0008 1.76929 0
8206 2 21.2315 1.76929 1.76929
14 4 24.7701 0 0
16 4 24.7701 1.76929 1.76929
8207 2 24.7701 0 0
15 4 26.5394 0 1.76929
17 4 28.3087 0 0
8208 2 26.5394 0 1.76929
18 4 30.078 1.76929 0
19 4 30.078 0 1.76929
8209 2 30.078 1.76929 0
8212 2 31.8472 1.76929 1.76929
20 4 33.6165 1.76929 0
21 4 33.6165 0 1.76929
8210 2 33.6165 1.76929 0
8211 2 33.6165 0 1.76929
8213 2 35.3858 0 0
8215 2 35.3858 1.76929 1.76929
22 4 37.1551 1.76929 0
23 4 38.9244 0 0
8214 2 37.1551 0 1.76929
8217 2 38.9244 1.76929 1.76929
24 4 40.6937 1.76929 0
8216 2 40.6937 1.76929 0
8218 2 42.463 0 0
8220 2 42.463 1.76929 1.76929
25 4 44.2323 1.76929 0
8219 2 44.2323 1.76929 0
8221 2 46.0016 0 0
8223 2 46.0016 1.76929 1.76929
26 4 47.7709 1.76929 0
27 4 49.5402 0 0
29 4 49.5402 1.76929 1.76929
8222 2 47.7709 0 1.76929
28 4 51.3094 0 1.76929
8224 2 51.3094 0 1.76929
30 4 53.0787 0 0
31 4 54.848 1.76929 0
8225 2 53.0787 0 0
32 4 1.76929 3.53858 1.76929
33 4 0 5.30787 1.76929
8226 2 0 3.53858 0
8227 2 1.76929 5.30787 0
34 4 5.30787 3.53858 1.76929
35 4 3.53858 5.30787 1.76929
8228 2 5.30787 3.53858 1.76929
36 4 7.07717 3.53858 0
37 4 8.84646 5.30787 0
38 4 8.84646 3.53858 1.76929
39 4 7.07717 5.30787 1.76929
8229 2 7.07717 3.53858 0
8230 2 8.84646 5.30787 0
40 4 12.385 5.30787 0
41 4 12.385 3.53858 1.76929
42 4 10.6157 5.30787 1.76929
43 4 14.1543 3.53858 0
44 4 15.9236 5.30787 0
45 4 14.1543 5.30787 1.76929
8231 2 14.1543 3.53858 0
8232 2 15.9236 3.53858 1.76929
46 4 19.4622 3.53858 1.76929
47 4 17.6929 5.30787 1.76929
8233 2 19.4622 5.30787 0
48 4 21.2315 3.53858 0
49 4 23.0008 5.30787 0
50 4 23.0008 3.53858 1.76929
51 4 21.2315 5.30787 1.76929
8234 2 23.0008 5.30787 0
8235 2 23.0008 3.53858 1.76929
52 4 24.7701 5.30787 1.76929
8236 2 24.7701 3.53858 0
8237 2 24.7701 5.30787 1.76929
53 4 28.3087 3.53858 0
56 4 28.3087 5.30787 1.76929
8238 2 28.3087 3.53858 0
54 4 30.078 5.30787 0
55 4 30.078 3.53858 1.76929
57 4 31.8472 3.53858 0
59 4 31.8472 5.30787 1.76929
8239 2 30.078 5.30787 0
8241 2 31.8472 5.30787 1.76929
58 4 33.6165 5.30787 0
61 4 35.3858 5.30787 1.76929
8240 2 33.6165 3.53858 1.76929
60 4 37.1551 3.53858 1.76929
8242 2 37.1551 3.53858 1.76929
8243 2 38.9244 3.53858 0
62 4 40.6937 3.53858 1.76929
63 4 42.463 3.53858 0
8244 2 40.6937 5.30787 0
8245 2 42.463 3.53858 0
64 4 44.2323 5.30787 0
65 4 44.2323 3.53858 1.76929
8246 2 44.2323 3.53858 1.76929
8247 2 46.0016 3.53858 0
8250 2 46.0016 5.30787 1.76929
66 4 47.7709 5.30787 0
67 4 47.7709 3.53858 1.76929
68 4 49.5402 3.53858 0
8248 2 47.7709 5.30787 0
8249 2 47.7709 3.53858 1.76929
8251 2 49.5402 3.53858 0
69 4 51.3094 5.30787 0
70 4 53.0787 3.53858 0
71 4 54.848 5.30787 0
72 4 53.0787 5.30787 1.76929
8252 2 53.0787 3.53858 0
8253 2 54.848 5.30787 0
8254 2 54.848 3.53858 1.76929
8255 2 53.0787 5.30787 1.76929
73 4 1.76929 7.07717 1.76929
8256 2 1.76929 7.07717 1.76929
8257 2 0 8.84646 1.76929
74 4 5.30787 7.07717 1.76929
75 4 3.53858 8.84646 1.76929
8258 2 3.53858 7.07717 0
8259 2 5.30787 8.84646 0
8260 2 7.07717 7.07717 0
8261 2 8.84646 7.07717 1.76929
8262 2 7.07717 8.84646 1.76929
76 4 10.6157 7.07717 0
77 4 12.385 7.07717 1.76929
8263 2 10.6157 7.07717 0
8264 2 10.6157 8.84646 1.76929
78 4 15.9236 7.07717 1.76929
8265 2 14.1543 7.07717 0
8266 2 15.9236 8.84646 0
8267 2 15.9236 7.07717 1.76929
79 4 19.4622 8.84646 0
80 4 19.4622 7.07717 1.76929
8268 2 17.6929 7.07717 0
8269 2 19.4622 8.84646 0
8270 2 19.4622 7.07717 1.76929
81 4 21.2315 7.07717 0
82 4 23.0008 7.07717 1.76929
8271 2 23.0008 8.84646 0
8272 2 21.2315 8.84646 1.76929
83 4 24.7701 8.84646 1.76929
8273 2 24.7701 8.84646 1.76929
8274 2 28.3087 7.07717 0
8276 2 28.3087 8.84646 1.76929
84 4 30.078 7.07717 1.76929
86 4 31.8472 8.84646 1.76929
8275 2 30.078 8.84646 0
8277 2 31.8472 7.07717 0
8280 2 31.8472 8.84646 1.76929
85 4 33.6165 8.84646 0
88 4 35.3858 8.84646 1.76929
8278 2 33.6165 8.84646 0
8279 2 33.6165 7.07717 1.76929
8281 2 35.3858 7.07717 0
87 4 37.1551 7.07717 1.76929
90 4 38.9244 8.84646 1.76929
8282 2 37.1551 8.84646 0
8283 2 37.1551 7.07717 1.76929
89 4 40.6937 7.07717 1.76929
92 4 42.463 8.84646 1.76929
8284 2 40.6937 8.84646 0
8285 2 42.463 7.07717 0
91 4 44.2323 8.84646 0
93 4 46.0016 8.84646 1.76929
8288 2 46.0016 8.84646 1.76929
94 4 49.5402 7.07717 0
8286 2 47.7709 8.84646 0
8287 2 47.7709 7.07717 1.76929
8289 2 49.5402 7.07717 0
8291 2 49.5402 8.84646 1.76929
8290 2 51.3094 8.84646 0
95 4 53.0787 7.07717 0
96 4 54.848 8.84646 0
97 4 53.0787 8.84646 1.76929
8292 2 53.0787 7.07717 0
8293 2 54.848 8.84646 0
8294 2 53.0787 8.84646 1.76929
98 4 1.76929 12.385 0
99 4 1.76929 10.6157 1.76929
100 4 0 12.385 1.76929
8295 2 0 10.6157 0
101 4 3.53858 10.6157 0
102 4 5.30787 12.385 0
103 4 5.30787 10.6157 1.76929
8296 2 3.53858 10.6157 0
8297 2 5.30787 12.385 0
8298 2 5.30787 10.6157 1.76929
104 4 7.07717 10.6157 0
105 4 8.84646 10.6157 1.76929
8299 2 7.07717 10.6157 0
8300 2 8.84646 12.385 0
106 4 12.385 12.385 0
107 4 12.385 10.6157 1.76929
8301 2 10.6157 10.6157 0
8302 2 12.385 12.385 0
8303 2 10.6157 12.385 1.76929
8304 2 15.9236 12.385 0
8305 2 15.9236 10.6157 1.76929
108 4 17.6929 10.6157 0
109 4 19.4622 12.385 0
110 4 19.4622 10.6157 1.76929
8306 2 19.4622 12.385 0
111 4 21.2315 10.6157 0
112 4 23.0008 10.6157 1.76929
113 4 21.2315 12.385 1.76929
8307 2 23.0008 12.385 0
8308 2 21.2315 12.385 1.76929
114 4 24.7701 10.6157 0
117 4 24.7701 12.385 1.76929
8309 2 24.7701 10.6157 0
8311 2 24.7701 12.385 1.76929
115 4 26.5394 12.385 0
116 4 26.5394 10.6157 1.76929
118 4 28.3087 12.385 1.76929
8310 2 26.5394 10.6157 1.76929
8312 2 28.3087 10.6157 0
119 4 31.8472 10.6157 0
122 4 31.8472 12.385 1.76929
8313 2 30.078 12.385 0
8314 2 31.8472 10.6157 0
120 4 33.6165 12.385 0
121 4 33.6165 10.6157 1.76929
123 4 35.3858 10.6157 0
8315 2 33.6165 10.6157 1.76929
8316 2 35.3858 10.6157 0
124 4 37.1551 10.6157 1.76929
8317 2 38.9244 10.6157 0
8318 2 38.9244 12.385 1.76929
127 4 42.463 12.385 1.76929
125 4 44.2323 12.385 0
126 4 44.2323 10.6157 1.76929
128 4 46.0016 10.6157 0
8320 2 46.0016 12.385 1.76929
129 4 47.7709 10.6157 1.76929
130 4 49.5402 10.6157 0
8319 2 47.7709 10.6157 1.76929
8321 2 49.5402 10.6157 0
8322 2 49.5402 12.385 1.76929
131 4 54.848 12.385 0
8323 2 53.0787 10.6157 0
8324 2 54.848 12.385 0
8325 2 53.0787 12.385 1.76929
132 4 1.76929 15.9236 0
8326 2 1.76929 15.9236 0
8327 2 1.76929 14.1543 1.76929
8328 2 0 15.9236 1.76929
133 4 5.30787 15.9236 0
8329 2 3.53858 14.1543 0
8330 2 5.30787 15.9236 0
8331 2 5.30787 14.1543 1.76929
8332 2 3.53858 15.9236 1.76929
134 4 8.84646 14.1543 1.76929
8333 2 7.07717 14.1543 0
8334 2 8.84646 15.9236 0
8335 2 7.07717 15.9236 1.76929
135 4 10.6157 15.9236 1.76929
8336 2 12.385 15.9236 0
136 4 14.1543 15.9236 1.76929
8337 2 15.9236 15.9236 0
8338 2 15.9236 14.1543 1.76929
8339 2 14.1543 15.9236 1.76929
137 4 17.6929 14.1543 0
138 4 19.4622 15.9236 0
8340 2 17.6929 14.1543 0
8341 2 19.4622 14.1543 1.76929
8342 2 17.6929 15.9236 1.76929
139 4 21.2315 14.1543 0
140 4 23.0008 15.9236 0
8343 2 23.0008 15.9236 0
8344 2 23.0008 14.1543 1.76929
8345 2 21.2315 15.9236 1.76929
142 4 24.7701 15.9236 1.76929
8346 2 24.7701 15.9236 1.76929
141 4 26.5394 15.9236 0
144 4 28.3087 15.9236 1.76929
8348 2 28.3087 15.9236 1.76929
143 4 30.078 14.1543 1.76929
147 4 31.8472 15.9236 1.76929
8347 2 30.078 15.9236 0
8350 2 31.8472 15.9236 1.76929
145 4 33.6165 15.9236 0
146 4 33.6165 14.1543 1.76929
148 4 35.3858 14.1543 0
150 4 35.3858 15.9236 1.76929
8349 2 33.6165 14.1543 1.76929
8352 2 35.3858 15.9236 1.76929
149 4 37.1551 15.9236 0
8351 2 37.1551 15.9236 0
8353 2 38.9244 14.1543 0
8355 2 38.9244 15.9236 1.76929
151 4 40.6937 15.9236 0
152 4 42.463 14.1543 0
154 4 42.463 15.9236 1.76929
8354 2 40.6937 14.1543 1.76929
8356 2 42.463 14.1543 0
8358 2 42.463 15.9236 1.76929
153 4 44.2323 15.9236 0
155 4 46.0016 14.1543 0
157 4 46.0016 15.9236 1.76929
8357 2 44.2323 14.1543 1.76929
8360 2 46.0016 15.9236 1.76929
156 4 47.7709 14.1543 1.76929
158 4 49.5402 14.1543 0
8359 2 47.7709 14.1543 1.76929
8361 2 51.3094 15.9236 0
159 4 53.0787 15.9236 1.76929
8362 2 53.0787 14.1543 0
8363 2 54.848 15.9236 0
8364 2 54.848 14.1543 1.76929
8365 2 53.0787 15.9236 1.76929
160 4 0 17.6929 0
161 4 1.76929 19.4622 0
162 4 1.76929 17.6929 1.76929
163 4 0 19.4622 1.76929
8366 2 0 17.6929 0
8367 2 1.76929 19.4622 0
8368 2 1.76929 17.6929 1.76929
8369 2 0 19.4622 1.76929
164 4 3.53858 17.6929 0
165 4 5.30787 17.6929 1.76929
8370 2 3.53858 17.6929 0
8371 2 5.30787 19.4622 0
8372 2 5.30787 17.6929 1.76929
8373 2 3.53858 19.4622 1.76929
166 4 8.84646 19.4622 0
167 4 8.84646 17.6929 1.76929
168 4 7.07717 19.4622 1.76929
8374 2 7.07717 17.6929 0
8375 2 8.84646 19.4622 0
169 4 12.385 17.6929 1.76929
170 4 10.6157 19.4622 1.76929
8376 2 12.385 19.4622 0
8377 2 12.385 17.6929 1.76929
171 4 14.1543 17.6929 0
172 4 15.9236 19.4622 0
173 4 15.9236 17.6929 1.76929
174 4 14.1543 19.4622 1.76929
8378 2 14.1543 17.6929 0
8379 2 15.9236 19.4622 0
8380 2 15.9236 17.6929 1.76929
8381 2 14.1543 19.4622 1.76929
175 4 17.6929 17.6929 0
176 4 17.6929 19.4622 1.76929
8382 2 19.4622 19.4622 0
8383 2 19.4622 17.6929 1.76929
177 4 21.2315 17.6929 0
178 4 23.0008 19.4622 0
8384 2 23.0008 19.4622 0
8385 2 23.0008 17.6929 1.76929
8386 2 24.7701 17.6929 0
179 4 26.5394 19.4622 0
8387 2 26.5394 19.4622 0
8388 2 28.3087 19.4622 1.76929
180 4 31.8472 17.6929 0
182 4 31.8472 19.4622 1.76929
181 4 33.6165 19.4622 0
183 4 35.3858 17.6929 0
8389 2 33.6165 19.4622 0
8390 2 33.6165 17.6929 1.76929
8391 2 35.3858 17.6929 0
184 4 38.9244 17.6929 0
185 4 38.9244 19.4622 1.76929
8392 2 37.1551 19.4622 0
8393 2 37.1551 17.6929 1.76929
8394 2 38.9244 19.4622 1.76929
8395 2 42.463 17.6929 0
8397 2 42.463 19.4622 1.76929
186 4 44.2323 17.6929 1.76929
189 4 46.0016 19.4622 1.76929
8396 2 44.2323 17.6929 1.76929
8398 2 46.0016 17.6929 0
8400 2 46.0016 19.4622 1.76929
187 4 47.7709 19.4622 0
188 4 47.7709 17.6929 1.76929
8399 2 47.7709 17.6929 1.76929
8401 2 49.5402 17.6929 0
190 4 51.3094 19.4622 0
8402 2 51.3094 19.4622 0
191 4 54.848 19.4622 0
192 4 54.848 17.6929 1.76929
8403 2 54.848 19.4622 0
193 4 1.76929 23.0008 0
194 4 1.76929 21.2315 1.76929
195 4 0 23.0008 1.76929
196 4 3.53858 21.2315 0
197 4 5.30787 23.0008 0
8404 2 3.53858 21.2315 0
8405 2 3.53858 23.0008 1.76929
198 4 7.07717 21.2315 0
199 4 8.84646 23.0008 0
200 4 8.84646 21.2315 1.76929
201 4 7.07717 23.0008 1.76929
8406 2 7.07717 21.2315 0
8407 2 8.84646 23.0008 0
202 4 10.6157 21.2315 0
203 4 12.385 23.0008 0
204 4 12.385 21.2315 1.76929
8408 2 10.6157 21.2315 0
8409 2 10.6157 23.0008 1.76929
205 4 15.9236 23.0008 0
206 4 15.9236 21.2315 1.76929
8410 2 14.1543 21.2315 0
8411 2 15.9236 23.0008 0
8412 2 14.1543 23.0008 1.76929
207 4 19.4622 23.0008 0
208 4 17.6929 23.0008 1.76929
8413 2 17.6929 21.2315 0
8414 2 19.4622 21.2315 1.76929
209 4 21.2315 21.2315 0
210 4 23.0008 23.0008 0
8415 2 23.0008 23.0008 0
8416 2 23.0008 21.2315 1.76929
8417 2 24.7701 21.2315 0
211 4 26.5394 23.0008 0
212 4 28.3087 21.2315 0
215 4 28.3087 23.0008 1.76929
8418 2 26.5394 21.2315 1.76929
8419 2 28.3087 21.2315 0
213 4 30.078 23.0008 0
214 4 30.078 21.2315 1.76929
8420 2 30.078 21.2315 1.76929
8421 2 31.8472 21.2315 0
216 4 33.6165 23.0008 0
217 4 33.6165 21.2315 1.76929
218 4 35.3858 21.2315 0
8422 2 33.6165 23.0008 0
8423 2 33.6165 21.2315 1.76929
8424 2 35.3858 21.2315 0
219 4 37.1551 21.2315 1.76929
220 4 38.9244 21.2315 0
8425 2 37.1551 23.0008 0
8427 2 38.9244 23.0008 1.76929
221 4 40.6937 23.0008 0
8426 2 40.6937 23.0008 0
8428 2 42.463 23.0008 1.76929
222 4 44.2323 23.0008 0
223 4 44.2323 21.2315 1.76929
224 4 46.0016 21.2315 0
225 4 46.0016 23.0008 1.76929
226 4 49.5402 21.2315 0
228 4 49.5402 23.0008 1.76929
8429 2 47.7709 21.2315 1.76929
227 4 51.3094 23.0008 0
8430 2 51.3094 23.0008 0
229 4 54.848 23.0008 0
230 4 0 24.7701 0
232 4 1.76929 24.7701 1.76929
8431 2 0 24.7701 0
8433 2 1.76929 24.7701 1.76929
235 4 5.30787 24.7701 1.76929
8436 2 5.30787 24.7701 1.76929
237 4 8.84646 24.7701 1.76929
8437 2 7.07717 24.7701 0
8439 2 8.84646 24.7701 1.76929
239 4 10.6157 24.7701 0
240 4 12.385 24.7701 1.76929
243 4 15.9236 24.7701 1.76929
8441 2 15.9236 24.7701 1.76929
8443 2 19.4622 24.7701 1.76929
245 4 21.2315 24.7701 0
246 4 23.0008 24.7701 1.76929
8445 2 23.0008 24.7701 1.76929
8446 2 24.7701 24.7701 0
248 4 26.5394 24.7701 1.76929
8447 2 28.3087 24.7701 0
251 4 31.8472 24.7701 0
8449 2 31.8472 24.7701 0
252 4 35.3858 24.7701 0
8450 2 33.6165 24.7701 1.76929
8451 2 35.3858 24.7701 0
253 4 37.1551 24.7701 1.76929
8453 2 37.1551 24.7701 1.76929
8454 2 38.9244 24.7701 0
8456 2 42.463 24.7701 0
256 4 44.2323 24.7701 1.76929
259 4 54.848 24.7701 1.76929
231 4 1.76929 26.5394 0
233 4 0 26.5394 1.76929
260 4 0 28.3087 0
8432 2 1.76929 26.5394 0
8434 2 0 26.5394 1.76929
8464 2 1.76929 28.3087 1.76929
234 4 5.30787 26.5394 0
236 4 3.53858 26.5394 1.76929
263 4 3.53858 28.3087 0
265 4 5.30787 28.3087 1.76929
8435 2 5.30787 26.5394 0
8466 2 3.53858 28.3087 0
238 4 7.07717 26.5394 1.76929
267 4 7.07717 28.3087 0
268 4 8.84646 28.3087 1.76929
8438 2 8.84646 26.5394 0
8440 2 7.07717 26.5394 1.76929
8467 2 7.07717 28.3087 0
8469 2 8.84646 28.3087 1.76929
241 4 10.6157 26.5394 1.76929
269 4 10.6157 28.3087 0
8470 2 10.6157 28.3087 0
242 4 15.9236 26.5394 0
244 4 14.1543 26.5394 1.76929
8471 2 15.9236 28.3087 1.76929
274 4 19.4622 28.3087 1.76929
8442 2 19.4622 26.5394 0
276 4 23.0008 28.3087 1.76929
8444 2 23.0008 26.5394 0
8474 2 21.2315 28.3087 0
249 4 24.7701 26.5394 1.76929
278 4 24.7701 28.3087 0
247 4 26.5394 26.5394 0
250 4 28.3087 26.5394 1.76929
280 4 28.3087 28.3087 0
8475 2 28.3087 28.3087 0
281 4 30.078 28.3087 1.76929
282 4 31.8472 28.3087 0
8448 2 30.078 26.5394 0
8477 2 30.078 28.3087 1.76929
8478 2 31.8472 28.3087 0
284 4 33.6165 28.3087 1.76929
8480 2 35.3858 28.3087 0
286 4 38.9244 28.3087 0
8452 2 37.1551 26.5394 0
8455 2 38.9244 26.5394 1.76929
8482 2 37.1551 28.3087 1.76929
254 4 40.6937 26.5394 0
8458 2 42.463 26.5394 1.76929
8484 2 40.6937 28.3087 1.76929
255 4 44.2323 26.5394 0
257 4 46.0016 26.5394 1.76929
289 4 44.2323 28.3087 1.76929
8457 2 44.2323 26.5394 0
8487 2 44.2323 28.3087 1.76929
8459 2 47.7709 26.5394 0
8461 2 49.5402 26.5394 1.76929
8489 2 47.7709 28.3087 1.76929
8491 2 49.5402 28.3087 0
258 4 51.3094 26.5394 0
291 4 51.3094 28.3087 1.76929
8460 2 51.3094 26.5394 0
292 4 54.848 28.3087 1.76929
8462 2 54.848 26.5394 0
8493 2 54.848 28.3087 1.76929
261 4 1.76929 30.078 0
262 4 0 30.078 1.76929
8463 2 1.76929 30.078 0
8465 2 0 30.078 1.76929
8495 2 0 31.8472 0
264 4 5.30787 30.078 0
266 4 3.53858 30.078 1.76929
295 4 3.53858 31.8472 0
8498 2 5.30787 31.8472 1.76929
297 4 8.84646 31.8472 1.76929
8468 2 8.84646 30.078 0
8499 2 7.07717 31.8472 0
270 4 12.385 30.078 0
271 4 10.6157 30.078 1.76929
299 4 12.385 31.8472 1.76929
8502 2 12.385 31.8472 1.76929
272 4 14.1543 30.078 1.76929
301 4 14.1543 31.8472 0
302 4 15.9236 31.8472 1.76929
8472 2 14.1543 30.078 1.76929
8504 2 14.1543 31.8472 0
8506 2 15.9236 31.8472 1.76929
273 4 19.4622 30.078 0
275 4 17.6929 30.078 1.76929
8473 2 19.4622 30.078 0
8508 2 17.6929 31.8472 0
277 4 21.2315 30.078 1.76929
306 4 23.0008 31.8472 1.76929
8510 2 21.2315 31.8472 0
279 4 24.7701 30.078 1.76929
8513 2 24.7701 31.8472 0
308 4 28.3087 31.8472 0
8476 2 30.078 30.078 0
8515 2 30.078 31.8472 1.76929
283 4 33.6165 30.078 0
285 4 35.3858 30.078 1.76929
8479 2 33.6165 30.078 0
8483 2 35.3858 30.078 1.76929
8519 2 35.3858 31.8472 0
311 4 37.1551 31.8472 1.76929
8481 2 37.1551 30.078 0
8485 2 38.9244 30.078 1.76929
8520 2 37.1551 31.8472 1.76929
287 4 40.6937 30.078 0
290 4 42.463 30.078 1.76929
314 4 42.463 31.8472 0
8523 2 42.463 31.8472 0
288 4 44.2323 30.078 0
316 4 46.0016 31.8472 0
8486 2 44.2323 30.078 0
8490 2 46.0016 30.078 1.76929
318 4 47.7709 31.8472 1.76929
320 4 49.5402 31.8472 0
8488 2 47.7709 30.078 0
8525 2 49.5402 31.8472 0
8492 2 51.3094 30.078 0
8526 2 51.3094 31.8472 1.76929
293 4 53.0787 30.078 1.76929
8494 2 53.0787 30.078 1.76929
294 4 1.76929 33.6165 0
323 4 1.76929 35.3858 1.76929
8496 2 1.76929 33.6165 0
8528 2 0 35.3858 0
296 4 5.30787 33.6165 0
324 4 3.53858 35.3858 0
325 4 5.30787 35.3858 1.76929
8497 2 5.30787 33.6165 0
326 4 8.84646 35.3858 1.76929
8500 2 7.07717 33.6165 1.76929
8532 2 7.07717 35.3858 0
298 4 12.385 33.6165 0
300 4 10.6157 33.6165 1.76929
328 4 12.385 35.3858 1.76929
8501 2 12.385 33.6165 0
8503 2 10.6157 33.6165 1.76929
329 4 14.1543 35.3858 0
8505 2 15.9236 33.6165 0
8507 2 14.1543 33.6165 1.76929
8536 2 15.9236 35.3858 1.76929
303 4 19.4622 33.6165 0
304 4 17.6929 33.6165 1.76929
332 4 17.6929 35.3858 0
8509 2 19.4622 33.6165 0
8537 2 17.6929 35.3858 0
8538 2 19.4622 35.3858 1.76929
305 4 23.0008 33.6165 0
334 4 21.2315 35.3858 0
8511 2 23.0008 33.6165 0
8512 2 21.2315 33.6165 1.76929
8540 2 21.2315 35.3858 0
8542 2 23.0008 35.3858 1.76929
307 4 26.5394 33.6165 0
338 4 26.5394 35.3858 1.76929
339 4 28.3087 35.3858 0
8516 2 28.3087 33.6165 1.76929
8545 2 26.5394 35.3858 1.76929
8546 2 28.3087 35.3858 0
309 4 30.078 33.6165 0
341 4 30.078 35.3858 1.76929
343 4 31.8472 35.3858 0
8514 2 30.078 33.6165 0
8518 2 31.8472 33.6165 1.76929
8548 2 30.078 35.3858 1.76929
312 4 35.3858 33.6165 1.76929
345 4 33.6165 35.3858 1.76929
346 4 35.3858 35.3858 0
8517 2 33.6165 33.6165 0
8521 2 35.3858 33.6165 1.76929
8550 2 33.6165 35.3858 1.76929
310 4 37.1551 33.6165 0
347 4 38.9244 35.3858 0
8552 2 37.1551 35.3858 1.76929
313 4 40.6937 33.6165 0
348 4 42.463 35.3858 0
8522 2 40.6937 33.6165 0
315 4 44.2323 33.6165 0
319 4 46.0016 33.6165 1.76929
349 4 44.2323 35.3858 1.76929
8556 2 46.0016 35.3858 0
317 4 47.7709 33.6165 0
352 4 49.5402 35.3858 0
8524 2 47.7709 33.6165 0
8557 2 47.7709 35.3858 1.76929
354 4 51.3094 35.3858 1.76929
321 4 54.848 33.6165 0
8527 2 54.848 33.6165 0
322 4 1.76929 37.1551 0
357 4 0 38.9244 0
359 4 1.76929 38.9244 1.76929
8529 2 0 37.1551 1.76929
8561 2 0 38.9244 0
8562 2 1.76929 38.9244 1.76929
361 4 3.53858 38.9244 0
8530 2 5.30787 37.1551 0
8531 2 3.53858 37.1551 1.76929
8563 2 3.53858 38.9244 0
8564 2 5.30787 38.9244 1.76929
327 4 7.07717 37.1551 1.76929
363 4 7.07717 38.9244 0
364 4 8.84646 38.9244 1.76929
8533 2 8.84646 37.1551 0
8565 2 7.07717 38.9244 0
8566 2 8.84646 38.9244 1.76929
365 4 10.6157 38.9244 0
366 4 12.385 38.9244 1.76929
8534 2 12.385 37.1551 0
8569 2 12.385 38.9244 1.76929
330 4 15.9236 37.1551 0
331 4 14.1543 37.1551 1.76929
368 4 15.9236 38.9244 1.76929
8535 2 15.9236 37.1551 0
8570 2 15.9236 38.9244 1.76929
333 4 19.4622 37.1551 0
370 4 19.4622 38.9244 1.76929
8539 2 17.6929 37.1551 1.76929
335 4 23.0008 37.1551 0
336 4 21.2315 37.1551 1.76929
372 4 23.0008 38.9244 1.76929
8541 2 23.0008 37.1551 0
8543 2 21.2315 37.1551 1.76929
8573 2 23.0008 38.9244 1.76929
374 4 24.7701 38.9244 0
8575 2 24.7701 38.9244 0
337 4 26.5394 37.1551 0
342 4 28.3087 37.1551 1.76929
376 4 26.5394 38.9244 1.76929
378 4 28.3087 38.9244 0
8544 2 26.5394 37.1551 0
8549 2 28.3087 37.1551 1.76929
8576 2 26.5394 38.9244 1.76929
340 4 30.078 37.1551 0
379 4 30.078 38.9244 1.76929
380 4 31.8472 38.9244 0
8547 2 30.078 37.1551 0
8551 2 31.8472 37.1551 1.76929
8578 2 31.8472 38.9244 0
344 4 33.6165 37.1551 0
381 4 33.6165 38.9244 1.76929
8553 2 35.3858 37.1551 1.76929
383 4 37.1551 38.9244 1.76929
350 4 42.463 37.1551 1.76929
385 4 40.6937 38.9244 1.76929
8555 2 42.463 37.1551 1.76929
8581 2 40.6937 38.9244 1.76929
387 4 46.0016 38.9244 0
8554 2 44.2323 37.1551 0
351 4 47.7709 37.1551 0
390 4 49.5402 38.9244 0
8582 2 47.7709 38.9244 1.76929
353 4 51.3094 37.1551 0
391 4 51.3094 38.9244 1.76929
8558 2 51.3094 37.1551 0
8584 2 51.3094 38.9244 1.76929
355 4 54.848 37.1551 0
356 4 53.0787 37.1551 1.76929
8559 2 54.848 37.1551 0
8560 2 53.0787 37.1551 1.76929
8586 2 54.848 38.9244 1.76929
358 4 1.76929 40.6937 0
360 4 0 40.6937 1.76929
362 4 3.53858 40.6937 1.76929
395 4 3.53858 42.463 0
8591 2 5.30787 42.463 1.76929
397 4 7.07717 42.463 0
399 4 8.84646 42.463 1.76929
8567 2 7.07717 40.6937 1.76929
8593 2 7.07717 42.463 0
8595 2 8.84646 42.463 1.76929
367 4 10.6157 40.6937 1.76929
401 4 12.385 42.463 1.76929
8568 2 12.385 40.6937 0
402 4 14.1543 42.463 0
8597 2 15.9236 42.463 1.76929
369 4 19.4622 40.6937 0
371 4 17.6929 40.6937 1.76929
8571 2 19.4622 40.6937 0
8572 2 17.6929 40.6937 1.76929
8598 2 17.6929 42.463 0
8599 2 19.4622 42.463 1.76929
373 4 21.2315 40.6937 1.76929
406 4 21.2315 42.463 0
8574 2 21.2315 40.6937 1.76929
8600 2 21.2315 42.463 0
8601 2 23.0008 42.463 1.76929
377 4 24.7701 40.6937 1.76929
407 4 24.7701 42.463 0
8577 2 24.7701 40.6937 1.76929
8602 2 24.7701 42.463 0
375 4 26.5394 40.6937 0
8579 2 31.8472 40.6937 1.76929
8605 2 30.078 42.463 1.76929
8607 2 31.8472 42.463 0
408 4 33.6165 42.463 1.76929
410 4 35.3858 42.463 0
8608 2 33.6165 42.463 1.76929
8610 2 35.3858 42.463 0
382 4 37.1551 40.6937 0
412 4 37.1551 42.463 1.76929
413 4 38.9244 42.463 0
8580 2 37.1551 40.6937 0
8612 2 37.1551 42.463 1.76929
8614 2 38.9244 42.463 0
384 4 40.6937 40.6937 0
386 4 42.463 40.6937 1.76929
415 4 40.6937 42.463 1.76929
8615 2 40.6937 42.463 1.76929
8616 2 42.463 42.463 0
389 4 46.0016 40.6937 1.76929
418 4 46.0016 42.463 0
8617 2 44.2323 42.463 1.76929
8618 2 46.0016 42.463 0
388 4 47.7709 40.6937 0
419 4 47.7709 42.463 1.76929
420 4 49.5402 42.463 0
8585 2 49.5402 40.6937 1.76929
8583 2 51.3094 40.6937 0
392 4 54.848 40.6937 0
393 4 53.0787 40.6937 1.76929
422 4 53.0787 42.463 0
8587 2 53.0787 40.6937 1.76929
8622 2 53.0787 42.463 0
394 4 0 44.2323 1.76929
8588 2 1.76929 44.2323 0
8589 2 0 44.2323 1.76929
8623 2 0 46.0016 0
8624 2 1.76929 46.0016 1.76929
396 4 3.53858 44.2323 1.76929
426 4 3.53858 46.0016 0
8590 2 5.30787 44.2323 0
8592 2 3.53858 44.2323 1.76929
8625 2 5.30787 46.0016 1.76929
398 4 8.84646 44.2323 0
400 4 7.07717 44.2323 1.76929
8594 2 8.84646 44.2323 0
8627 2 7.07717 46.0016 0
8628 2 8.84646 46.0016 1.76929
429 4 10.6157 46.0016 0
8596 2 12.385 44.2323 0
8631 2 12.385 46.0016 1.76929
403 4 15.9236 44.2323 0
404 4 14.1543 44.2323 1.76929
432 4 14.1543 46.0016 0
405 4 17.6929 44.2323 1.76929
435 4 17.6929 46.0016 0
8635 2 19.4622 46.0016 1.76929
436 4 21.2315 46.0016 0
438 4 23.0008 46.0016 1.76929
8636 2 21.2315 46.0016 0
8603 2 24.7701 44.2323 1.76929
440 4 26.5394 46.0016 1.76929
441 4 28.3087 46.0016 0
8606 2 28.3087 44.2323 1.76929
8638 2 26.5394 46.0016 1.76929
409 4 31.8472 44.2323 1.76929
8604 2 30.078 44.2323 0
8609 2 31.8472 44.2323 1.76929
443 4 33.6165 46.0016 1.76929
445 4 35.3858 46.0016 0
8613 2 35.3858 44.2323 1.76929
8641 2 33.6165 46.0016 1.76929
411 4 37.1551 44.2323 0
448 4 38.9244 46.0016 0
8611 2 37.1551 44.2323 0
8644 2 38.9244 46.0016 0
414 4 40.6937 44.2323 0
417 4 42.463 44.2323 1.76929
449 4 40.6937 46.0016 1.76929
450 4 42.463 46.0016 0
416 4 44.2323 44.2323 0
452 4 44.2323 46.0016 1.76929
454 4 46.0016 46.0016 0
8620 2 46.0016 44.2323 1.76929
8647 2 44.2323 46.0016 1.76929
8649 2 46.0016 46.0016 0
456 4 47.7709 46.0016 1.76929
8619 2 47.7709 44.2323 0
8621 2 49.5402 44.2323 1.76929
8651 2 47.7709 46.0016 1.76929
8652 2 49.5402 46.0016 0
421 4 51.3094 44.2323 0
457 4 51.3094 46.0016 1.76929
423 4 54.848 44.2323 0
424 4 53.0787 44.2323 1.76929
459 4 53.0787 46.0016 0
460 4 54.848 46.0016 1.76929
8655 2 53.0787 46.0016 0
8657 2 54.848 46.0016 1.76929
425 4 0 47.7709 1.76929
8658 2 0 49.5402 0
8660 2 1.76929 49.5402 1.76929
427 4 3.53858 47.7709 1.76929
8626 2 3.53858 47.7709 1.76929
428 4 8.84646 47.7709 0
463 4 8.84646 49.5402 1.76929
8629 2 7.07717 47.7709 1.76929
8662 2 7.07717 49.5402 0
430 4 12.385 47.7709 0
431 4 10.6157 47.7709 1.76929
464 4 10.6157 49.5402 0
8630 2 12.385 47.7709 0
8632 2 10.6157 47.7709 1.76929
8665 2 10.6157 49.5402 0
8667 2 12.385 49.5402 1.76929
433 4 15.9236 47.7709 0
434 4 14.1543 47.7709 1.76929
465 4 14.1543 49.5402 0
8633 2 15.9236 47.7709 0
8634 2 14.1543 47.7709 1.76929
8668 2 14.1543 49.5402 0
467 4 17.6929 49.5402 0
468 4 19.4622 49.5402 1.76929
8669 2 17.6929 49.5402 0
437 4 23.0008 47.7709 0
470 4 23.0008 49.5402 1.76929
8637 2 23.0008 47.7709 0
8671 2 21.2315 49.5402 0
471 4 24.7701 49.5402 0
8639 2 24.7701 47.7709 1.76929
439 4 26.5394 47.7709 0
473 4 26.5394 49.5402 1.76929
8640 2 28.3087 47.7709 1.76929
8673 2 26.5394 49.5402 1.76929
8674 2 28.3087 49.5402 0
444 4 31.8472 47.7709 1.76929
475 4 30.078 49.5402 1.76929
8676 2 31.8472 49.5402 0
442 4 33.6165 47.7709 0
447 4 35.3858 47.7709 1.76929
477 4 33.6165 49.5402 1.76929
478 4 35.3858 49.5402 0
8643 2 35.3858 47.7709 1.76929
8677 2 33.6165 49.5402 1.76929
446 4 37.1551 47.7709 0
479 4 37.1551 49.5402 1.76929
8642 2 37.1551 47.7709 0
8646 2 38.9244 47.7709 1.76929
8680 2 37.1551 49.5402 1.76929
453 4 42.463 47.7709 1.76929
481 4 40.6937 49.5402 1.76929
483 4 42.463 49.5402 0
8645 2 40.6937 47.7709 0
8648 2 42.463 47.7709 1.76929
451 4 44.2323 47.7709 0
484 4 44.2323 49.5402 1.76929
8684 2 46.0016 49.5402 0
455 4 47.7709 47.7709 0
458 4 49.5402 47.7709 1.76929
8650 2 47.7709 47.7709 0
8654 2 49.5402 47.7709 1.76929
8687 2 49.5402 49.5402 0
488 4 51.3094 49.5402 1.76929
8653 2 51.3094 47.7709 0
489 4 53.0787 49.5402 0
491 4 54.848 49.5402 1.76929
8656 2 54.848 47.7709 0
8659 2 1.76929 51.3094 0
461 4 5.30787 51.3094 0
8661 2 3.53858 51.3094 1.76929
462 4 8.84646 51.3094 0
8663 2 8.84646 51.3094 0
8664 2 7.07717 51.3094 1.76929
8666 2 12.385 51.3094 0
466 4 14.1543 51.3094 1.76929
469 4 17.6929 51.3094 1.76929
8670 2 19.4622 51.3094 0
8672 2 21.2315 51.3094 1.76929
474 4 24.7701 51.3094 1.76929
472 4 26.5394 51.3094 0
8675 2 30.078 51.3094 0
8678 2 31.8472 51.3094 1.76929
476 4 33.6165 51.3094 0
8681 2 35.3858 51.3094 1.76929
482 4 38.9244 51.3094 1.76929
8679 2 37.1551 51.3094 0
8682 2 38.9244 51.3094 1.76929
480 4 40.6937 51.3094 0
8683 2 42.463 51.3094 1.76929
486 4 46.0016 51.3094 1.76929
8686 2 46.0016 51.3094 1.76929
485 4 47.7709 51.3094 0
8685 2 47.7709 51.3094 0
487 4 51.3094 51.3094 0
8688 2 51.3094 51.3094 0
490 4 54.848 51.3094 0
492 4 1.76929 54.848 0
8689 2 0 53.0787 0
8690 2 1.76929 54.848 0
8691 2 0 54.848 1.76929
493 4 3.53858 53.0787 0
494 4 5.30787 54.848 0
495 4 3.53858 54.848 1.76929
8692 2 3.53858 53.0787 0
8693 2 5.30787 53.0787 1.76929
8694 2 3.53858 54.848 1.76929
496 4 7.07717 53.0787 0
497 4 8.84646 53.0787 1.76929
8695 2 8.84646 54.848 0
8696 2 7.07717 54.848 1.76929
498 4 12.385 54.848 0
8697 2 10.6157 53.0787 0
8698 2 12.385 53.0787 1.76929
8699 2 14.1543 53.0787 0
8700 2 15.9236 54.848 0
8701 2 15.9236 53.0787 1.76929
8702 2 14.1543 54.848 1.76929
499 4 19.4622 54.848 0
500 4 19.4622 53.0787 1.76929
501 4 17.6929 54.848 1.76929
8703 2 17.6929 53.0787 0
502 4 21.2315 53.0787 0
8704 2 23.0008 54.848 0
8705 2 23.0008 53.0787 1.76929
8706 2 21.2315 54.848 1.76929
503 4 24.7701 53.0787 0
8707 2 24.7701 53.0787 0
8709 2 24.7701 54.848 1.76929
504 4 26.5394 54.848 0
505 4 26.5394 53.0787 1.76929
508 4 28.3087 54.848 1.76929
8708 2 26.5394 53.0787 1.76929
8711 2 28.3087 54.848 1.76929
506 4 30.078 54.848 0
507 4 30.078 53.0787 1.76929
509 4 31.8472 53.0787 0
8710 2 30.078 54.848 0
8712 2 31.8472 53.0787 0
8714 2 31.8472 54.848 1.76929
510 4 33.6165 54.848 0
511 4 33.6165 53.0787 1.76929
512 4 35.3858 53.0787 0
8713 2 33.6165 53.0787 1.76929
8715 2 35.3858 53.0787 0
8718 2 35.3858 54.848 1.76929
513 4 38.9244 53.0787 0
8716 2 37.1551 54.848 0
8717 2 37.1551 53.0787 1.76929
8719 2 38.9244 53.0787 0
514 4 40.6937 53.0787 1.76929
516 4 42.463 54.848 1.76929
8720 2 40.6937 54.848 0
515 4 44.2323 53.0787 1.76929
517 4 46.0016 53.0787 0
519 4 46.0016 54.848 1.76929
8721 2 44.2323 53.0787 1.76929
8722 2 46.0016 53.0787 0
8725 2 46.0016 54.848 1.76929
518 4 47.7709 53.0787 1.76929
8723 2 47.7709 54.848 0
8724 2 47.7709 53.0787 1.76929
8726 2 51.3094 54.848 0
8727 2 51.3094 53.0787 1.76929
520 4 54.848 54.848 0
521 4 54.848 53.0787 1.76929
8728 2 54.848 54.848 0
8729 2 54.848 53.0787 1.76929
8730 2 1.76929 1.76929 3.53858
8731 2 0 1.76929 5.30787
522 4 5.30787 0 5.30787
523 4 3.53858 1.76929 5.30787
8732 2 5.30787 1.76929 3.53858
8733 2 5.30787 0 5.30787
8734 2 3.53858 1.76929 5.30787
524 4 8.84646 0 5.30787
8735 2 7.07717 0 3.53858
8736 2 8.84646 0 5.30787
8737 2 7.07717 1.76929 5.30787
525 4 12.385 1.76929 3.53858
526 4 12.385 0 5.30787
527 4 10.6157 1.76929 5.30787
8738 2 12.385 0 5.30787
8739 2 10.6157 1.76929 5.30787
528 4 14.1543 0 3.53858
529 4 15.9236 0 5.30787
8740 2 14.1543 0 3.53858
8741 2 14.1543 1.76929 5.30787
530 4 19.4622 0 5.30787
531 4 17.6929 1.76929 5.30787
8742 2 17.6929 1.76929 5.30787
532 4 23.0008 1.76929 3.53858
533 4 23.0008 0 5.30787
8743 2 21.2315 0 3.53858
8744 2 23.0008 1.76929 3.53858
8745 2 21.2315 1.76929 5.30787
534 4 24.7701 0 3.53858
535 4 24.7701 1.76929 5.30787
8746 2 24.7701 0 3.53858
536 4 28.3087 0 3.53858
539 4 28.3087 1.76929 5.30787
8747 2 26.5394 0 5.30787
8748 2 28.3087 0 3.53858
8749 2 28.3087 1.76929 5.30787
537 4 30.078 1.76929 3.53858
538 4 30.078 0 5.30787
8752 2 31.8472 1.76929 5.30787
540 4 35.3858 0 3.53858
8750 2 33.6165 1.76929 3.53858
8751 2 33.6165 0 5.30787
8753 2 35.3858 1.76929 5.30787
541 4 38.9244 0 3.53858
542 4 40.6937 1.76929 3.53858
545 4 42.463 1.76929 5.30787
8754 2 40.6937 1.76929 3.53858
8755 2 40.6937 0 5.30787
8756 2 42.463 1.76929 5.30787
543 4 44.2323 1.76929 3.53858
544 4 44.2323 0 5.30787
546 4 46.0016 0 3.53858
549 4 46.0016 1.76929 5.30787
8757 2 46.0016 0 3.53858
547 4 47.7709 1.76929 3.53858