ITEM: TIMESTEP
0
ITEM: NUMBER OF ATOMS
16384
ITEM: BOX BOUNDS pp pp pp
0.0000000000000000e+00 3.6572720299676803e+01
0.0000000000000000e+00 3.6572720299676803e+01
0.0000000000000000e+00 3.6572720299676803e+01
ITEM: ATOMS id type x y z
1 4 0 0 0
2 4 1.15197 1.15197 0
5 4 2.30394 1.15197 1.15197
32 4 1.15197 2.30394 1.15197
8193 2 0 0 0
8194 2 1.15197 1.15197 0
8195 2 1.15197 0 1.15197
8196 2 0 1.15197 1.15197
8226 2 0 2.30394 0
8730 2 1.15197 1.15197 2.30394
8760 2 2.30394 2.30394 2.30394
3 4 3.45591 1.15197 0
4 4 3.45591 0 1.15197
6 4 5.75984 0 1.15197
7 4 4.60787 1.15197 1.15197
34 4 3.45591 2.30394 1.15197
36 4 4.60787 2.30394 0
38 4 5.75984 2.30394 1.15197
558 4 4.60787 2.30394 2.30394
8197 2 3.45591 0 1.15197
8198 2 4.60787 0 0
8199 2 5.75984 1.15197 0
8228 2 3.45591 2.30394 1.15197
8229 2 4.60787 2.30394 0
8732 2 3.45591 1.15197 2.30394
8735 2 4.60787 0 2.30394
8 4 8.06378 1.15197 0
9 4 8.06378 0 1.15197
10 4 6.91181 1.15197 1.15197
11 4 9.21575 0 0
12 4 9.21575 1.15197 1.15197
41 4 8.06378 2.30394 1.15197
43 4 9.21575 2.30394 0
525 4 8.06378 1.15197 2.30394
528 4 9.21575 0 2.30394
561 4 6.91181 2.30394 2.30394
8200 2 8.06378 1.15197 0
8231 2 9.21575 2.30394 0
8740 2 9.21575 0 2.30394
46 4 12.6717 2.30394 1.15197
565 4 11.5197 2.30394 2.30394
8201 2 10.3677 0 1.15197
8202 2 12.6717 0 1.15197
8203 2 11.5197 1.15197 1.15197
8232 2 10.3677 2.30394 1.15197
13 4 13.8236 0 0
14 4 16.1276 0 0
16 4 16.1276 1.15197 1.15197
48 4 13.8236 2.30394 0
50 4 14.9756 2.30394 1.15197
532 4 14.9756 1.15197 2.30394
534 4 16.1276 0 2.30394
568 4 13.8236 2.30394 2.30394
8204 2 13.8236 0 0
8205 2 14.9756 1.15197 0
8206 2 13.8236 1.15197 1.15197
8207 2 16.1276 0 0
8235 2 14.9756 2.30394 1.15197
8236 2 16.1276 2.30394 0
8743 2 13.8236 0 2.30394
8744 2 14.9756 1.15197 2.30394
8746 2 16.1276 0 2.30394
8770 2 13.8236 2.30394 2.30394
8773 2 16.1276 2.30394 2.30394
15 4 17.2795 0 1.15197
17 4 18.4315 0 0
18 4 19.5835 1.15197 0
19 4 19.5835 0 1.15197
53 4 18.4315 2.30394 0
55 4 19.5835 2.30394 1.15197
536 4 18.4315 0 2.30394
537 4 19.5835 1.15197 2.30394
571 4 18.4315 2.30394 2.30394
8208 2 17.2795 0 1.15197
8209 2 19.5835 1.15197 0
8238 2 18.4315 2.30394 0
8748 2 18.4315 0 2.30394
20 4 21.8874 1.15197 0
21 4 21.8874 0 1.15197
57 4 20.7354 2.30394 0
540 4 23.0394 0 2.30394
575 4 20.7354 2.30394 2.30394
8210 2 21.8874 1.15197 0
8211 2 21.8874 0 1.15197
8212 2 20.7354 1.15197 1.15197
8213 2 23.0394 0 0
8215 2 23.0394 1.15197 1.15197
8240 2 21.8874 2.30394 1.15197
8750 2 21.8874 1.15197 2.30394
8778 2 20.7354 2.30394 2.30394
22 4 24.1913 1.15197 0
23 4 25.3433 0 0
24 4 26.4953 1.15197 0
60 4 24.1913 2.30394 1.15197
62 4 26.4953 2.30394 1.15197
541 4 25.3433 0 2.30394
542 4 26.4953 1.15197 2.30394
8214 2 24.1913 0 1.15197
8216 2 26.4953 1.15197 0
8217 2 25.3433 1.15197 1.15197
8242 2 24.1913 2.30394 1.15197
8243 2 25.3433 2.30394 0
8754 2 26.4953 1.15197 2.30394
25 4 28.7992 1.15197 0
63 4 27.6472 2.30394 0
65 4 28.7992 2.30394 1.15197
543 4 28.7992 1.15197 2.30394
8218 2 27.6472 0 0
8219 2 28.7992 1.15197 0
8220 2 27.6472 1.15197 1.15197
8245 2 27.6472 2.30394 0
8246 2 28.7992 2.30394 1.15197
8783 2 27.6472 2.30394 2.30394
26 4 31.1031 1.15197 0
27 4 32.2551 0 0
29 4 32.2551 1.15197 1.15197
67 4 31.1031 2.30394 1.15197
68 4 32.2551 2.30394 0
546 4 29.9512 0 2.30394
547 4 31.1031 1.15197 2.30394
583 4 29.9512 2.30394 2.30394
8221 2 29.9512 0 0
8222 2 31.1031 0 1.15197
8223 2 29.9512 1.15197 1.15197
8247 2 29.9512 2.30394 0
8249 2 31.1031 2.30394 1.15197
8251 2 32.2551 2.30394 0
8757 2 29.9512 0 2.30394
8787 2 32.2551 2.30394 2.30394
28 4 33.4071 0 1.15197
30 4 34.5591 0 0
31 4 35.711 1.15197 0
70 4 34.5591 2.30394 0
551 4 34.5591 0 2.30394
8224 2 33.4071 0 1.15197
8225 2 34.5591 0 0
8252 2 34.5591 2.30394 0
8254 2 35.711 2.30394 1.15197
8759 2 35.711 1.15197 2.30394
33 4 0 3.45591 1.15197
35 4 2.30394 3.45591 1.15197
73 4 1.15197 4.60787 1.15197
75 4 2.30394 5.75984 1.15197
553 4 1.15197 3.45591 2.30394
587 4 0 4.60787 2.30394
588 4 1.15197 5.75984 2.30394
8227 2 1.15197 3.45591 0
8256 2 1.15197 4.60787 1.15197
8257 2 0 5.75984 1.15197
8258 2 2.30394 4.60787 0
8790 2 0 4.60787 2.30394
8793 2 2.30394 4.60787 2.30394
37 4 5.75984 3.45591 0
39 4 4.60787 3.45591 1.15197
74 4 3.45591 4.60787 1.15197
555 4 3.45591 3.45591 2.30394
590 4 3.45591 5.75984 2.30394
8230 2 5.75984 3.45591 0
8259 2 3.45591 5.75984 0
8260 2 4.60787 4.60787 0
8261 2 5.75984 4.60787 1.15197
8262 2 4.60787 5.75984 1.15197
8761 2 3.45591 3.45591 2.30394
8762 2 5.75984 3.45591 2.30394
8794 2 3.45591 5.75984 2.30394
40 4 8.06378 3.45591 0
42 4 6.91181 3.45591 1.15197
45 4 9.21575 3.45591 1.15197
76 4 6.91181 4.60787 0
77 4 8.06378 4.60787 1.15197
562 4 8.06378 3.45591 2.30394
592 4 9.21575 4.60787 2.30394
8263 2 6.91181 4.60787 0
8264 2 6.91181 5.75984 1.15197
8265 2 9.21575 4.60787 0
8798 2 8.06378 5.75984 2.30394
44 4 10.3677 3.45591 0
47 4 11.5197 3.45591 1.15197
78 4 10.3677 4.60787 1.15197
79 4 12.6717 5.75984 0
80 4 12.6717 4.60787 1.15197
563 4 10.3677 3.45591 2.30394
566 4 12.6717 3.45591 2.30394
594 4 11.5197 4.60787 2.30394
595 4 12.6717 5.75984 2.30394
8233 2 12.6717 3.45591 0
8266 2 10.3677 5.75984 0
8267 2 10.3677 4.60787 1.15197
8268 2 11.5197 4.60787 0
8269 2 12.6717 5.75984 0
8270 2 12.6717 4.60787 1.15197
8765 2 10.3677 3.45591 2.30394
8768 2 12.6717 3.45591 2.30394
8801 2 12.6717 5.75984 2.30394
49 4 14.9756 3.45591 0
51 4 13.8236 3.45591 1.15197
52 4 16.1276 3.45591 1.15197
81 4 13.8236 4.60787 0
82 4 14.9756 4.60787 1.15197
83 4 16.1276 5.75984 1.15197
569 4 14.9756 3.45591 2.30394
596 4 13.8236 4.60787 2.30394
598 4 16.1276 4.60787 2.30394
8234 2 14.9756 3.45591 0
8237 2 16.1276 3.45591 1.15197
8271 2 14.9756 5.75984 0
8272 2 13.8236 5.75984 1.15197
8273 2 16.1276 5.75984 1.15197
8771 2 14.9756 3.45591 2.30394
8804 2 16.1276 4.60787 2.30394
54 4 19.5835 3.45591 0
56 4 18.4315 3.45591 1.15197
84 4 19.5835 4.60787 1.15197
572 4 19.5835 3.45591 2.30394
599 4 17.2795 5.75984 2.30394
601 4 19.5835 5.75984 2.30394
8239 2 19.5835 3.45591 0
8274 2 18.4315 4.60787 0
8275 2 19.5835 5.75984 0
8276 2 18.4315 5.75984 1.15197
8776 2 19.5835 3.45591 2.30394
8805 2 19.5835 5.75984 2.30394
58 4 21.8874 3.45591 0
59 4 20.7354 3.45591 1.15197
61 4 23.0394 3.45591 1.15197
85 4 21.8874 5.75984 0
86 4 20.7354 5.75984 1.15197
88 4 23.0394 5.75984 1.15197
576 4 21.8874 3.45591 2.30394
603 4 20.7354 4.60787 2.30394
8241 2 20.7354 3.45591 1.15197
8277 2 20.7354 4.60787 0
8278 2 21.8874 5.75984 0
8279 2 21.8874 4.60787 1.15197
8280 2 20.7354 5.75984 1.15197
8281 2 23.0394 4.60787 0
87 4 24.1913 4.60787 1.15197
89 4 26.4953 4.60787 1.15197
90 4 25.3433 5.75984 1.15197
579 4 26.4953 3.45591 2.30394
604 4 25.3433 4.60787 2.30394
8244 2 26.4953 3.45591 0
8282 2 24.1913 5.75984 0
8283 2 24.1913 4.60787 1.15197
8284 2 26.4953 5.75984 0
8809 2 24.1913 5.75984 2.30394
8812 2 25.3433 4.60787 2.30394
8813 2 26.4953 5.75984 2.30394
64 4 28.7992 3.45591 0
91 4 28.7992 5.75984 0
92 4 27.6472 5.75984 1.15197
582 4 28.7992 3.45591 2.30394
8285 2 27.6472 4.60787 0
8784 2 28.7992 3.45591 2.30394
8816 2 27.6472 4.60787 2.30394
8817 2 28.7992 5.75984 2.30394
66 4 31.1031 3.45591 0
93 4 29.9512 5.75984 1.15197
94 4 32.2551 4.60787 0
584 4 31.1031 3.45591 2.30394
8248 2 31.1031 3.45591 0
8250 2 29.9512 3.45591 1.15197
8286 2 31.1031 5.75984 0
8287 2 31.1031 4.60787 1.15197
8288 2 29.9512 5.75984 1.15197
8289 2 32.2551 4.60787 0
8291 2 32.2551 5.75984 1.15197
69 4 33.4071 3.45591 0
71 4 35.711 3.45591 0
72 4 34.5591 3.45591 1.15197
95 4 34.5591 4.60787 0
96 4 35.711 5.75984 0
97 4 34.5591 5.75984 1.15197
586 4 35.711 3.45591 2.30394
609 4 34.5591 4.60787 2.30394
610 4 35.711 5.75984 2.30394
8253 2 35.711 3.45591 0
8255 2 34.5591 3.45591 1.15197
8290 2 33.4071 5.75984 0
8292 2 34.5591 4.60787 0
8293 2 35.711 5.75984 0
8294 2 34.5591 5.75984 1.15197
8789 2 35.711 3.45591 2.30394
8822 2 35.711 5.75984 2.30394
98 4 1.15197 8.06378 0
99 4 1.15197 6.91181 1.15197
100 4 0 8.06378 1.15197
101 4 2.30394 6.91181 0
8295 2 0 6.91181 0
8296 2 2.30394 6.91181 0
8327 2 1.15197 9.21575 1.15197
8329 2 2.30394 9.21575 0
8824 2 0 6.91181 2.30394
8825 2 1.15197 8.06378 2.30394
8826 2 2.30394 6.91181 2.30394
8852 2 0 9.21575 2.30394
8856 2 2.30394 9.21575 2.30394
102 4 3.45591 8.06378 0
103 4 3.45591 6.91181 1.15197
104 4 4.60787 6.91181 0
105 4 5.75984 6.91181 1.15197
134 4 5.75984 9.21575 1.15197
612 4 3.45591 8.06378 2.30394
613 4 4.60787 6.91181 2.30394
614 4 5.75984 8.06378 2.30394
8297 2 3.45591 8.06378 0
8298 2 3.45591 6.91181 1.15197
8299 2 4.60787 6.91181 0
8300 2 5.75984 8.06378 0
8331 2 3.45591 9.21575 1.15197
8333 2 4.60787 9.21575 0
8827 2 4.60787 6.91181 2.30394
8828 2 5.75984 8.06378 2.30394
106 4 8.06378 8.06378 0
107 4 8.06378 6.91181 1.15197
616 4 8.06378 8.06378 2.30394
8301 2 6.91181 6.91181 0
8302 2 8.06378 8.06378 0
8303 2 6.91181 8.06378 1.15197
8829 2 8.06378 8.06378 2.30394
8831 2 9.21575 6.91181 2.30394
108 4 11.5197 6.91181 0
109 4 12.6717 8.06378 0
110 4 12.6717 6.91181 1.15197
137 4 11.5197 9.21575 0
618 4 11.5197 6.91181 2.30394
8304 2 10.3677 8.06378 0
8305 2 10.3677 6.91181 1.15197
8306 2 12.6717 8.06378 0
8338 2 10.3677 9.21575 1.15197
8340 2 11.5197 9.21575 0
8341 2 12.6717 9.21575 1.15197
8864 2 11.5197 9.21575 2.30394
111 4 13.8236 6.91181 0
112 4 14.9756 6.91181 1.15197
113 4 13.8236 8.06378 1.15197
114 4 16.1276 6.91181 0
117 4 16.1276 8.06378 1.15197
139 4 13.8236 9.21575 0
620 4 14.9756 8.06378 2.30394
8307 2 14.9756 8.06378 0
8308 2 13.8236 8.06378 1.15197
8309 2 16.1276 6.91181 0
8311 2 16.1276 8.06378 1.15197
8344 2 14.9756 9.21575 1.15197
8833 2 14.9756 8.06378 2.30394
8866 2 13.8236 9.21575 2.30394
8868 2 16.1276 9.21575 2.30394
115 4 17.2795 8.06378 0
116 4 17.2795 6.91181 1.15197
118 4 18.4315 8.06378 1.15197
143 4 19.5835 9.21575 1.15197
621 4 17.2795 8.06378 2.30394
623 4 18.4315 6.91181 2.30394
624 4 19.5835 8.06378 2.30394
654 4 18.4315 9.21575 2.30394
8310 2 17.2795 6.91181 1.15197
8312 2 18.4315 6.91181 0
8313 2 19.5835 8.06378 0
8834 2 17.2795 8.06378 2.30394
8835 2 18.4315 6.91181 2.30394
8836 2 19.5835 8.06378 2.30394
119 4 20.7354 6.91181 0
120 4 21.8874 8.06378 0
121 4 21.8874 6.91181 1.15197
122 4 20.7354 8.06378 1.15197
123 4 23.0394 6.91181 0
146 4 21.8874 9.21575 1.15197
148 4 23.0394 9.21575 0
626 4 20.7354 6.91181 2.30394
628 4 23.0394 6.91181 2.30394
657 4 20.7354 9.21575 2.30394
8314 2 20.7354 6.91181 0
8315 2 21.8874 6.91181 1.15197
8316 2 23.0394 6.91181 0
8349 2 21.8874 9.21575 1.15197
8838 2 21.8874 8.06378 2.30394
8839 2 23.0394 6.91181 2.30394
124 4 24.1913 6.91181 1.15197
629 4 24.1913 8.06378 2.30394
660 4 25.3433 9.21575 2.30394
8317 2 25.3433 6.91181 0
8318 2 25.3433 8.06378 1.15197
8353 2 25.3433 9.21575 0
8354 2 26.4953 9.21575 1.15197
8840 2 24.1913 8.06378 2.30394
8843 2 26.4953 8.06378 2.30394
125 4 28.7992 8.06378 0
126 4 28.7992 6.91181 1.15197
127 4 27.6472 8.06378 1.15197
152 4 27.6472 9.21575 0
633 4 27.6472 6.91181 2.30394
662 4 27.6472 9.21575 2.30394
8356 2 27.6472 9.21575 0
8357 2 28.7992 9.21575 1.15197
128 4 29.9512 6.91181 0
129 4 31.1031 6.91181 1.15197
130 4 32.2551 6.91181 0
155 4 29.9512 9.21575 0
156 4 31.1031 9.21575 1.15197
158 4 32.2551 9.21575 0
664 4 29.9512 9.21575 2.30394
667 4 32.2551 9.21575 2.30394
8319 2 31.1031 6.91181 1.15197
8320 2 29.9512 8.06378 1.15197
8321 2 32.2551 6.91181 0
8322 2 32.2551 8.06378 1.15197
8359 2 31.1031 9.21575 1.15197
8847 2 32.2551 6.91181 2.30394
8878 2 29.9512 9.21575 2.30394
131 4 35.711 8.06378 0
635 4 33.4071 8.06378 2.30394
637 4 34.5591 6.91181 2.30394
8323 2 34.5591 6.91181 0
8324 2 35.711 8.06378 0
8325 2 34.5591 8.06378 1.15197
8362 2 34.5591 9.21575 0
8364 2 35.711 9.21575 1.15197
8848 2 33.4071 8.06378 2.30394
8851 2 35.711 8.06378 2.30394
132 4 1.15197 10.3677 0
160 4 0 11.5197 0
161 4 1.15197 12.6717 0
162 4 1.15197 11.5197 1.15197
163 4 0 12.6717 1.15197
164 4 2.30394 11.5197 0
640 4 1.15197 10.3677 2.30394
672 4 0 11.5197 2.30394
675 4 2.30394 11.5197 2.30394
8326 2 1.15197 10.3677 0
8328 2 0 10.3677 1.15197
8332 2 2.30394 10.3677 1.15197
8366 2 0 11.5197 0
8367 2 1.15197 12.6717 0
8368 2 1.15197 11.5197 1.15197
8369 2 0 12.6717 1.15197
8370 2 2.30394 11.5197 0
8373 2 2.30394 12.6717 1.15197
8853 2 1.15197 10.3677 2.30394
8880 2 0 11.5197 2.30394
8883 2 2.30394 11.5197 2.30394
133 4 3.45591 10.3677 0
165 4 3.45591 11.5197 1.15197
166 4 5.75984 12.6717 0
167 4 5.75984 11.5197 1.15197
168 4 4.60787 12.6717 1.15197
676 4 3.45591 12.6717 2.30394
679 4 4.60787 11.5197 2.30394
680 4 5.75984 12.6717 2.30394
8330 2 3.45591 10.3677 0
8334 2 5.75984 10.3677 0
8335 2 4.60787 10.3677 1.15197
8371 2 3.45591 12.6717 0
8372 2 3.45591 11.5197 1.15197
8374 2 4.60787 11.5197 0
8375 2 5.75984 12.6717 0
8857 2 3.45591 10.3677 2.30394
8860 2 5.75984 10.3677 2.30394
8884 2 3.45591 12.6717 2.30394
8886 2 4.60787 11.5197 2.30394
8887 2 5.75984 12.6717 2.30394
135 4 6.91181 10.3677 1.15197
136 4 9.21575 10.3677 1.15197
169 4 8.06378 11.5197 1.15197
170 4 6.91181 12.6717 1.15197
171 4 9.21575 11.5197 0
174 4 9.21575 12.6717 1.15197
682 4 6.91181 11.5197 2.30394
683 4 8.06378 12.6717 2.30394
685 4 9.21575 11.5197 2.30394
8336 2 8.06378 10.3677 0
8339 2 9.21575 10.3677 1.15197
8376 2 8.06378 12.6717 0
8377 2 8.06378 11.5197 1.15197
8378 2 9.21575 11.5197 0
8381 2 9.21575 12.6717 1.15197
8888 2 8.06378 12.6717 2.30394
8890 2 9.21575 11.5197 2.30394
138 4 12.6717 10.3677 0
172 4 10.3677 12.6717 0
173 4 10.3677 11.5197 1.15197
175 4 11.5197 11.5197 0
176 4 11.5197 12.6717 1.15197
686 4 10.3677 12.6717 2.30394
688 4 11.5197 11.5197 2.30394
689 4 12.6717 12.6717 2.30394
8337 2 10.3677 10.3677 0
8342 2 11.5197 10.3677 1.15197
8379 2 10.3677 12.6717 0
8380 2 10.3677 11.5197 1.15197
8382 2 12.6717 12.6717 0
8383 2 12.6717 11.5197 1.15197
8863 2 10.3677 10.3677 2.30394
8891 2 10.3677 12.6717 2.30394
8892 2 12.6717 12.6717 2.30394
140 4 14.9756 10.3677 0
142 4 16.1276 10.3677 1.15197
177 4 13.8236 11.5197 0
178 4 14.9756 12.6717 0
691 4 14.9756 12.6717 2.30394
8343 2 14.9756 10.3677 0
8345 2 13.8236 10.3677 1.15197
8346 2 16.1276 10.3677 1.15197
8384 2 14.9756 12.6717 0
8385 2 14.9756 11.5197 1.15197
8386 2 16.1276 11.5197 0
8867 2 14.9756 10.3677 2.30394
8894 2 13.8236 11.5197 2.30394
8895 2 14.9756 12.6717 2.30394
8897 2 16.1276 11.5197 2.30394
141 4 17.2795 10.3677 0
144 4 18.4315 10.3677 1.15197
179 4 17.2795 12.6717 0
652 4 17.2795 10.3677 2.30394
655 4 19.5835 10.3677 2.30394
8347 2 19.5835 10.3677 0
8348 2 18.4315 10.3677 1.15197
8387 2 17.2795 12.6717 0
8388 2 18.4315 12.6717 1.15197
8869 2 17.2795 10.3677 2.30394
8870 2 19.5835 10.3677 2.30394
8898 2 19.5835 12.6717 2.30394
145 4 21.8874 10.3677 0
147 4 20.7354 10.3677 1.15197
150 4 23.0394 10.3677 1.15197
180 4 20.7354 11.5197 0
181 4 21.8874 12.6717 0
182 4 20.7354 12.6717 1.15197
183 4 23.0394 11.5197 0
658 4 21.8874 10.3677 2.30394
8350 2 20.7354 10.3677 1.15197
8352 2 23.0394 10.3677 1.15197
8389 2 21.8874 12.6717 0
8390 2 21.8874 11.5197 1.15197
8391 2 23.0394 11.5197 0
8871 2 21.8874 10.3677 2.30394
8899 2 21.8874 12.6717 2.30394
8902 2 23.0394 11.5197 2.30394
149 4 24.1913 10.3677 0
151 4 26.4953 10.3677 0
184 4 25.3433 11.5197 0
185 4 25.3433 12.6717 1.15197
659 4 24.1913 10.3677 2.30394
661 4 26.4953 10.3677 2.30394
698 4 25.3433 11.5197 2.30394
699 4 26.4953 12.6717 2.30394
8351 2 24.1913 10.3677 0
8355 2 25.3433 10.3677 1.15197
8392 2 24.1913 12.6717 0
8393 2 24.1913 11.5197 1.15197
8394 2 25.3433 12.6717 1.15197
8874 2 24.1913 10.3677 2.30394
8903 2 24.1913 12.6717 2.30394
153 4 28.7992 10.3677 0
154 4 27.6472 10.3677 1.15197
186 4 28.7992 11.5197 1.15197
663 4 28.7992 10.3677 2.30394
701 4 27.6472 11.5197 2.30394
8358 2 27.6472 10.3677 1.15197
8395 2 27.6472 11.5197 0
8396 2 28.7992 11.5197 1.15197
8397 2 27.6472 12.6717 1.15197
8906 2 27.6472 11.5197 2.30394
8907 2 28.7992 12.6717 2.30394
157 4 29.9512 10.3677 1.15197
187 4 31.1031 12.6717 0
188 4 31.1031 11.5197 1.15197
189 4 29.9512 12.6717 1.15197
702 4 29.9512 11.5197 2.30394
703 4 31.1031 12.6717 2.30394
705 4 32.2551 11.5197 2.30394
8360 2 29.9512 10.3677 1.15197
8398 2 29.9512 11.5197 0
8399 2 31.1031 11.5197 1.15197
8400 2 29.9512 12.6717 1.15197
8401 2 32.2551 11.5197 0
8909 2 29.9512 11.5197 2.30394
8910 2 31.1031 12.6717 2.30394
159 4 34.5591 10.3677 1.15197
190 4 33.4071 12.6717 0
191 4 35.711 12.6717 0
192 4 35.711 11.5197 1.15197
668 4 33.4071 10.3677 2.30394
706 4 33.4071 12.6717 2.30394
709 4 34.5591 11.5197 2.30394
710 4 35.711 12.6717 2.30394
8361 2 33.4071 10.3677 0
8363 2 35.711 10.3677 0
8365 2 34.5591 10.3677 1.15197
8402 2 33.4071 12.6717 0
8403 2 35.711 12.6717 0
8913 2 33.4071 12.6717 2.30394
8916 2 34.5591 11.5197 2.30394
193 4 1.15197 14.9756 0
194 4 1.15197 13.8236 1.15197
195 4 0 14.9756 1.15197
196 4 2.30394 13.8236 0
230 4 0 16.1276 0
232 4 1.15197 16.1276 1.15197
711 4 0 13.8236 2.30394
712 4 1.15197 14.9756 2.30394
713 4 2.30394 13.8236 2.30394
747 4 0 16.1276 2.30394
750 4 2.30394 16.1276 2.30394
8404 2 2.30394 13.8236 0
8405 2 2.30394 14.9756 1.15197
8431 2 0 16.1276 0
8433 2 1.15197 16.1276 1.15197
8918 2 0 13.8236 2.30394
8919 2 1.15197 14.9756 2.30394
8920 2 2.30394 13.8236 2.30394
8952 2 0 16.1276 2.30394
197 4 3.45591 14.9756 0
198 4 4.60787 13.8236 0
199 4 5.75984 14.9756 0
200 4 5.75984 13.8236 1.15197
201 4 4.60787 14.9756 1.15197
235 4 3.45591 16.1276 1.15197
237 4 5.75984 16.1276 1.15197
715 4 5.75984 14.9756 2.30394
8406 2 4.60787 13.8236 0
8407 2 5.75984 14.9756 0
8436 2 3.45591 16.1276 1.15197
8437 2 4.60787 16.1276 0
8439 2 5.75984 16.1276 1.15197
8921 2 3.45591 14.9756 2.30394
8923 2 4.60787 13.8236 2.30394
8924 2 5.75984 14.9756 2.30394
8956 2 4.60787 16.1276 2.30394
202 4 6.91181 13.8236 0
203 4 8.06378 14.9756 0
204 4 8.06378 13.8236 1.15197
239 4 6.91181 16.1276 0
240 4 8.06378 16.1276 1.15197
718 4 6.91181 13.8236 2.30394
719 4 8.06378 14.9756 2.30394
721 4 9.21575 13.8236 2.30394
755 4 9.21575 16.1276 2.30394
8408 2 6.91181 13.8236 0
8409 2 6.91181 14.9756 1.15197
8410 2 9.21575 13.8236 0
8412 2 9.21575 14.9756 1.15197
8926 2 6.91181 13.8236 2.30394
8927 2 8.06378 14.9756 2.30394
8928 2 9.21575 13.8236 2.30394
205 4 10.3677 14.9756 0
206 4 10.3677 13.8236 1.15197
207 4 12.6717 14.9756 0
208 4 11.5197 14.9756 1.15197
243 4 10.3677 16.1276 1.15197
723 4 12.6717 14.9756 2.30394
8411 2 10.3677 14.9756 0
8413 2 11.5197 13.8236 0
8414 2 12.6717 13.8236 1.15197
8441 2 10.3677 16.1276 1.15197
8443 2 12.6717 16.1276 1.15197
8930 2 12.6717 14.9756 2.30394
8962 2 11.5197 16.1276 2.30394
209 4 13.8236 13.8236 0
210 4 14.9756 14.9756 0
245 4 13.8236 16.1276 0
246 4 14.9756 16.1276 1.15197
759 4 13.8236 16.1276 2.30394
8415 2 14.9756 14.9756 0
8416 2 14.9756 13.8236 1.15197
8417 2 16.1276 13.8236 0
8445 2 14.9756 16.1276 1.15197
8446 2 16.1276 16.1276 0
8933 2 16.1276 13.8236 2.30394
8965 2 16.1276 16.1276 2.30394
211 4 17.2795 14.9756 0
212 4 18.4315 13.8236 0
213 4 19.5835 14.9756 0
214 4 19.5835 13.8236 1.15197
215 4 18.4315 14.9756 1.15197
248 4 17.2795 16.1276 1.15197
727 4 17.2795 14.9756 2.30394
728 4 18.4315 13.8236 2.30394
729 4 19.5835 14.9756 2.30394
8418 2 17.2795 13.8236 1.15197
8419 2 18.4315 13.8236 0
8420 2 19.5835 13.8236 1.15197
8447 2 18.4315 16.1276 0
8934 2 17.2795 14.9756 2.30394
8936 2 19.5835 14.9756 2.30394
8966 2 18.4315 16.1276 2.30394
216 4 21.8874 14.9756 0
217 4 21.8874 13.8236 1.15197
218 4 23.0394 13.8236 0
251 4 20.7354 16.1276 0
252 4 23.0394 16.1276 0
731 4 20.7354 13.8236 2.30394
734 4 23.0394 13.8236 2.30394
765 4 20.7354 16.1276 2.30394
8421 2 20.7354 13.8236 0
8422 2 21.8874 14.9756 0
8423 2 21.8874 13.8236 1.15197
8424 2 23.0394 13.8236 0
8449 2 20.7354 16.1276 0
8450 2 21.8874 16.1276 1.15197
8451 2 23.0394 16.1276 0
8937 2 20.7354 13.8236 2.30394
8938 2 21.8874 14.9756 2.30394
8968 2 20.7354 16.1276 2.30394
219 4 24.1913 13.8236 1.15197
220 4 25.3433 13.8236 0
221 4 26.4953 14.9756 0
253 4 24.1913 16.1276 1.15197
735 4 24.1913 14.9756 2.30394
736 4 26.4953 14.9756 2.30394
769 4 25.3433 16.1276 2.30394
8425 2 24.1913 14.9756 0
8426 2 26.4953 14.9756 0
8427 2 25.3433 14.9756 1.15197
8453 2 24.1913 16.1276 1.15197
8454 2 25.3433 16.1276 0
8941 2 24.1913 14.9756 2.30394
8943 2 25.3433 13.8236 2.30394
222 4 28.7992 14.9756 0
223 4 28.7992 13.8236 1.15197
256 4 28.7992 16.1276 1.15197
739 4 27.6472 13.8236 2.30394
740 4 28.7992 14.9756 2.30394
8428 2 27.6472 14.9756 1.15197
8456 2 27.6472 16.1276 0
8944 2 28.7992 14.9756 2.30394
224 4 29.9512 13.8236 0
225 4 29.9512 14.9756 1.15197
226 4 32.2551 13.8236 0
228 4 32.2551 14.9756 1.15197
772 4 29.9512 16.1276 2.30394
8429 2 31.1031 13.8236 1.15197
8947 2 29.9512 13.8236 2.30394
8949 2 32.2551 13.8236 2.30394
227 4 33.4071 14.9756 0
229 4 35.711 14.9756 0
259 4 35.711 16.1276 1.15197
743 4 33.4071 14.9756 2.30394
745 4 35.711 14.9756 2.30394
776 4 34.5591 16.1276 2.30394
8430 2 33.4071 14.9756 0
231 4 1.15197 17.2795 0
233 4 0 17.2795 1.15197
236 4 2.30394 17.2795 1.15197
260 4 0 18.4315 0
261 4 1.15197 19.5835 0
262 4 0 19.5835 1.15197
263 4 2.30394 18.4315 0
266 4 2.30394 19.5835 1.15197
748 4 1.15197 17.2795 2.30394
778 4 0 18.4315 2.30394
779 4 1.15197 19.5835 2.30394
781 4 2.30394 18.4315 2.30394
8432 2 1.15197 17.2795 0
8434 2 0 17.2795 1.15197
8463 2 1.15197 19.5835 0
8464 2 1.15197 18.4315 1.15197
8465 2 0 19.5835 1.15197
8466 2 2.30394 18.4315 0
8953 2 1.15197 17.2795 2.30394
8981 2 0 18.4315 2.30394
8984 2 2.30394 18.4315 2.30394
234 4 3.45591 17.2795 0
238 4 4.60787 17.2795 1.15197
264 4 3.45591 19.5835 0
265 4 3.45591 18.4315 1.15197
267 4 4.60787 18.4315 0
268 4 5.75984 18.4315 1.15197
752 4 5.75984 17.2795 2.30394
8435 2 3.45591 17.2795 0
8438 2 5.75984 17.2795 0
8440 2 4.60787 17.2795 1.15197
8467 2 4.60787 18.4315 0
8468 2 5.75984 19.5835 0
8469 2 5.75984 18.4315 1.15197
8954 2 3.45591 17.2795 2.30394
8985 2 3.45591 19.5835 2.30394
8986 2 4.60787 18.4315 2.30394
8987 2 5.75984 19.5835 2.30394
241 4 6.91181 17.2795 1.15197
244 4 9.21575 17.2795 1.15197
269 4 6.91181 18.4315 0
270 4 8.06378 19.5835 0
271 4 6.91181 19.5835 1.15197
272 4 9.21575 19.5835 1.15197
753 4 8.06378 17.2795 2.30394
785 4 9.21575 18.4315 2.30394
8470 2 6.91181 18.4315 0
8472 2 9.21575 19.5835 1.15197
8958 2 8.06378 17.2795 2.30394
8990 2 8.06378 19.5835 2.30394
8992 2 9.21575 18.4315 2.30394
242 4 10.3677 17.2795 0
273 4 12.6717 19.5835 0
274 4 12.6717 18.4315 1.15197
275 4 11.5197 19.5835 1.15197
756 4 10.3677 17.2795 2.30394
786 4 10.3677 19.5835 2.30394
788 4 11.5197 18.4315 2.30394
8442 2 12.6717 17.2795 0
8471 2 10.3677 18.4315 1.15197
8473 2 12.6717 19.5835 0
8963 2 12.6717 17.2795 2.30394
8994 2 12.6717 19.5835 2.30394
249 4 16.1276 17.2795 1.15197
276 4 14.9756 18.4315 1.15197
277 4 13.8236 19.5835 1.15197
278 4 16.1276 18.4315 0
279 4 16.1276 19.5835 1.15197
789 4 14.9756 19.5835 2.30394
792 4 16.1276 18.4315 2.30394
8444 2 14.9756 17.2795 0
8474 2 13.8236 18.4315 0
8997 2 16.1276 18.4315 2.30394
247 4 17.2795 17.2795 0
250 4 18.4315 17.2795 1.15197
280 4 18.4315 18.4315 0
281 4 19.5835 18.4315 1.15197
793 4 18.4315 18.4315 2.30394
8448 2 19.5835 17.2795 0
8475 2 18.4315 18.4315 0
8476 2 19.5835 19.5835 0
8477 2 19.5835 18.4315 1.15197
8998 2 17.2795 19.5835 2.30394
282 4 20.7354 18.4315 0
283 4 21.8874 19.5835 0
284 4 21.8874 18.4315 1.15197
285 4 23.0394 19.5835 1.15197
797 4 23.0394 18.4315 2.30394
8478 2 20.7354 18.4315 0
8479 2 21.8874 19.5835 0
8480 2 23.0394 18.4315 0
8483 2 23.0394 19.5835 1.15197
8969 2 21.8874 17.2795 2.30394
9000 2 20.7354 18.4315 2.30394
9003 2 23.0394 18.4315 2.30394
254 4 26.4953 17.2795 0
286 4 25.3433 18.4315 0
287 4 26.4953 19.5835 0
767 4 24.1913 17.2795 2.30394
798 4 25.3433 18.4315 2.30394
799 4 26.4953 19.5835 2.30394
8452 2 24.1913 17.2795 0
8455 2 25.3433 17.2795 1.15197
8481 2 24.1913 19.5835 0
8482 2 24.1913 18.4315 1.15197
8484 2 26.4953 18.4315 1.15197
8485 2 25.3433 19.5835 1.15197
8971 2 24.1913 17.2795 2.30394
8974 2 26.4953 17.2795 2.30394
9005 2 26.4953 19.5835 2.30394
255 4 28.7992 17.2795 0
288 4 28.7992 19.5835 0
289 4 28.7992 18.4315 1.15197
290 4 27.6472 19.5835 1.15197
801 4 28.7992 19.5835 2.30394
8457 2 28.7992 17.2795 0
8458 2 27.6472 17.2795 1.15197
8486 2 28.7992 19.5835 0
8487 2 28.7992 18.4315 1.15197
9007 2 27.6472 18.4315 2.30394
9008 2 28.7992 19.5835 2.30394
257 4 29.9512 17.2795 1.15197
773 4 31.1031 17.2795 2.30394
803 4 31.1031 19.5835 2.30394
8459 2 31.1031 17.2795 0
8461 2 32.2551 17.2795 1.15197
8488 2 31.1031 19.5835 0
8489 2 31.1031 18.4315 1.15197
8490 2 29.9512 19.5835 1.15197
8491 2 32.2551 18.4315 0
8976 2 31.1031 17.2795 2.30394
9009 2 31.1031 19.5835 2.30394
9011 2 32.2551 18.4315 2.30394
258 4 33.4071 17.2795 0
291 4 33.4071 18.4315 1.15197
292 4 35.711 18.4315 1.15197
293 4 34.5591 19.5835 1.15197
777 4 35.711 17.2795 2.30394
806 4 33.4071 19.5835 2.30394
808 4 34.5591 18.4315 2.30394
809 4 35.711 19.5835 2.30394
8460 2 33.4071 17.2795 0
8462 2 35.711 17.2795 0
8492 2 33.4071 19.5835 0
8493 2 35.711 18.4315 1.15197
8494 2 34.5591 19.5835 1.15197
8980 2 35.711 17.2795 2.30394
294 4 1.15197 21.8874 0
295 4 2.30394 20.7354 0
323 4 1.15197 23.0394 1.15197
324 4 2.30394 23.0394 0
811 4 2.30394 20.7354 2.30394
843 4 0 23.0394 2.30394
846 4 2.30394 23.0394 2.30394
8495 2 0 20.7354 0
8496 2 1.15197 21.8874 0
8528 2 0 23.0394 0
9014 2 0 20.7354 2.30394
296 4 3.45591 21.8874 0
297 4 5.75984 20.7354 1.15197
325 4 3.45591 23.0394 1.15197
326 4 5.75984 23.0394 1.15197
812 4 3.45591 21.8874 2.30394
814 4 4.60787 20.7354 2.30394
8497 2 3.45591 21.8874 0
8498 2 3.45591 20.7354 1.15197
8499 2 4.60787 20.7354 0
8500 2 4.60787 21.8874 1.15197
8532 2 4.60787 23.0394 0
9015 2 3.45591 21.8874 2.30394
9049 2 4.60787 23.0394 2.30394
298 4 8.06378 21.8874 0
299 4 8.06378 20.7354 1.15197
300 4 6.91181 21.8874 1.15197
301 4 9.21575 20.7354 0
328 4 8.06378 23.0394 1.15197
329 4 9.21575 23.0394 0
817 4 6.91181 20.7354 2.30394
852 4 9.21575 23.0394 2.30394
8501 2 8.06378 21.8874 0
8502 2 8.06378 20.7354 1.15197
8503 2 6.91181 21.8874 1.15197
8504 2 9.21575 20.7354 0
8507 2 9.21575 21.8874 1.15197
9018 2 8.06378 21.8874 2.30394
9019 2 9.21575 20.7354 2.30394
9053 2 6.91181 23.0394 2.30394
9055 2 9.21575 23.0394 2.30394
302 4 10.3677 20.7354 1.15197
303 4 12.6717 21.8874 0
304 4 11.5197 21.8874 1.15197
332 4 11.5197 23.0394 0
819 4 11.5197 20.7354 2.30394
820 4 12.6717 21.8874 2.30394
856 4 11.5197 23.0394 2.30394
8505 2 10.3677 21.8874 0
8506 2 10.3677 20.7354 1.15197
8508 2 11.5197 20.7354 0
8509 2 12.6717 21.8874 0
8536 2 10.3677 23.0394 1.15197
8537 2 11.5197 23.0394 0
8538 2 12.6717 23.0394 1.15197
9020 2 10.3677 21.8874 2.30394
305 4 14.9756 21.8874 0
306 4 14.9756 20.7354 1.15197
334 4 13.8236 23.0394 0
823 4 13.8236 20.7354 2.30394
825 4 16.1276 20.7354 2.30394
860 4 16.1276 23.0394 2.30394
8510 2 13.8236 20.7354 0
8511 2 14.9756 21.8874 0
8512 2 13.8236 21.8874 1.15197
8513 2 16.1276 20.7354 0
8540 2 13.8236 23.0394 0
8542 2 14.9756 23.0394 1.15197
9023 2 16.1276 20.7354 2.30394
9063 2 16.1276 23.0394 2.30394
307 4 17.2795 21.8874 0
308 4 18.4315 20.7354 0
309 4 19.5835 21.8874 0
338 4 17.2795 23.0394 1.15197
339 4 18.4315 23.0394 0
341 4 19.5835 23.0394 1.15197
826 4 17.2795 21.8874 2.30394
8514 2 19.5835 21.8874 0
8515 2 19.5835 20.7354 1.15197
8516 2 18.4315 21.8874 1.15197
8545 2 17.2795 23.0394 1.15197
8546 2 18.4315 23.0394 0
8548 2 19.5835 23.0394 1.15197
9024 2 17.2795 21.8874 2.30394
9027 2 18.4315 20.7354 2.30394
9028 2 19.5835 21.8874 2.30394
312 4 23.0394 21.8874 1.15197
343 4 20.7354 23.0394 0
345 4 21.8874 23.0394 1.15197
346 4 23.0394 23.0394 0
828 4 20.7354 20.7354 2.30394
830 4 23.0394 20.7354 2.30394
866 4 23.0394 23.0394 2.30394
8517 2 21.8874 21.8874 0
8518 2 20.7354 21.8874 1.15197
8519 2 23.0394 20.7354 0
8521 2 23.0394 21.8874 1.15197
8550 2 21.8874 23.0394 1.15197
9030 2 23.0394 20.7354 2.30394
310 4 24.1913 21.8874 0
311 4 24.1913 20.7354 1.15197
313 4 26.4953 21.8874 0
347 4 25.3433 23.0394 0
832 4 25.3433 20.7354 2.30394
833 4 26.4953 21.8874 2.30394
870 4 25.3433 23.0394 2.30394
8520 2 24.1913 20.7354 1.15197
8522 2 26.4953 21.8874 0
8552 2 24.1913 23.0394 1.15197
9031 2 24.1913 21.8874 2.30394
9069 2 25.3433 23.0394 2.30394
314 4 27.6472 20.7354 0
315 4 28.7992 21.8874 0
348 4 27.6472 23.0394 0
349 4 28.7992 23.0394 1.15197
834 4 28.7992 21.8874 2.30394
8523 2 27.6472 20.7354 0
9035 2 27.6472 20.7354 2.30394
316 4 29.9512 20.7354 0
317 4 31.1031 21.8874 0
318 4 31.1031 20.7354 1.15197
319 4 29.9512 21.8874 1.15197
320 4 32.2551 20.7354 0
352 4 32.2551 23.0394 0
837 4 29.9512 20.7354 2.30394
838 4 31.1031 21.8874 2.30394
8524 2 31.1031 21.8874 0
8525 2 32.2551 20.7354 0
8556 2 29.9512 23.0394 0
8557 2 31.1031 23.0394 1.15197
9038 2 29.9512 20.7354 2.30394
9076 2 29.9512 23.0394 2.30394
321 4 35.711 21.8874 0
354 4 33.4071 23.0394 1.15197
841 4 35.711 21.8874 2.30394
874 4 34.5591 23.0394 2.30394
8526 2 33.4071 20.7354 1.15197
8527 2 35.711 21.8874 0
9040 2 33.4071 21.8874 2.30394
9042 2 34.5591 20.7354 2.30394
9043 2 35.711 21.8874 2.30394
9080 2 34.5591 23.0394 2.30394
322 4 1.15197 24.1913 0
357 4 0 25.3433 0
358 4 1.15197 26.4953 0
359 4 1.15197 25.3433 1.15197
360 4 0 26.4953 1.15197
361 4 2.30394 25.3433 0
362 4 2.30394 26.4953 1.15197
844 4 1.15197 24.1913 2.30394
876 4 0 25.3433 2.30394
879 4 2.30394 25.3433 2.30394
8529 2 0 24.1913 1.15197
8531 2 2.30394 24.1913 1.15197
8561 2 0 25.3433 0
8562 2 1.15197 25.3433 1.15197
8563 2 2.30394 25.3433 0
9045 2 1.15197 24.1913 2.30394
9082 2 1.15197 26.4953 2.30394
327 4 4.60787 24.1913 1.15197
363 4 4.60787 25.3433 0
364 4 5.75984 25.3433 1.15197
849 4 5.75984 24.1913 2.30394
8530 2 3.45591 24.1913 0
8533 2 5.75984 24.1913 0
8564 2 3.45591 25.3433 1.15197
8565 2 4.60787 25.3433 0
8566 2 5.75984 25.3433 1.15197
8567 2 4.60787 26.4953 1.15197
9046 2 3.45591 24.1913 2.30394
9050 2 5.75984 24.1913 2.30394
9084 2 3.45591 26.4953 2.30394
9085 2 4.60787 25.3433 2.30394
9086 2 5.75984 26.4953 2.30394
331 4 9.21575 24.1913 1.15197
365 4 6.91181 25.3433 0
366 4 8.06378 25.3433 1.15197
367 4 6.91181 26.4953 1.15197
851 4 8.06378 24.1913 2.30394
882 4 6.91181 25.3433 2.30394
883 4 8.06378 26.4953 2.30394
8534 2 8.06378 24.1913 0
8568 2 8.06378 26.4953 0