ITEM: TIMESTEP
0
ITEM: NUMBER OF ATOMS
50688
ITEM: BOX BOUNDS xy xz yz pp pp pp
-40.1340523 54.676651 14.5425978
-43.8030052 43.8030052 0.0
-43.7915344 43.7915344 0.0
ITEM: ATOMS id type x y z VoronoiIndex1 VoronoiIndex2 VoronoiIndex3 VoronoiIndex4 VoronoiIndex5 VoronoiIndex6 VoronoiIndex7 VoronoiIndex8 VoronoiIndex9 AtomicVolume
2 2 -13.7200003 -18.2299996 -8.2209997 0 0 1 3 7 2 0 0 0 12.1086969
4 2 -30.8899994 -21.8899994 -18.1100006 0 0 0 0 12 0 0 0 0 10.743846
15 4 -9.1809998 -25.2299996 -21.5400009 0 0 0 0 12 0 0 0 0 11.5888005
23 2 -17.7600003 -31.8899994 -14.4099999 0 0 0 0 12 0 0 0 0 11.9086828
33 1 -12.8000002 -5.1750002 -27.2700005 0 0 0 0 10 2 0 0 0 11.2397356
39 4 -24.4500008 -34.2599983 -42.1699982 0 0 0 0 12 2 0 0 0 11.8737736
45 4 -3.6640001 -14.7799998 -15.3500004 0 0 0 0 12 0 0 0 0 11.7258168
46 4 -29.0 -12.4600001 -43.0900002 0 0 0 1 10 3 0 0 0 12.2758389
68 4 -12.7100001 -10.04 -9.849 0 0 1 1 8 3 1 0 0 12.0191994
75 5 -1.188 -28.8899994 -36.4500008 0 0 0 1 10 5 0 0 0 12.9263612
88 5 -33.6599999 -31.8600006 -0.3392 0 0 1 1 9 4 0 0 0 12.333909
90 4 -14.4300003 -42.8499986 -35.9399986 0 0 0 4 6 5 0 0 0 12.4426117
93 2 -35.7099991 -19.1499996 -24.7900009 0 0 0 0 12 0 0 0 0 11.1569729
97 5 -21.9500008 -8.5979996 -0.6983 0 0 0 1 10 3 0 0 0 12.4561377
106 4 -13.9499998 -32.0900002 -2.638 0 0 0 1 10 2 0 0 0 12.0341949
109 4 -32.5499993 -10.4399996 -26.3600006 0 0 0 1 10 5 0 0 0 13.2594996
114 2 -11.6599999 -40.0600014 -6.876 0 0 0 3 6 4 0 0 0 11.2666693
118 2 -5.559 -35.2400017 -30.2900009 0 0 0 0 12 0 0 0 0 11.4253931
119 4 -34.5900002 -22.0499992 -19.1399994 0 0 0 3 6 3 0 0 0 11.7406473
122 4 -2.3010001 -35.1500015 -33.1199989 0 0 0 0 12 3 0 0 0 12.7796288
141 4 -20.1800003 -10.9200002 -40.0800018 0 0 0 2 8 5 0 0 0 12.666853
162 4 -3.774 -14.0 -34.6899987 0 0 0 1 10 2 2 0 0 13.8857498
164 1 -6.882 -7.9510002 -40.5499993 0 0 0 2 8 2 0 0 0 10.7646942
169 1 -0.6776001 -12.5799999 -18.6700001 0 0 0 1 10 2 0 0 0 11.5312882
174 5 0.9208 -8.6070004 -29.5499993 0 0 0 2 10 2 0 0 0 12.3931694
187 4 0.8537 -10.9700004 -21.6599999 0 0 0 3 8 2 0 0 0 11.6232891
199 1 -8.8549996 -31.0499992 -27.2700005 0 0 0 2 8 4 0 0 0 11.6917172
205 4 4.342 -2.3970001 -33.3400002 0 0 2 1 8 2 2 1 0 12.6559668
223 2 -5.388 -37.5600014 -23.1499996 0 0 0 1 10 2 0 0 0 12.3475542
227 4 -16.6700001 -6.731 -28.7399998 0 0 0 0 12 2 0 0 0 12.3960447
234 5 -20.9799996 -43.7299996 -13.2299996 0 0 0 1 10 2 0 0 0 11.668025
237 2 -15.6700001 -38.0299988 -34.3499985 0 0 1 0 11 1 0 0 0 12.4115296
253 5 -2.267 -4.5580001 -34.6100006 0 0 0 3 8 3 0 0 0 12.7133742
254 4 -8.8360005 -25.8099995 -4.4819999 0 0 0 4 6 2 0 0 0 11.5902519
258 2 -8.7519999 -37.3300018 -41.9700012 0 0 1 2 6 3 1 0 0 11.6883269
259 5 -5.6539998 -36.9300004 -34.8199997 0 0 0 0 12 0 0 0 0 11.8745328
265 5 -36.0499992 -21.5900002 -25.7000008 0 0 0 0 12 3 0 0 0 13.3267698
275 5 -35.8899994 -21.3600006 -32.4199982 0 0 0 2 8 5 0 0 0 13.0921803
286 3 -15.8999996 -33.1399994 -22.9699994 0 0 0 2 8 4 0 0 0 12.5031615
293 5 -19.5599995 -8.5769997 -43.5200005 0 0 0 1 10 2 0 0 0 12.0943651
297 5 -17.3400002 -8.3190003 -20.1200008 0 0 0 0 12 2 0 0 0 12.9986324
306 1 -0.9592 -17.2800007 -1.429 0 0 0 0 12 0 0 0 0 11.2302189
326 4 -25.8700008 -23.1100006 -9.6859999 0 0 0 1 10 4 0 0 0 12.9288254
330 4 3.27 -23.0300007 -25.0200005 0 0 0 0 12 2 0 0 0 12.2351151
338 5 -27.0599995 -33.9900018 -31.3799992 0 0 0 4 5 4 1 0 0 11.9417906
339 4 -4.441 -38.7999993 -10.5799999 0 0 0 3 8 4 0 0 0 13.1858635
349 4 -26.1599999 -42.4300003 -16.6900006 0 0 0 1 10 3 0 0 0 13.239646
350 4 -33.4399987 -14.7299996 -37.2299996 0 0 0 2 8 4 0 0 0 12.5031853
364 4 -6.626 -21.8600006 -42.2799988 0 0 1 2 8 1 1 0 0 11.8300343
378 1 -7.547 -43.6699982 -17.4599991 0 0 0 1 10 2 0 0 0 11.5150404
382 4 4.0409999 -13.5799999 -17.1000004 0 0 0 2 9 2 1 0 0 12.7827702
387 3 -17.2099991 -23.5699997 -32.5400009 0 0 0 0 12 2 0 0 0 13.1497669
397 1 -9.5380001 -27.25 -24.75 0 0 1 2 7 3 0 0 0 10.84937
403 4 -36.6899987 -33.5 -14.9399996 0 0 0 4 8 1 0 0 0 12.3990049
414 4 -12.0699997 -0.8143 -7.7729998 0 0 0 2 8 1 2 0 0 12.2035561
415 4 -13.0100002 -2.6860001 -27.5900002 0 0 0 0 11 2 1 0 0 12.294178
423 2 -28.9599992 -13.8999996 -26.5100003 0 0 0 3 8 2 0 0 0 12.0524397
424 3 -23.7399998 -37.5200005 -30.5200005 0 0 0 1 10 3 0 0 0 12.5022125
440 2 -12.2600002 -30.5 -36.7200012 0 0 2 2 5 2 1 1 0 11.9398852
449 4 3.2190001 -16.0900002 -39.7400017 0 0 0 0 12 2 0 0 0 12.812089
454 4 5.4749999 -3.629 -39.8100014 0 0 0 1 12 3 0 0 0 13.6435957
458 1 -37.4199982 -28.4400006 -38.9599992 0 0 0 0 12 0 0 0 0 11.0279856
461 2 -20.9699994 -1.215 -6.4000001 0 0 0 2 8 2 0 0 0 11.6536331
469 2 -7.1529999 -15.0900002 -7.3429999 0 0 0 3 8 2 0 0 0 11.1905041
477 2 -16.5400009 -18.8799992 -25.9599992 0 0 0 1 10 2 0 0 0 11.8337593
478 5 -12.6899996 -9.625 -32.5299988 0 0 0 1 10 2 0 0 0 11.2572832
483 4 -9.8120003 -6.5910001 -31.0300007 0 0 0 2 8 4 0 0 0 12.6924629
485 4 -15.3699999 -16.3400002 -4.4970002 0 0 0 2 8 4 0 0 0 12.1880503
495 4 -35.2099991 -24.8700008 -1.267 0 0 1 2 7 5 0 0 0 12.3754034
497 5 -5.132 -38.1399994 -42.6899987 0 0 0 2 10 0 0 0 0 11.6675568
508 4 -24.6000004 -23.3299999 -13.5799999 0 0 0 3 5 4 1 0 0 12.2680693
511 4 -21.2800007 -22.7999993 -35.0800018 0 0 0 2 8 5 0 0 0 13.2634039
514 2 -15.4600001 -23.7199993 -39.1599999 0 0 0 2 8 3 0 0 0 12.2299385
537 5 -19.0900002 -18.7900009 -14.7399998 0 0 0 2 8 4 0 0 0 12.3074799
544 3 -31.0200005 -13.2600002 -38.9300004 0 0 0 2 8 4 0 0 0 12.5705767
546 2 -16.3600006 -13.3999996 -34.3300018 0 0 1 4 5 2 0 0 0 11.3445158
553 4 -34.4099999 -28.3799992 -5.2080002 0 0 0 1 10 4 0 0 0 12.4101505
554 5 -21.2999992 -39.3800011 -18.7299996 0 0 0 1 10 2 0 0 0 11.6080408
567 2 -10.7799998 -42.7200012 -18.2299996 0 0 0 3 6 6 0 0 0 11.9428922
574 4 -32.2799988 -24.6299992 -15.7700005 0 0 1 3 5 5 0 0 0 11.8286896
579 5 -21.3099995 -25.9599992 -23.7399998 0 0 0 0 12 3 0 0 0 12.8241053
595 4 -5.9710002 -23.6200009 -24.1800003 0 0 0 4 6 3 0 0 0 11.9931146
621 2 -30.6800003 -32.7599983 -7.1170001 0 0 1 3 5 3 2 0 0 11.7628622
644 2 -15.1300001 -8.7410002 -21.5300007 0 0 0 0 12 0 0 0 0 11.6494875
661 2 2.2679999 -25.9400006 -27.2999992 0 0 0 0 12 0 0 0 0 11.2270937
664 4 -5.2030001 -31.4500008 -37.7599983 0 0 0 1 10 3 0 0 0 12.4258433
667 4 1.38 -26.2199993 -7.481 0 0 0 2 10 1 0 0 0 12.8023949
670 4 -25.9300004 -20.0200005 -40.8600006 0 0 1 2 7 5 0 0 0 12.7685795
672 4 -2.524 -42.6399994 -26.3500004 0 0 0 1 12 1 0 0 0 11.6681595
690 2 -21.25 -32.4399987 -36.7599983 0 0 0 4 6 3 0 0 0 11.7401848
699 4 -7.0409999 -21.3400002 -27.1599999 0 0 0 1 12 2 0 0 0 12.9692288
701 5 -19.2800007 -31.7999993 -2.99 0 0 0 1 10 4 0 0 0 12.9282122
702 5 -9.4700003 -34.5499993 -14.0100002 0 0 0 0 12 0 0 0 0 11.5688591
708 4 -0.1037 -2.833 -34.1199989 0 0 0 2 8 2 0 0 0 11.9202108
718 4 -20.9099998 -13.7399998 -30.6700001 0 0 0 2 8 4 0 0 0 12.2415419
731 4 -2.7260001 -20.0900002 -28.8700008 0 0 1 4 5 5 0 0 0 12.913787
733 4 -17.7800007 -20.3700009 -24.2600002 0 0 1 2 8 2 1 0 0 12.7584238
740 2 -36.4099999 -37.8300019 -42.0800018 0 0 0 0 12 0 0 0 0 11.0204248
759 4 5.3730002 -2.24 -1.655 0 0 0 0 12 2 0 0 0 12.2987023
766 4 -28.7399998 -12.3999996 -12.79 0 0 0 1 10 1 2 0 0 13.2697296
773 2 -15.6700001 -25.8199997 -29.9400006 0 0 0 2 8 3 0 0 0 11.6206408
779 5 -13.8599998 -34.4599991 -18.8799992 0 0 0 2 8 4 0 0 0 12.7773342
782 2 1.386 -19.7299996 -9.3540001 0 0 0 3 6 5 0 0 0 11.679246
783 5 -1.702 -26.4699993 -17.0799999 0 0 0 1 9 2 1 0 0 12.2038212
792 4 -2.674 -31.5699997 -36.4300003 0 0 2 0 10 4 0 0 0 12.9984426
800 2 -38.7099991 -37.5 -19.8199997 0 0 2 2 4 5 0 0 0 11.4827223
804 2 -8.665 -1.583 -39.5800019 0 0 0 2 8 4 0 0 0 12.4049969
824 5 -28.7299996 -24.4200001 -1.9450002 0 0 2 2 6 4 2 0 0 12.8567086
827 2 -7.4829998 -36.5699997 -23.1900005 0 0 1 2 9 1 0 0 0 11.8933392
839 2 -27.6100006 -42.0200005 -4.1100001 0 0 0 6 0 8 0 0 0 12.119319
853 4 -32.0600014 -8.955 -28.6499996 0 0 0 3 6 5 0 0 0 12.3571196
857 5 -28.8299999 -15.8100004 -16.9500008 0 0 1 3 5 5 0 0 0 12.7726279
858 4 -23.7099991 -10.1899996 -4.2519999 0 0 0 2 9 3 1 0 0 14.4029818
864 4 -0.4283 -11.96 -27.75 0 0 0 1 10 4 0 0 0 12.9628078
867 1 -1.425 -28.3299999 -20.7299996 0 0 0 0 12 0 0 0 0 10.5462361
900 2 5.145 -6.0770001 -43.3400002 0 0 0 0 12 0 0 0 0 10.8364744
912 5 -23.9899998 -43.1800003 -39.4900017 0 0 0 1 10 3 0 0 0 12.3697786
913 1 -11.3000002 -10.6700001 -24.8899994 0 0 0 3 8 2 0 0 0 11.7201624
918 4 -14.6199999 -17.4300003 -33.75 0 0 1 3 7 3 0 0 0 12.33494
919 5 -3.526 -14.1599999 -9.415 0 0 0 2 9 3 1 0 0 12.5674038
927 5 -19.0599995 -25.0300007 -29.0300007 0 0 0 1 10 3 0 0 0 12.9001646
934 4 -21.0400009 -7.975 -25.75 0 0 1 4 5 3 2 0 0 12.7370968
935 2 -26.7700005 -6.125 -25.8999996 0 0 0 2 8 2 0 0 0 11.4219284
940 4 0.08581 -41.3800011 -9.4510002 0 0 0 0 12 4 0 0 0 13.4995566
949 2 -23.7399998 -5.4359999 -32.5099983 0 0 3 2 4 4 1 0 0 12.4293299
959 4 -22.0599995 -25.2299996 -9.4890003 0 0 2 4 3 3 3 0 0 12.666688
961 2 -18.4699993 -40.1899986 -40.7400017 0 0 2 3 5 4 0 1 0 12.3607874
969 2 -31.6800003 -10.0799999 -12.0200005 0 0 0 1 10 2 0 0 0 11.592722
979 2 -8.3190003 -14.2299996 -19.9599992 0 0 0 3 6 4 0 0 0 12.0612497
983 2 0.4924 -4.1939998 -8.6140003 0 0 0 3 6 5 0 0 0 12.0103798
990 5 -26.7399998 -27.1700001 -42.2700005 0 0 0 2 10 3 0 0 0 12.6006947
996 2 2.9030002 -21.7600003 -20.7800007 0 0 1 3 5 4 0 0 0 12.118166
1001 4 -8.441 -19.4699993 -23.3400002 0 0 1 2 9 2 0 0 0 12.7351723
1016 2 -6.414 -30.5599995 -8.2259998 0 0 0 0 12 0 0 0 0 11.4650822
1033 2 -25.75 -34.2700005 -11.0100002 0 0 1 3 9 2 0 0 0 12.8471538
1051 4 -15.4399996 -15.6999998 -18.8799992 0 0 0 0 12 0 0 0 0 11.1102486
1052 1 3.056 -14.4700003 -35.8499986 0 0 0 2 8 1 1 0 0 11.3849468
1064 5 -4.9439998 -19.6200009 -31.0400009 0 0 1 3 5 6 0 0 0 12.2158938
1065 2 -11.5200005 -18.5699997 -9.151 0 0 1 2 6 2 0 0 0 11.1625967
1084 1 2.303 -6.1009998 -33.6100006 0 0 0 1 10 2 0 0 0 11.5705986
1086 1 -18.1599999 -38.7799988 -23.9599992 0 0 0 1 10 2 0 0 0 11.3188582
1089 3 -29.6299992 -32.9599992 -38.2099991 0 0 0 2 8 5 0 0 0 12.6375456
1099 2 3.3670001 -2.1110001 -39.25 0 0 0 0 12 2 0 0 0 12.6847725
1102 1 -13.6499996 -36.2700005 -37.2099991 0 0 0 0 12 0 0 0 0 11.0732174
1110 2 -23.9500008 -21.25 -5.2800002 0 0 0 1 10 3 0 0 0 13.3237591
1119 5 5.1950002 -7.941 -5.2560001 0 0 0 2 9 2 1 0 0 13.0859423
1122 4 -22.3899994 -24.2800007 -14.3999996 0 0 0 2 8 4 0 0 0 13.0291777
1131 2 -5.612 -2.3900001 -21.5300007 0 0 0 0 12 0 0 0 0 12.3178816
1133 2 -12.3800001 -42.2700005 -7.98 0 0 0 3 6 5 0 0 0 12.0499878
1138 4 -34.7799988 -29.75 -0.4068 0 0 0 1 10 2 0 0 0 11.1198349
1163 2 -33.7799988 -19.5599995 -12.2799997 0 0 0 4 6 1 0 0 0 11.4297343
1164 4 -1.258 -24.2700005 -31.5100003 0 0 0 2 8 5 0 0 0 13.0269299
1166 5 -25.7099991 -28.5100003 -9.7139998 0 0 0 4 6 5 0 0 0 12.84554
1170 2 -7.8319998 -3.937 -17.5499993 0 0 0 2 8 3 0 0 0 12.1617785
1178 1 -26.3400002 -33.6800003 -5.7820001 0 0 1 3 3 7 0 0 0 10.7585869
1195 5 -14.8599998 -38.8499986 -9.5290003 0 0 0 3 6 4 0 0 0 11.624774
1198 5 -10.3299999 -34.4300003 -38.2400017 0 0 0 1 10 2 0 0 0 11.9298086
1209 2 -12.1400003 -5.639 -9.6020003 0 0 0 4 4 4 0 0 0 12.2412796
1211 5 -27.9799996 -23.2399998 -23.3600006 0 0 0 1 10 2 0 0 0 11.5738564
1219 5 -27.4099999 -32.6699982 -39.25 0 0 1 0 11 1 0 0 0 11.9070396
1239 2 -18.5 -10.6999998 -19.9799996 0 0 0 0 12 0 0 0 0 11.5052681
1256 4 -14.1899996 -6.0609999 -8.4519997 0 0 0 0 12 3 0 0 0 13.1012096
1262 4 -30.2999992 -21.3899994 -14.1400003 0 0 0 1 10 2 0 0 0 11.8500376
1266 4 -1.944 -21.9200002 -37.619999 0 0 0 1 10 2 0 0 0 11.4799099
1274 4 1.092 -27.9799996 -0.3194 0 0 1 3 6 5 1 0 0 12.7386103
1279 4 1.693 -23.4200001 -31.4200001 0 0 0 0 12 2 0 0 0 12.6106158
1286 5 -5.982 -10.3100004 -36.3199997 0 0 1 2 9 3 0 0 0 12.6547575
1289 2 -6.9330002 -10.1999998 -23.0400009 0 0 0 1 10 2 0 0 0 11.2916165
1299 2 -7.1659999 -15.9300004 -40.0800018 0 0 0 2 8 2 0 0 0 11.3258333
1303 4 -13.3800001 -19.1700001 -35.1699982 0 0 0 1 10 2 0 0 0 12.3133154
1304 5 -12.4200001 -19.0300007 -15.0500002 0 0 0 2 8 1 0 0 0 11.415
1306 5 -0.6629 -10.87 -30.2700005 0 0 0 2 8 4 0 0 0 12.5518723
1319 2 -22.9599992 -29.1399994 -1.954 0 0 0 3 6 5 0 0 0 11.7547598
1322 4 -3.1889999 -27.8400002 -3.7690001 0 0 1 4 5 4 0 0 0 13.0930414
1336 4 -8.6520005 -4.461 -23.2600002 0 0 1 2 7 2 2 0 0 12.2344828
1337 4 -14.1300001 -20.0699997 -37.3400002 0 0 0 0 12 4 0 0 0 12.857585
1340 2 -29.5599995 -25.0 -39.0299988 0 0 0 1 10 2 0 0 0 12.7844935
1343 2 -23.3099995 -4.9720002 -34.9599992 0 0 0 1 10 2 0 0 0 11.4941378
1347 4 4.5549999 -12.7799998 -37.0099983 0 0 0 3 7 3 1 0 0 12.5783568
1352 5 -10.6700001 -15.1499996 -42.7099991 0 0 0 2 8 6 0 0 0 13.4327736
1357 4 4.981 -13.0699997 -29.8799992 0 0 0 2 8 4 0 0 0 12.0287008
1372 2 -18.9400006 -22.5599995 -28.6399994 0 0 1 3 4 3 1 0 0 12.3110504
1385 5 1.257 -10.04 -34.0299988 0 0 1 4 3 6 0 0 0 11.730671
1394 5 -2.546 -36.4000015 -26.1700001 0 0 0 1 10 2 0 0 0 12.2070894
1408 1 -22.8999996 -34.3499985 -8.6070004 0 0 2 3 5 4 1 0 0 11.8099451
1414 2 -31.0200005 -21.2900009 -31.6000004 0 0 0 0 12 0 0 0 0 11.3007298
1415 2 4.0089998 -17.1900005 -5.9720002 0 0 0 0 12 0 0 0 0 10.872346
1421 2 -20.4200001 -36.2099991 -33.0800018 0 0 0 2 8 4 0 0 0 11.7789736
1495 5 -15.6599999 -22.6399994 -6.5700002 0 0 1 1 9 2 2 0 0 13.3504782
1502 4 -4.651 -12.8199997 -38.5299988 0 0 0 4 6 2 0 0 0 12.0398827
1505 2 -25.2999992 -19.3600006 -43.619999 0 0 0 4 4 4 0 0 0 12.3599873
1521 5 -16.4200001 -23.8700008 -2.4419999 0 0 0 2 8 2 0 0 0 11.6905823
1526 4 -15.96 -9.1540003 -35.4000015 0 0 0 1 10 2 0 0 0 12.2634096
1527 5 -19.2999992 -40.4900017 -35.8199997 0 0 1 0 9 3 0 0 0 11.4763699
1529 2 -16.0400009 -36.6699982 -26.2299996 0 0 0 3 6 3 0 0 0 11.8609562
1539 5 -29.9500008 -1.726 -30.3899994 0 0 0 4 8 1 0 0 0 12.4482842
1540 5 -0.2222 -9.3640003 -23.2800007 0 0 0 2 8 5 0 0 0 12.8146639
1541 5 -36.3199997 -22.8400002 -43.2400017 0 0 1 2 7 3 0 0 0 11.6846609
1546 4 -12.5200005 -41.8300019 -38.4399987 0 0 1 4 7 4 0 0 0 13.7614403
1552 4 -36.619999 -41.0 -29.7000008 0 0 0 2 8 4 0 0 0 12.2208891
1555 2 -14.4300003 -18.0200005 -42.4599991 0 0 0 2 8 2 0 0 0 11.8572084
1563 5 -6.7420001 -30.2199993 -17.0400009 0 0 0 3 6 4 0 0 0 12.0607672
1566 5 -5.4270001 -7.5830002 -18.5400009 0 0 1 2 7 3 0 0 0 12.0143251
1581 4 6.0869999 -4.3410001 -24.8299999 0 0 0 0 12 0 0 0 0 10.8975392
1585 4 -36.6699982 -28.6299992 -6.4070001 0 0 1 1 9 5 0 0 0 12.9753524
1593 2 -22.8500004 -4.263 -28.8799992 0 0 1 0 9 3 0 0 0 11.6587992
1597 5 -5.066 -17.8600006 -9.1490002 0 0 1 2 7 3 0 0 0 11.4896479
1611 5 -15.0100002 -7.6929999 -0.2859 0 0 0 0 12 0 0 0 0 10.7130909
1617 4 -17.6800003 -2.7560001 -38.2799988 0 0 0 2 9 2 0 0 0 11.8134718
1626 2 -19.7700005 -35.8400002 -27.8099995 0 0 1 2 9 1 0 0 0 11.3651877
1632 5 -5.1770001 -23.2299996 -33.3699989 0 0 0 0 12 2 0 0 0 12.3038645
1651 2 -2.602 -1.955 -6.81 0 0 0 4 6 3 0 0 0 11.0987215
1656 4 -9.507 -3.422 -19.1700001 0 0 1 2 9 3 0 0 0 12.4667006
1660 4 -31.8600006 -5.9860002 -25.7600003 0 0 0 0 12 2 0 0 0 11.8736592
1670 2 -25.7900009 -23.2900009 -24.9500008 0 0 0 1 10 2 0 0 0 11.513341
1671 4 -2.9920002 -29.5100003 -34.8899994 0 0 0 0 12 2 0 0 0 12.7075644
1675 4 -2.5120001 -41.4099999 -28.7900009 0 0 0 1 10 3 0 0 0 12.9030704
1680 5 -3.184 -31.2900009 -23.1900005 0 0 0 1 10 2 0 0 0 11.5427361
1683 4 -26.8199997 -15.9099998 -38.3199997 0 0 0 3 6 5 0 0 0 12.3494454
1686 5 -9.4540005 -17.5499993 -26.7199993 0 0 0 1 10 2 0 0 0 11.7125645
1687 2 -23.8199997 -31.0900002 -31.6100006 0 0 0 2 10 0 0 0 0 11.6029797
1700 2 1.249 -32.2900009 -34.7599983 0 0 0 2 10 2 0 0 0 12.0227041
1707 4 -18.0200005 -29.6299992 -3.556 0 0 0 0 12 0 0 0 0 11.5059157
1713 4 4.5209999 -16.3600006 -22.8700008 0 0 0 2 8 4 0 0 0 11.8949146
1727 5 -18.0699997 -10.4499998 -15.8400002 0 0 2 2 4 4 2 0 0 12.5331126
1733 4 -9.4180002 -25.5200005 -28.2000008 0 0 0 2 8 4 0 0 0 12.7493305
1741 3 -24.9699994 -36.7599983 -37.8800012 0 0 0 2 8 2 0 0 0 12.0271034
1748 2 0.1664 -9.5369997 -15.9899998 0 0 0 2 8 4 0 0 0 11.8163204
1749 5 -36.3300018 -24.6299992 -29.7000008 0 0 0 2 8 5 0 0 0 13.3818674
1759 1 -17.0400009 -20.7700005 -6.2729998 0 0 0 0 12 0 0 0 0 10.8006602
1771 5 -17.0699997 -12.0900002 -14.0200005 0 0 1 3 5 4 2 0 0 12.7774611
1772 2 -16.7399998 -10.1999998 -4.7540002 0 0 1 2 6 3 1 0 0 12.0641241
1786 2 -10.4600001 -18.1399994 -1.711 0 0 0 0 12 0 0 0 0 11.9483938
1795 2 -8.7530003 -8.3850002 -11.7100001 0 0 0 0 12 0 0 0 0 10.6246014
1796 4 -25.4099999 -4.6729999 -36.5800019 0 0 0 0 12 2 0 0 0 12.1117802
1798 5 -28.8899994 -19.6900006 -28.3700009 0 0 0 3 6 4 0 0 0 11.8876238
1804 5 -34.3300018 -14.9300004 -32.5299988 0 0 0 1 10 4 0 0 0 12.230937
1810 2 -27.6800003 -39.8800012 -31.7000008 0 0 0 2 10 0 0 0 0 10.9155674
1811 4 -1.4170001 -26.5699997 -43.1899986 0 0 0 3 8 3 0 0 0 12.0760832
1834 1 -13.1400003 -26.5400009 -16.3199997 0 0 2 2 6 4 0 1 0 11.748231
1835 2 -12.4799996 -3.1370001 -15.5900002 0 0 0 2 8 3 0 0 0 12.4458351
1840 5 0.6804 -39.0299988 -23.6299992 0 0 0 3 6 5 0 0 0 12.787818
1844 2 -30.5900002 -42.0699997 -29.6100006 0 0 0 0 12 0 0 0 0 11.3939676
1849 5 -9.6960001 -32.0499992 -9.5869999 0 0 1 1 9 3 0 0 0 12.2854853
1850 4 -29.0300007 -27.9300004 -19.4899998 0 0 0 1 10 2 0 0 0 11.9015226
1853 4 2.431 -17.9300004 -26.2199993 0 0 0 1 10 3 0 0 0 12.5467701
1855 2 -5.2340002 -36.1300011 -18.5300007 0 0 1 1 11 0 0 0 0 11.8465176
1870 5 -13.3400002 -30.2999992 -25.7999993 0 0 0 2 10 2 0 0 0 12.3362904
1876 4 -34.4700012 -29.4300003 -35.7099991 0 0 0 0 12 3 0 0 0 12.9659262
1893 4 -26.9200002 -7.6630001 -20.0100002 0 0 0 0 12 4 0 0 0 13.4464283
1908 2 -34.2299996 -9.3699999 -25.0300007 0 0 0 0 12 0 0 0 0 11.0082607
1914 2 -26.9400006 -6.744 -36.0800018 0 0 1 0 9 3 0 0 0 11.9484368
1919 4 -7.197 -11.4399996 -2.359 0 0 0 2 8 4 0 0 0 11.9952622
1923 4 -7.7360001 -7.3119998 -9.6619997 0 0 2 2 6 3 2 0 0 12.0860758
1928 2 -31.3600006 -12.3699999 -12.3599997 0 0 1 2 6 4 1 0 0 11.894825
1934 3 -28.3899994 -21.4799996 -22.0799999 0 0 0 0 12 0 0 0 0 11.4116202
1937 4 -35.8199997 -41.7099991 -24.8999996 0 0 0 1 10 2 0 0 0 11.8204346
1955 5 -20.2299996 -7.8350001 -8.8000002 0 0 1 0 11 1 0 0 0 11.9058534
1958 5 -28.4500008 -1.464 -10.96 0 0 0 0 12 0 0 0 0 11.2243061
1960 4 -29.4200001 -36.4900017 -15.0200005 0 0 0 3 8 2 0 0 0 12.4417286
1967 4 -13.87 -9.79 -30.2800007 0 0 0 0 12 2 0 0 0 12.2574873
1980 2 -9.8610002 -14.3000002 -40.1300011 0 0 0 1 10 2 0 0 0 11.6962395
1989 2 0.227 -20.3099995 -13.4300003 0 0 1 3 5 4 0 0 0 12.4892826
2006 4 -22.9899998 -40.25 -38.3499985 0 0 0 2 10 4 0 0 0 13.8806572
2013 4 -13.3900004 -13.29 -1.716 0 0 0 3 6 7 0 0 0 12.335043
2014 4 -14.0299997 -42.6699982 -9.8170004 0 0 0 3 6 4 0 0 0 12.0630436
2030 5 1.082 -18.8299999 -15.5200005 0 0 0 0 12 3 0 0 0 14.0672922
2034 4 -28.9300004 -30.5499993 -39.2700005 0 0 0 0 12 2 0 0 0 12.6501599
2038 4 -2.01 -1.839 -34.9399986 0 0 1 3 7 4 0 0 0 12.450614
2055 1 -3.6199999 -16.5699997 -40.5600014 0 0 0 0 12 0 0 0 0 11.2587376
2062 4 -31.6700001 -33.8199997 -21.0100002 0 0 0 3 6 3 2 0 0 11.8883
2079 4 -5.1139998 -11.1899996 -30.4699993 0 0 0 1 10 4 0 0 0 12.689703
2085 4 -16.5300007 -38.6899987 -28.25 0 0 0 2 8 6 0 0 0 13.9630098
2090 2 -5.0170002 -21.0200005 -5.467 0 0 0 4 4 2 2 0 0 10.9463092
2108 1 -23.1499996 -16.3999996 -0.4275 0 0 0 2 6 4 0 0 0 11.4853068
2110 1 -9.2349997 -18.1700001 -32.6399994 0 0 0 3 6 3 0 0 0 11.3525038
2118 5 -7.4879999 -14.25 -22.3400002 0 0 0 3 6 4 0 0 0 12.0339842
2133 1 -18.2299996 -42.0900002 -42.2799988 0 0 2 2 5 3 1 1 0 11.9922256
2149 4 -16.5 -28.4400006 -37.5699997 0 0 0 2 8 4 0 0 0 12.6722775
2161 2 -15.9499998 -33.0900002 -8.6700001 0 0 0 2 8 2 0 0 0 11.7356444
2177 4 -20.2199993 -0.0638 -25.1800003 0 0 0 1 10 2 0 0 0 11.9812946
2191 2 -22.9899998 -27.1200008 -0.6637 0 0 0 4 6 3 0 0 0 11.4397593
2195 2 -24.7700005 -35.6899987 -15.3699999 0 0 0 2 10 0 0 0 0 11.8354693
2216 5 -15.6999998 -19.4799996 -30.25 0 0 0 2 10 1 0 0 0 11.8072891
2229 4 -31.3700009 -36.0600014 -25.5300007 0 0 0 2 8 5 0 0 0 12.687644
2234 5 -32.5200005 -23.2099991 -33.0699997 0 0 0 3 8 3 0 0 0 12.9296942
2238 4 -26.7299996 -13.54 -14.1599999 0 0 0 0 12 0 0 0 0 11.6371193
2243 2 -17.7600003 -25.3999996 -15.8999996 0 0 0 0 12 0 0 0 0 10.9619666
2246 4 -27.7099991 -7.8239999 -5.0339999 0 0 0 0 12 2 0 0 0 12.1909304
2247 2 -19.7399998 -24.3099995 -19.0900002 0 0 1 5 5 2 0 0 0 11.6996804
2256 4 -15.5699997 -14.4399996 -43.3800011 0 0 0 3 8 3 0 0 0 12.2853508
2265 5 -7.2979999 -35.1199989 -17.2800007 0 0 0 2 8 3 0 0 0 11.8851376
2266 2 -9.9449998 -3.1459999 -25.0699997 0 0 1 3 4 4 1 0 0 12.2657356
2270 5 -22.6299992 -20.5799999 -35.3199997 0 0 1 3 5 5 0 0 0 13.1675787
2272 4 -22.6900006 -23.5400009 -39.75 0 0 1 3 5 5 0 0 0 12.3480454
2277 5 -14.9499998 -28.3500004 -42.2299996 0 0 0 1 10 3 0 0 0 12.1857185
2282 4 -32.1500015 -37.2599983 -6.3200002 0 0 0 1 10 4 0 0 0 12.360919
2283 4 -4.9759998 -14.6700001 -21.9899998 0 0 0 1 10 2 0 0 0 11.6613512
2287 4 -27.1200008 -7.461 -15.7299996 0 0 0 2 8 5 0 0 0 12.6506558
2288 4 -18.0900002 -2.1630001 -22.8299999 0 0 0 1 10 2 0 0 0 12.0022879
2294 4 -27.7099991 -5.4920001 -38.0999985 0 0 1 1 9 3 0 0 0 12.1740046
2295 5 -23.3700009 -25.8600006 -39.1899986 0 0 1 3 5 4 2 0 0 11.9318744
2298 4 -20.8099995 -20.9699994 -14.1099997 0 0 0 2 8 4 0 0 0 11.7060786
2309 4 -16.7999993 -12.2299996 -23.4300003 0 0 1 2 8 2 1 0 0 11.979786
2313 4 -10.1099997 -35.1199989 -4.2610002 0 0 1 2 6 2 1 0 0 12.156951
2320 4 -0.6668 -43.4399987 -36.6500016 0 0 0 2 12 1 0 0 0 13.6302614
2322 1 -24.4400006 -14.4600001 -10.8299999 0 0 1 1 9 3 0 0 0 11.6329775
2346 5 -12.54 -19.4500008 -39.0900002 0 0 0 2 8 4 0 0 0 11.5229464
2347 4 -30.2600002 -2.4330001 -1.031 0 0 0 3 8 3 0 0 0 11.9338856
2355 4 -0.09169 -20.5499993 -36.9399986 0 0 1 1 9 4 0 0 0 12.2981367
2365 2 -3.4400001 -8.2720003 -26.7900009 0 0 1 1 9 3 0 0 0 11.9970866
2388 4 -24.3099995 -29.9400006 -8.592 0 0 0 3 6 5 0 0 0 12.4023132
2394 2 -21.0 -6.4520002 -6.9120002 0 0 1 2 9 1 0 0 0 11.646822
2412 5 -35.1100006 -38.2299996 -9.8470002 0 0 0 2 10 3 0 0 0 12.5987511
2414 1 -18.0799999 -37.5400009 -7.7459998 0 0 0 0 12 0 0 0 0 11.4773274
2423 5 -4.559 -17.4099999 -32.0999985 0 0 0 1 10 2 0 0 0 11.463605
2446 5 -10.96 -10.3800001 -18.5300007 0 0 1 2 9 1 0 0 0 12.6106549
2457 1 -37.6300011 -40.9500008 -12.75 0 0 0 0 12 0 0 0 0 10.931777
2464 4 -21.2299996 -34.5800019 -14.6999998 0 0 0 2 8 2 0 0 0 11.1518841
2466 4 4.6209998 -7.1220002 -33.1199989 0 0 1 2 7 5 0 0 0 12.3539715
2469 5 -6.6960001 -5.8509998 -37.1399994 0 0 0 0 12 3 0 0 0 12.5248604
2479 4 -12.6899996 -3.4860001 -8.2530003 0 0 0 1 10 4 0 0 0 12.9566422
2482 2 1.021 -26.7999993 -5.171 0 0 0 2 8 2 0 0 0 11.4074535
2492 2 -4.658 -12.1499996 -28.1100006 0 0 0 1 10 2 0 0 0 11.7086125
2499 4 -13.2799997 -38.4799996 -0.5724 0 0 0 4 5 4 1 0 0 12.2588062
2506 2 -14.8599998 -36.7599983 -11.4099999 0 0 0 1 10 2 0 0 0 11.6741848
2507 2 -29.9099998 -40.2900009 -33.3100014 0 0 1 1 9 3 0 0 0 11.962802
2509 4 -17.8500004 -11.8400002 -41.1300011 0 0 1 4 3 7 0 0 0 12.6875811
2515 4 -17.3099995 -0.5908 -9.9770002 0 0 0 1 10 4 0 0 0 12.5357704
2536 5 -18.75 -3.691 -26.3500004 0 0 0 3 6 4 0 0 0 12.3221197
2537 5 -0.4363 -10.8599998 -25.3999996 0 0 0 0 12 0 0 0 0 11.1786947
2542 2 -6.0809999 -19.0599995 -37.8600006 0 0 0 3 8 3 0 0 0 12.2444391
2543 4 3.171 -19.9500008 -29.8799992 0 0 1 2 7 5 0 0 0 12.7773285
2545 2 -18.3600006 -21.1800003 -37.9000016 0 0 0 2 8 4 0 0 0 12.4845629
2570 2 -23.0599995 -28.2600002 -38.3300018 0 0 0 0 12 0 0 0 0 11.7746544
2574 4 -29.0100002 -1.559 -26.4599991 0 0 0 2 7 4 1 0 0 12.4129181
2585 3 -31.7399998 -5.527 -3.329 0 0 0 2 8 5 0 0 0 12.7076397
2593 4 -20.7099991 -28.9899998 -39.5 0 0 1 1 9 5 0 0 0 13.6257763
2606 4 -11.3800001 -31.2299996 -7.5549999 0 0 0 1 10 2 0 0 0 12.0837822
2614 4 -28.6200009 -16.0900002 -3.9330002 0 0 0 3 8 4 0 0 0 12.3195658
2620 4 -6.8509998 -25.5200005 -5.7379999 0 0 0 4 4 6 0 0 0 11.7519808
2621 2 -1.094 -2.576 -19.0799999 0 0 0 3 6 4 0 0 0 11.4591723
2634 2 -25.4400006 -32.0 -9.6549998 0 0 1 2 7 5 0 0 0 12.4756356
2635 2 -29.9699994 -20.4799996 -4.006 0 0 0 2 8 2 0 0 0 11.8058872
2646 5 -17.4599991 -29.0200005 -10.6700001 0 0 0 1 10 4 0 0 0 12.9154682
2659 2 -29.9799996 -23.8099995 -24.7000008 0 0 0 3 6 5 0 0 0 11.7980452
2665 5 -21.3700009 -19.7399998 -42.4099999 0 0 0 5 7 1 1 0 0 12.4689522
2685 5 3.514 -6.8460002 -21.2800007 0 0 0 0 12 5 0 0 0 14.1626291
2690 4 -20.1399994 -2.819 -4.7550001 0 0 1 2 8 2 1 0 0 12.4080086
2691 2 1.196 -3.543 -2.29 0 0 0 1 10 2 0 0 0 11.7562275
2694 4 -21.0799999 -33.6500016 -32.8899994 0 0 0 3 6 4 0 0 0 11.7474823
2704 5 -6.4759999 -5.948 -39.4199982 0 0 1 3 6 4 0 1 0 12.1917334
2711 5 -8.4569998 -15.8999996 -16.2600002 0 0 0 2 8 4 0 0 0 11.3148165
2713 2 -27.9500008 -21.1399994 -41.6800003 0 0 1 3 3 4 0 0 0 11.5623303
2717 2 -26.5599995 -26.6800003 -39.9799996 0 0 2 2 6 2 2 0 0 11.7049904
2721 2 -2.4560001 -13.9700004 -32.1199989 0 0 0 0 10 2 0 0 0 11.511859
2731 4 -37.8600006 -35.4500008 -18.4300003 0 0 0 1 10 4 0 0 0 12.9751626
2740 1 -3.3139999 -18.25 -2.5420001 0 0 0 2 8 3 0 0 0 12.3994818
2741 4 1.0930001 -36.7999993 -22.1700001 0 0 1 3 5 6 0 0 0 13.0604734
2749 4 -10.7799998 -16.5 -36.9700012 0 0 0 1 10 3 0 0 0 11.992177
2764 2 -27.6399994 -34.75 -2.243 0 0 0 0 12 0 0 0 0 10.6562653
2765 5 -3.181 -15.9099998 -5.8179999 0 0 0 3 6 4 0 0 0 12.0433836
2766 4 -26.5799999 -23.7900009 -27.2800007 0 0 1 3 5 6 0 0 0 12.8398114
2769 4 -22.8600006 -29.5499993 -14.8800002 0 0 0 3 8 2 0 0 0 11.8815346
2778 4 -18.8400002 -29.5499993 -17.5 0 0 0 2 8 2 0 0 0 11.7798834
2783 4 -13.3999996 -29.2600002 -21.6200009 0 0 0 2 8 4 0 0 0 11.5764742
2802 5 -33.3499985 -26.4699993 -14.4300003 0 0 0 4 4 5 0 0 0 11.9424076
2818 4 -31.0599995 -15.8900004 -18.3400002 0 0 1 2 6 4 1 0 0 12.237937
2823 2 -22.8099995 -29.4599991 -17.1900005 0 0 0 3 6 4 0 0 0 11.0808458
2825 5 -17.2399998 -10.0 -22.3999996 0 0 1 0 11 3 0 0 0 12.6469918
2832 4 -26.0200005 -2.115 -1.349 0 0 0 1 10 4 0 0 0 12.4868222
2834 5 -25.2299996 -32.0099983 -12.1800003 0 0 0 2 10 1 0 0 0 12.6947842
2836 4 -22.7299996 -13.54 -25.4599991 0 0 0 3 8 4 0 0 0 12.5513201
2839 5 -28.5200005 -16.3799992 -1.365 0 0 0 1 12 1 0 0 0 12.240511
2861 4 -12.8599998 -33.3100014 -31.3199997 0 0 2 1 7 5 1 0 0 13.6092654
2863 5 -28.3799992 -35.1599999 -38.7099991 0 0 1 1 9 4 0 0 0 12.2274847
2878 2 -14.8800002 -18.0400009 -14.7399998 0 0 0 2 8 2 0 0 0 11.8587428
2884 2 -20.0100002 -32.6100006 -19.0799999 0 0 0 2 8 2 0 0 0 11.007885
2910 4 -25.3400002 -1.443 -23.8099995 0 0 0 2 10 3 0 0 0 13.2061329
2919 5 3.0320001 -21.75 -43.3800011 0 0 0 4 4 5 0 0 0 12.3132572
2945 5 -6.9109998 -22.8500004 -17.9500008 0 0 1 1 8 3 1 0 0 12.6581192
2954 5 -23.6100006 -34.9700012 -39.4300003 0 0 0 4 10 1 0 0 0 13.1797943
2956 2 -21.1499996 -32.5 -28.3700009 0 0 0 4 6 3 0 0 0 12.0454235
2962 4 1.668 -11.9700004 -39.8899994 0 0 1 1 8 3 1 0 0 12.0244637
2963 4 -31.6299992 -7.2579999 -41.0499992 0 0 0 1 10 4 0 0 0 12.5666285
2964 2 -4.7129998 -26.7299996 -5.197 0 0 0 4 6 2 0 0 0 11.3993769
2979 4 -29.0 -32.7400017 -1.148 0 0 0 0 12 3 0 0 0 12.2161417
2997 5 0.3501 -18.5599995 -27.2999992 0 0 1 3 5 3 0 0 0 11.2511234
2998 2 -37.619999 -38.2400017 -9.3009997 0 0 1 2 7 3 0 0 0 12.2093916
3014 5 -14.3599997 -2.809 -30.3400002 0 0 0 0 12 3 0 0 0 12.6997204
3016 1 -9.8109999 -38.2599983 -38.1199989 0 0 0 0 12 0 0 0 0 10.921339
3025 5 -13.5699997 -8.9420004 -36.5600014 0 0 0 4 6 3 0 0 0 11.5511656
3049 4 -31.1499996 -13.9399996 -36.3699989 0 0 0 2 8 4 0 0 0 12.586236
3053 3 -0.9925 -37.6800003 -33.5499993 0 0 0 3 6 4 0 0 0 12.2027874
3056 5 -15.6099997 -32.1100006 -12.9899998 0 0 0 2 8 4 0 0 0 11.60565
3059 4 -28.9799996 -30.2900009 -15.3299999 0 0 0 4 6 3 0 0 0 11.892189
3069 2 4.1589999 -2.3 -29.0699997 0 0 1 1 9 3 0 0 0 12.2417269
3072 4 -20.5300007 -13.8199997 -33.3400002 0 0 0 1 10 4 0 0 0 12.990018
3076 2 -31.0200005 -10.8599998 -43.1300011 0 0 0 0 12 3 0 0 0 12.917204
3078 1 -3.8970002 -37.6399994 -5.7620001 0 0 0 1 10 2 0 0 0 11.3460846
3093 2 -3.737 -13.5 -30.0300007 0 0 0 2 8 4 0 0 0 11.4500819
3095 4 -27.0699997 -16.9699994 -21.0200005 0 0 0 3 8 3 0 0 0 12.1670065
3096 2 -36.869999 -31.2299996 -41.0600014 0 0 0 3 8 0 0 0 0 11.8630514
3099 5 -3.2590001 -26.1399994 -11.9899998 0 0 1 1 9 4 0 0 0 12.8160429
3100 2 -21.4300003 -42.9799996 -17.4099999 0 0 0 0 12 2 0 0 0 12.5424137
3104 1 -19.9699994 -10.0 -37.7000008 0 0 0 1 10 2 0 0 0 11.6521578
3117 2 -26.7199993 -3.444 -18.0200005 0 0 0 4 6 5 0 0 0 11.976449
3134 5 -33.2000008 -17.0100002 -41.4300003 0 0 0 3 6 4 0 0 0 12.2733488
3135 4 -1.267 -23.0200005 -20.2299996 0 0 0 1 10 3 0 0 0 12.3996039
3138 5 -8.5769997 -8.9209996 -22.1399994 0 0 0 1 10 2 0 0 0 12.0611038
3146 4 -14.6000004 -20.4400006 -14.3500004 0 0 0 2 8 5 0 0 0 12.5897303
3159 5 -36.1599999 -34.0 -22.1200008 0 0 0 1 10 2 0 0 0 11.8161946
3182 4 -9.0570002 -37.6300011 -29.4599991 0 0 0 3 6 6 0 0 0 12.2553949
3188 5 -15.6700001 -21.9599992 -20.9300004 0 0 0 4 6 5 0 0 0 12.3104344
3193 5 -35.4000015 -35.8400002 -4.1620002 0 0 1 1 8 2 1 0 0 11.8119221
3200 2 -11.7299996 -2.3659999 -29.7999993 0 0 0 0 12 0 0 0 0 10.8590804
3201 4 -15.9300004 -29.1900005 -25.9400006 0 0 0 1 10 2 0 0 0 11.9910498
3202 5 -25.8500004 -35.9199982 -12.9399996 0 0 0 3 8 2 0 0 0 12.2298279
3218 2 -27.8400002 -3.4730001 -9.8280001 0 0 1 2 7 4 0 0 0 12.2273636
3219 5 -5.8150001 -36.4900017 -38.7799988 0 0 0 3 9 0 1 0 0 12.7749882
3224 4 -17.7800007 -30.3099995 -1.094 0 0 0 1 10 3 0 0 0 12.4806462
3234 4 -24.6299992 -25.5 -1.077 0 0 0 1 10 2 0 0 0 11.6201191
3240 5 -27.8899994 -20.8899994 -39.2799988 0 0 0 4 4 4 0 0 0 11.7286511
3243 4 5.2969999 -10.7399998 -30.6800003 0 0 0 1 10 2 0 0 0 11.6432028
3246 4 -16.0699997 -16.8899994 -22.6599999 0 0 0 1 10 3 0 0 0 12.8411056
3247 5 -32.8800012 -7.8379998 -6.6729999 0 0 1 3 7 3 2 0 0 12.64958
3252 2 -7.257 -20.0200005 -40.619999 0 0 0 3 6 4 0 0 0 11.6499319
3262 5 -17.1000004 -37.6599999 -36.4799996 0 0 0 3 6 2 1 0 0 12.5151539
3263 5 -18.7099991 -27.8099995 -32.3800011 0 0 0 0 12 2 0 0 0 12.0008011
3268 4 -23.1800003 -3.813 -15.6400004 0 0 1 3 6 3 1 1 0 12.3199959