ITEM: TIMESTEP
0
ITEM: NUMBER OF ATOMS
16384
ITEM: BOX BOUNDS pp pp pp
0.0000000000000000e+00 5.4421607718657697e+01
0.0000000000000000e+00 5.4421607718657697e+01
0.0000000000000000e+00 5.4421607718657697e+01
ITEM: ATOMS id type x y z
1 4 0 0 0
2 4 1.71417 1.71417 0
8193 2 0 0 0
8194 2 1.71417 1.71417 0
8195 2 1.71417 0 1.71417
8196 2 0 1.71417 1.71417
3 4 5.14252 1.71417 0
4 4 5.14252 0 1.71417
5 4 3.42835 1.71417 1.71417
8197 2 5.14252 0 1.71417
6 4 8.57087 0 1.71417
7 4 6.85669 1.71417 1.71417
8198 2 6.85669 0 0
8199 2 8.57087 1.71417 0
8 4 11.9992 1.71417 0
9 4 11.9992 0 1.71417
10 4 10.285 1.71417 1.71417
8200 2 11.9992 1.71417 0
11 4 13.7134 0 0
12 4 13.7134 1.71417 1.71417
8201 2 15.4276 0 1.71417
8202 2 18.8559 0 1.71417
8203 2 17.1417 1.71417 1.71417
13 4 20.5701 0 0
8204 2 20.5701 0 0
8205 2 22.2843 1.71417 0
8206 2 20.5701 1.71417 1.71417
14 4 23.9984 0 0
15 4 25.7126 0 1.71417
16 4 23.9984 1.71417 1.71417
8207 2 23.9984 0 0
8208 2 25.7126 0 1.71417
17 4 27.4268 0 0
18 4 29.1409 1.71417 0
19 4 29.1409 0 1.71417
8209 2 29.1409 1.71417 0
20 4 32.5693 1.71417 0
21 4 32.5693 0 1.71417
8210 2 32.5693 1.71417 0
8211 2 32.5693 0 1.71417
8212 2 30.8551 1.71417 1.71417
22 4 35.9976 1.71417 0
8213 2 34.2835 0 0
8214 2 35.9976 0 1.71417
8215 2 34.2835 1.71417 1.71417
23 4 37.7118 0 0
24 4 39.426 1.71417 0
8216 2 39.426 1.71417 0
8217 2 37.7118 1.71417 1.71417
25 4 42.8543 1.71417 0
8218 2 41.1402 0 0
8219 2 42.8543 1.71417 0
8220 2 41.1402 1.71417 1.71417
26 4 46.2827 1.71417 0
8221 2 44.5685 0 0
8222 2 46.2827 0 1.71417
8223 2 44.5685 1.71417 1.71417
27 4 47.9969 0 0
28 4 49.711 0 1.71417
29 4 47.9969 1.71417 1.71417
8224 2 49.711 0 1.71417
30 4 51.4252 0 0
31 4 53.1394 1.71417 0
8225 2 51.4252 0 0
32 4 1.71417 3.42835 1.71417
33 4 0 5.14252 1.71417
8226 2 0 3.42835 0
8227 2 1.71417 5.14252 0
34 4 5.14252 3.42835 1.71417
35 4 3.42835 5.14252 1.71417
8228 2 5.14252 3.42835 1.71417
36 4 6.85669 3.42835 0
37 4 8.57087 5.14252 0
38 4 8.57087 3.42835 1.71417
39 4 6.85669 5.14252 1.71417
8229 2 6.85669 3.42835 0
8230 2 8.57087 5.14252 0
40 4 11.9992 5.14252 0
41 4 11.9992 3.42835 1.71417
42 4 10.285 5.14252 1.71417
43 4 13.7134 3.42835 0
44 4 15.4276 5.14252 0
45 4 13.7134 5.14252 1.71417
8231 2 13.7134 3.42835 0
8232 2 15.4276 3.42835 1.71417
46 4 18.8559 3.42835 1.71417
47 4 17.1417 5.14252 1.71417
8233 2 18.8559 5.14252 0
48 4 20.5701 3.42835 0
49 4 22.2843 5.14252 0
50 4 22.2843 3.42835 1.71417
51 4 20.5701 5.14252 1.71417
8234 2 22.2843 5.14252 0
8235 2 22.2843 3.42835 1.71417
52 4 23.9984 5.14252 1.71417
8236 2 23.9984 3.42835 0
8237 2 23.9984 5.14252 1.71417
53 4 27.4268 3.42835 0
54 4 29.1409 5.14252 0
55 4 29.1409 3.42835 1.71417
56 4 27.4268 5.14252 1.71417
8238 2 27.4268 3.42835 0
8239 2 29.1409 5.14252 0
57 4 30.8551 3.42835 0
58 4 32.5693 5.14252 0
59 4 30.8551 5.14252 1.71417
8240 2 32.5693 3.42835 1.71417
8241 2 30.8551 5.14252 1.71417
60 4 35.9976 3.42835 1.71417
61 4 34.2835 5.14252 1.71417
8242 2 35.9976 3.42835 1.71417
62 4 39.426 3.42835 1.71417
8243 2 37.7118 3.42835 0
8244 2 39.426 5.14252 0
63 4 41.1402 3.42835 0
64 4 42.8543 5.14252 0
65 4 42.8543 3.42835 1.71417
8245 2 41.1402 3.42835 0
8246 2 42.8543 3.42835 1.71417
66 4 46.2827 5.14252 0
67 4 46.2827 3.42835 1.71417
8247 2 44.5685 3.42835 0
8248 2 46.2827 5.14252 0
8249 2 46.2827 3.42835 1.71417
8250 2 44.5685 5.14252 1.71417
68 4 47.9969 3.42835 0
69 4 49.711 5.14252 0
8251 2 47.9969 3.42835 0
70 4 51.4252 3.42835 0
71 4 53.1394 5.14252 0
72 4 51.4252 5.14252 1.71417
8252 2 51.4252 3.42835 0
8253 2 53.1394 5.14252 0
8254 2 53.1394 3.42835 1.71417
8255 2 51.4252 5.14252 1.71417
73 4 1.71417 6.85669 1.71417
8256 2 1.71417 6.85669 1.71417
8257 2 0 8.57087 1.71417
74 4 5.14252 6.85669 1.71417
75 4 3.42835 8.57087 1.71417
8258 2 3.42835 6.85669 0
8259 2 5.14252 8.57087 0
8260 2 6.85669 6.85669 0
8261 2 8.57087 6.85669 1.71417
8262 2 6.85669 8.57087 1.71417
76 4 10.285 6.85669 0
77 4 11.9992 6.85669 1.71417
8263 2 10.285 6.85669 0
8264 2 10.285 8.57087 1.71417
78 4 15.4276 6.85669 1.71417
8265 2 13.7134 6.85669 0
8266 2 15.4276 8.57087 0
8267 2 15.4276 6.85669 1.71417
79 4 18.8559 8.57087 0
80 4 18.8559 6.85669 1.71417
8268 2 17.1417 6.85669 0
8269 2 18.8559 8.57087 0
8270 2 18.8559 6.85669 1.71417
81 4 20.5701 6.85669 0
82 4 22.2843 6.85669 1.71417
8271 2 22.2843 8.57087 0
8272 2 20.5701 8.57087 1.71417
83 4 23.9984 8.57087 1.71417
8273 2 23.9984 8.57087 1.71417
84 4 29.1409 6.85669 1.71417
8274 2 27.4268 6.85669 0
8275 2 29.1409 8.57087 0
8276 2 27.4268 8.57087 1.71417
85 4 32.5693 8.57087 0
86 4 30.8551 8.57087 1.71417
8277 2 30.8551 6.85669 0
8278 2 32.5693 8.57087 0
8279 2 32.5693 6.85669 1.71417
8280 2 30.8551 8.57087 1.71417
87 4 35.9976 6.85669 1.71417
88 4 34.2835 8.57087 1.71417
8281 2 34.2835 6.85669 0
8282 2 35.9976 8.57087 0
8283 2 35.9976 6.85669 1.71417
89 4 39.426 6.85669 1.71417
90 4 37.7118 8.57087 1.71417
8284 2 39.426 8.57087 0
91 4 42.8543 8.57087 0
92 4 41.1402 8.57087 1.71417
8285 2 41.1402 6.85669 0
93 4 44.5685 8.57087 1.71417
8286 2 46.2827 8.57087 0
8287 2 46.2827 6.85669 1.71417
8288 2 44.5685 8.57087 1.71417
94 4 47.9969 6.85669 0
8289 2 47.9969 6.85669 0
8290 2 49.711 8.57087 0
8291 2 47.9969 8.57087 1.71417
95 4 51.4252 6.85669 0
96 4 53.1394 8.57087 0
97 4 51.4252 8.57087 1.71417
8292 2 51.4252 6.85669 0
8293 2 53.1394 8.57087 0
8294 2 51.4252 8.57087 1.71417
98 4 1.71417 11.9992 0
99 4 1.71417 10.285 1.71417
100 4 0 11.9992 1.71417
8295 2 0 10.285 0
101 4 3.42835 10.285 0
102 4 5.14252 11.9992 0
103 4 5.14252 10.285 1.71417
8296 2 3.42835 10.285 0
8297 2 5.14252 11.9992 0
8298 2 5.14252 10.285 1.71417
104 4 6.85669 10.285 0
105 4 8.57087 10.285 1.71417
8299 2 6.85669 10.285 0
8300 2 8.57087 11.9992 0
106 4 11.9992 11.9992 0
107 4 11.9992 10.285 1.71417
8301 2 10.285 10.285 0
8302 2 11.9992 11.9992 0
8303 2 10.285 11.9992 1.71417
8304 2 15.4276 11.9992 0
8305 2 15.4276 10.285 1.71417
108 4 17.1417 10.285 0
109 4 18.8559 11.9992 0
110 4 18.8559 10.285 1.71417
8306 2 18.8559 11.9992 0
111 4 20.5701 10.285 0
112 4 22.2843 10.285 1.71417
113 4 20.5701 11.9992 1.71417
8307 2 22.2843 11.9992 0
8308 2 20.5701 11.9992 1.71417
114 4 23.9984 10.285 0
115 4 25.7126 11.9992 0
116 4 25.7126 10.285 1.71417
117 4 23.9984 11.9992 1.71417
8309 2 23.9984 10.285 0
8310 2 25.7126 10.285 1.71417
8311 2 23.9984 11.9992 1.71417
118 4 27.4268 11.9992 1.71417
8312 2 27.4268 10.285 0
8313 2 29.1409 11.9992 0
119 4 30.8551 10.285 0
120 4 32.5693 11.9992 0
121 4 32.5693 10.285 1.71417
122 4 30.8551 11.9992 1.71417
8314 2 30.8551 10.285 0
8315 2 32.5693 10.285 1.71417
123 4 34.2835 10.285 0
124 4 35.9976 10.285 1.71417
8316 2 34.2835 10.285 0
8317 2 37.7118 10.285 0
8318 2 37.7118 11.9992 1.71417
125 4 42.8543 11.9992 0
126 4 42.8543 10.285 1.71417
127 4 41.1402 11.9992 1.71417
128 4 44.5685 10.285 0
129 4 46.2827 10.285 1.71417
8319 2 46.2827 10.285 1.71417
8320 2 44.5685 11.9992 1.71417
130 4 47.9969 10.285 0
8321 2 47.9969 10.285 0
8322 2 47.9969 11.9992 1.71417
131 4 53.1394 11.9992 0
8323 2 51.4252 10.285 0
8324 2 53.1394 11.9992 0
8325 2 51.4252 11.9992 1.71417
132 4 1.71417 15.4276 0
8326 2 1.71417 15.4276 0
8327 2 1.71417 13.7134 1.71417
8328 2 0 15.4276 1.71417
133 4 5.14252 15.4276 0
8329 2 3.42835 13.7134 0
8330 2 5.14252 15.4276 0
8331 2 5.14252 13.7134 1.71417
8332 2 3.42835 15.4276 1.71417
134 4 8.57087 13.7134 1.71417
8333 2 6.85669 13.7134 0
8334 2 8.57087 15.4276 0
8335 2 6.85669 15.4276 1.71417
135 4 10.285 15.4276 1.71417
8336 2 11.9992 15.4276 0
136 4 13.7134 15.4276 1.71417
8337 2 15.4276 15.4276 0
8338 2 15.4276 13.7134 1.71417
8339 2 13.7134 15.4276 1.71417
137 4 17.1417 13.7134 0
138 4 18.8559 15.4276 0
8340 2 17.1417 13.7134 0
8341 2 18.8559 13.7134 1.71417
8342 2 17.1417 15.4276 1.71417
139 4 20.5701 13.7134 0
140 4 22.2843 15.4276 0
8343 2 22.2843 15.4276 0
8344 2 22.2843 13.7134 1.71417
8345 2 20.5701 15.4276 1.71417
141 4 25.7126 15.4276 0
142 4 23.9984 15.4276 1.71417
8346 2 23.9984 15.4276 1.71417
143 4 29.1409 13.7134 1.71417
144 4 27.4268 15.4276 1.71417
8347 2 29.1409 15.4276 0
8348 2 27.4268 15.4276 1.71417
145 4 32.5693 15.4276 0
146 4 32.5693 13.7134 1.71417
147 4 30.8551 15.4276 1.71417
8349 2 32.5693 13.7134 1.71417
8350 2 30.8551 15.4276 1.71417
148 4 34.2835 13.7134 0
149 4 35.9976 15.4276 0
150 4 34.2835 15.4276 1.71417
8351 2 35.9976 15.4276 0
8352 2 34.2835 15.4276 1.71417
151 4 39.426 15.4276 0
8353 2 37.7118 13.7134 0
8354 2 39.426 13.7134 1.71417
8355 2 37.7118 15.4276 1.71417
152 4 41.1402 13.7134 0
153 4 42.8543 15.4276 0
154 4 41.1402 15.4276 1.71417
8356 2 41.1402 13.7134 0
8357 2 42.8543 13.7134 1.71417
8358 2 41.1402 15.4276 1.71417
155 4 44.5685 13.7134 0
156 4 46.2827 13.7134 1.71417
157 4 44.5685 15.4276 1.71417
8359 2 46.2827 13.7134 1.71417
8360 2 44.5685 15.4276 1.71417
158 4 47.9969 13.7134 0
8361 2 49.711 15.4276 0
159 4 51.4252 15.4276 1.71417
8362 2 51.4252 13.7134 0
8363 2 53.1394 15.4276 0
8364 2 53.1394 13.7134 1.71417
8365 2 51.4252 15.4276 1.71417
160 4 0 17.1417 0
161 4 1.71417 18.8559 0
162 4 1.71417 17.1417 1.71417
163 4 0 18.8559 1.71417
8366 2 0 17.1417 0
8367 2 1.71417 18.8559 0
8368 2 1.71417 17.1417 1.71417
8369 2 0 18.8559 1.71417
164 4 3.42835 17.1417 0
165 4 5.14252 17.1417 1.71417
8370 2 3.42835 17.1417 0
8371 2 5.14252 18.8559 0
8372 2 5.14252 17.1417 1.71417
8373 2 3.42835 18.8559 1.71417
166 4 8.57087 18.8559 0
167 4 8.57087 17.1417 1.71417
168 4 6.85669 18.8559 1.71417
8374 2 6.85669 17.1417 0
8375 2 8.57087 18.8559 0
169 4 11.9992 17.1417 1.71417
170 4 10.285 18.8559 1.71417
8376 2 11.9992 18.8559 0
8377 2 11.9992 17.1417 1.71417
171 4 13.7134 17.1417 0
172 4 15.4276 18.8559 0
173 4 15.4276 17.1417 1.71417
174 4 13.7134 18.8559 1.71417
8378 2 13.7134 17.1417 0
8379 2 15.4276 18.8559 0
8380 2 15.4276 17.1417 1.71417
8381 2 13.7134 18.8559 1.71417
175 4 17.1417 17.1417 0
176 4 17.1417 18.8559 1.71417
8382 2 18.8559 18.8559 0
8383 2 18.8559 17.1417 1.71417
177 4 20.5701 17.1417 0
178 4 22.2843 18.8559 0
8384 2 22.2843 18.8559 0
8385 2 22.2843 17.1417 1.71417
179 4 25.7126 18.8559 0
8386 2 23.9984 17.1417 0
8387 2 25.7126 18.8559 0
8388 2 27.4268 18.8559 1.71417
180 4 30.8551 17.1417 0
181 4 32.5693 18.8559 0
182 4 30.8551 18.8559 1.71417
8389 2 32.5693 18.8559 0
8390 2 32.5693 17.1417 1.71417
183 4 34.2835 17.1417 0
8391 2 34.2835 17.1417 0
8392 2 35.9976 18.8559 0
8393 2 35.9976 17.1417 1.71417
184 4 37.7118 17.1417 0
185 4 37.7118 18.8559 1.71417
8394 2 37.7118 18.8559 1.71417
186 4 42.8543 17.1417 1.71417
8395 2 41.1402 17.1417 0
8396 2 42.8543 17.1417 1.71417
8397 2 41.1402 18.8559 1.71417
187 4 46.2827 18.8559 0
188 4 46.2827 17.1417 1.71417
189 4 44.5685 18.8559 1.71417
8398 2 44.5685 17.1417 0
8399 2 46.2827 17.1417 1.71417
8400 2 44.5685 18.8559 1.71417
190 4 49.711 18.8559 0
8401 2 47.9969 17.1417 0
8402 2 49.711 18.8559 0
191 4 53.1394 18.8559 0
192 4 53.1394 17.1417 1.71417
8403 2 53.1394 18.8559 0
193 4 1.71417 22.2843 0
194 4 1.71417 20.5701 1.71417
195 4 0 22.2843 1.71417
196 4 3.42835 20.5701 0
197 4 5.14252 22.2843 0
8404 2 3.42835 20.5701 0
8405 2 3.42835 22.2843 1.71417
198 4 6.85669 20.5701 0
199 4 8.57087 22.2843 0
200 4 8.57087 20.5701 1.71417
201 4 6.85669 22.2843 1.71417
8406 2 6.85669 20.5701 0
8407 2 8.57087 22.2843 0
202 4 10.285 20.5701 0
203 4 11.9992 22.2843 0
204 4 11.9992 20.5701 1.71417
8408 2 10.285 20.5701 0
8409 2 10.285 22.2843 1.71417
205 4 15.4276 22.2843 0
206 4 15.4276 20.5701 1.71417
8410 2 13.7134 20.5701 0
8411 2 15.4276 22.2843 0
8412 2 13.7134 22.2843 1.71417
207 4 18.8559 22.2843 0
208 4 17.1417 22.2843 1.71417
8413 2 17.1417 20.5701 0
8414 2 18.8559 20.5701 1.71417
209 4 20.5701 20.5701 0
210 4 22.2843 22.2843 0
8415 2 22.2843 22.2843 0
8416 2 22.2843 20.5701 1.71417
211 4 25.7126 22.2843 0
8417 2 23.9984 20.5701 0
8418 2 25.7126 20.5701 1.71417
212 4 27.4268 20.5701 0
213 4 29.1409 22.2843 0
214 4 29.1409 20.5701 1.71417
215 4 27.4268 22.2843 1.71417
8419 2 27.4268 20.5701 0
8420 2 29.1409 20.5701 1.71417
216 4 32.5693 22.2843 0
217 4 32.5693 20.5701 1.71417
8421 2 30.8551 20.5701 0
8422 2 32.5693 22.2843 0
8423 2 32.5693 20.5701 1.71417
218 4 34.2835 20.5701 0
219 4 35.9976 20.5701 1.71417
8424 2 34.2835 20.5701 0
8425 2 35.9976 22.2843 0
220 4 37.7118 20.5701 0
221 4 39.426 22.2843 0
8426 2 39.426 22.2843 0
8427 2 37.7118 22.2843 1.71417
222 4 42.8543 22.2843 0
223 4 42.8543 20.5701 1.71417
8428 2 41.1402 22.2843 1.71417
224 4 44.5685 20.5701 0
225 4 44.5685 22.2843 1.71417
8429 2 46.2827 20.5701 1.71417
226 4 47.9969 20.5701 0
227 4 49.711 22.2843 0
228 4 47.9969 22.2843 1.71417
8430 2 49.711 22.2843 0
229 4 53.1394 22.2843 0
230 4 0 23.9984 0
231 4 1.71417 25.7126 0
232 4 1.71417 23.9984 1.71417
233 4 0 25.7126 1.71417
8431 2 0 23.9984 0
8432 2 1.71417 25.7126 0
8433 2 1.71417 23.9984 1.71417
8434 2 0 25.7126 1.71417
234 4 5.14252 25.7126 0
235 4 5.14252 23.9984 1.71417
236 4 3.42835 25.7126 1.71417
8435 2 5.14252 25.7126 0
8436 2 5.14252 23.9984 1.71417
237 4 8.57087 23.9984 1.71417
238 4 6.85669 25.7126 1.71417
8437 2 6.85669 23.9984 0
8438 2 8.57087 25.7126 0
8439 2 8.57087 23.9984 1.71417
8440 2 6.85669 25.7126 1.71417
239 4 10.285 23.9984 0
240 4 11.9992 23.9984 1.71417
241 4 10.285 25.7126 1.71417
242 4 15.4276 25.7126 0
243 4 15.4276 23.9984 1.71417
244 4 13.7134 25.7126 1.71417
8441 2 15.4276 23.9984 1.71417
8442 2 18.8559 25.7126 0
8443 2 18.8559 23.9984 1.71417
245 4 20.5701 23.9984 0
246 4 22.2843 23.9984 1.71417
8444 2 22.2843 25.7126 0
8445 2 22.2843 23.9984 1.71417
247 4 25.7126 25.7126 0
248 4 25.7126 23.9984 1.71417
249 4 23.9984 25.7126 1.71417
8446 2 23.9984 23.9984 0
250 4 27.4268 25.7126 1.71417
8447 2 27.4268 23.9984 0
8448 2 29.1409 25.7126 0
251 4 30.8551 23.9984 0
8449 2 30.8551 23.9984 0
8450 2 32.5693 23.9984 1.71417
252 4 34.2835 23.9984 0
253 4 35.9976 23.9984 1.71417
8451 2 34.2835 23.9984 0
8452 2 35.9976 25.7126 0
8453 2 35.9976 23.9984 1.71417
254 4 39.426 25.7126 0
8454 2 37.7118 23.9984 0
8455 2 37.7118 25.7126 1.71417
255 4 42.8543 25.7126 0
256 4 42.8543 23.9984 1.71417
8456 2 41.1402 23.9984 0
8457 2 42.8543 25.7126 0
8458 2 41.1402 25.7126 1.71417
257 4 44.5685 25.7126 1.71417
8459 2 46.2827 25.7126 0
258 4 49.711 25.7126 0
8460 2 49.711 25.7126 0
8461 2 47.9969 25.7126 1.71417
259 4 53.1394 23.9984 1.71417
8462 2 53.1394 25.7126 0
260 4 0 27.4268 0
261 4 1.71417 29.1409 0
262 4 0 29.1409 1.71417
8463 2 1.71417 29.1409 0
8464 2 1.71417 27.4268 1.71417
8465 2 0 29.1409 1.71417
263 4 3.42835 27.4268 0
264 4 5.14252 29.1409 0
265 4 5.14252 27.4268 1.71417
266 4 3.42835 29.1409 1.71417
8466 2 3.42835 27.4268 0
267 4 6.85669 27.4268 0
268 4 8.57087 27.4268 1.71417
8467 2 6.85669 27.4268 0
8468 2 8.57087 29.1409 0
8469 2 8.57087 27.4268 1.71417
269 4 10.285 27.4268 0
270 4 11.9992 29.1409 0
271 4 10.285 29.1409 1.71417
8470 2 10.285 27.4268 0
272 4 13.7134 29.1409 1.71417
8471 2 15.4276 27.4268 1.71417
8472 2 13.7134 29.1409 1.71417
273 4 18.8559 29.1409 0
274 4 18.8559 27.4268 1.71417
275 4 17.1417 29.1409 1.71417
8473 2 18.8559 29.1409 0
276 4 22.2843 27.4268 1.71417
277 4 20.5701 29.1409 1.71417
8474 2 20.5701 27.4268 0
278 4 23.9984 27.4268 0
279 4 23.9984 29.1409 1.71417
280 4 27.4268 27.4268 0
281 4 29.1409 27.4268 1.71417
8475 2 27.4268 27.4268 0
8476 2 29.1409 29.1409 0
8477 2 29.1409 27.4268 1.71417
282 4 30.8551 27.4268 0
283 4 32.5693 29.1409 0
284 4 32.5693 27.4268 1.71417
8478 2 30.8551 27.4268 0
8479 2 32.5693 29.1409 0
285 4 34.2835 29.1409 1.71417
8480 2 34.2835 27.4268 0
8481 2 35.9976 29.1409 0
8482 2 35.9976 27.4268 1.71417
8483 2 34.2835 29.1409 1.71417
286 4 37.7118 27.4268 0
287 4 39.426 29.1409 0
8484 2 39.426 27.4268 1.71417
8485 2 37.7118 29.1409 1.71417
288 4 42.8543 29.1409 0
289 4 42.8543 27.4268 1.71417
290 4 41.1402 29.1409 1.71417
8486 2 42.8543 29.1409 0
8487 2 42.8543 27.4268 1.71417
8488 2 46.2827 29.1409 0
8489 2 46.2827 27.4268 1.71417
8490 2 44.5685 29.1409 1.71417
291 4 49.711 27.4268 1.71417
8491 2 47.9969 27.4268 0
8492 2 49.711 29.1409 0
292 4 53.1394 27.4268 1.71417
293 4 51.4252 29.1409 1.71417
8493 2 53.1394 27.4268 1.71417
8494 2 51.4252 29.1409 1.71417
294 4 1.71417 32.5693 0
8495 2 0 30.8551 0
8496 2 1.71417 32.5693 0
295 4 3.42835 30.8551 0
296 4 5.14252 32.5693 0
8497 2 5.14252 32.5693 0
8498 2 5.14252 30.8551 1.71417
297 4 8.57087 30.8551 1.71417
8499 2 6.85669 30.8551 0
8500 2 6.85669 32.5693 1.71417
298 4 11.9992 32.5693 0
299 4 11.9992 30.8551 1.71417
300 4 10.285 32.5693 1.71417
8501 2 11.9992 32.5693 0
8502 2 11.9992 30.8551 1.71417
8503 2 10.285 32.5693 1.71417
301 4 13.7134 30.8551 0
302 4 15.4276 30.8551 1.71417
8504 2 13.7134 30.8551 0
8505 2 15.4276 32.5693 0
8506 2 15.4276 30.8551 1.71417
8507 2 13.7134 32.5693 1.71417
303 4 18.8559 32.5693 0
304 4 17.1417 32.5693 1.71417
8508 2 17.1417 30.8551 0
8509 2 18.8559 32.5693 0
305 4 22.2843 32.5693 0
306 4 22.2843 30.8551 1.71417
8510 2 20.5701 30.8551 0
8511 2 22.2843 32.5693 0
8512 2 20.5701 32.5693 1.71417
307 4 25.7126 32.5693 0
8513 2 23.9984 30.8551 0
308 4 27.4268 30.8551 0
309 4 29.1409 32.5693 0
8514 2 29.1409 32.5693 0
8515 2 29.1409 30.8551 1.71417
8516 2 27.4268 32.5693 1.71417
8517 2 32.5693 32.5693 0
8518 2 30.8551 32.5693 1.71417
310 4 35.9976 32.5693 0
311 4 35.9976 30.8551 1.71417
312 4 34.2835 32.5693 1.71417
8519 2 34.2835 30.8551 0
8520 2 35.9976 30.8551 1.71417
8521 2 34.2835 32.5693 1.71417
313 4 39.426 32.5693 0
8522 2 39.426 32.5693 0
314 4 41.1402 30.8551 0
315 4 42.8543 32.5693 0
8523 2 41.1402 30.8551 0
316 4 44.5685 30.8551 0
317 4 46.2827 32.5693 0
318 4 46.2827 30.8551 1.71417
319 4 44.5685 32.5693 1.71417
8524 2 46.2827 32.5693 0
320 4 47.9969 30.8551 0
8525 2 47.9969 30.8551 0
8526 2 49.711 30.8551 1.71417
321 4 53.1394 32.5693 0
8527 2 53.1394 32.5693 0
322 4 1.71417 35.9976 0
323 4 1.71417 34.2835 1.71417
8528 2 0 34.2835 0
8529 2 0 35.9976 1.71417
324 4 3.42835 34.2835 0
325 4 5.14252 34.2835 1.71417
8530 2 5.14252 35.9976 0
8531 2 3.42835 35.9976 1.71417
326 4 8.57087 34.2835 1.71417
327 4 6.85669 35.9976 1.71417
8532 2 6.85669 34.2835 0
8533 2 8.57087 35.9976 0
328 4 11.9992 34.2835 1.71417
8534 2 11.9992 35.9976 0
329 4 13.7134 34.2835 0
330 4 15.4276 35.9976 0
331 4 13.7134 35.9976 1.71417
8535 2 15.4276 35.9976 0
8536 2 15.4276 34.2835 1.71417
332 4 17.1417 34.2835 0
333 4 18.8559 35.9976 0
8537 2 17.1417 34.2835 0
8538 2 18.8559 34.2835 1.71417
8539 2 17.1417 35.9976 1.71417
334 4 20.5701 34.2835 0
335 4 22.2843 35.9976 0
336 4 20.5701 35.9976 1.71417
8540 2 20.5701 34.2835 0
8541 2 22.2843 35.9976 0
8542 2 22.2843 34.2835 1.71417
8543 2 20.5701 35.9976 1.71417
337 4 25.7126 35.9976 0
338 4 25.7126 34.2835 1.71417
8544 2 25.7126 35.9976 0
8545 2 25.7126 34.2835 1.71417
339 4 27.4268 34.2835 0
340 4 29.1409 35.9976 0
341 4 29.1409 34.2835 1.71417
342 4 27.4268 35.9976 1.71417
8546 2 27.4268 34.2835 0
8547 2 29.1409 35.9976 0
8548 2 29.1409 34.2835 1.71417
8549 2 27.4268 35.9976 1.71417
343 4 30.8551 34.2835 0
344 4 32.5693 35.9976 0
345 4 32.5693 34.2835 1.71417
8550 2 32.5693 34.2835 1.71417
8551 2 30.8551 35.9976 1.71417
346 4 34.2835 34.2835 0
8552 2 35.9976 34.2835 1.71417
8553 2 34.2835 35.9976 1.71417
347 4 37.7118 34.2835 0
348 4 41.1402 34.2835 0
349 4 42.8543 34.2835 1.71417
350 4 41.1402 35.9976 1.71417
8554 2 42.8543 35.9976 0
8555 2 41.1402 35.9976 1.71417
351 4 46.2827 35.9976 0
8556 2 44.5685 34.2835 0
8557 2 46.2827 34.2835 1.71417
352 4 47.9969 34.2835 0
353 4 49.711 35.9976 0
354 4 49.711 34.2835 1.71417
8558 2 49.711 35.9976 0
355 4 53.1394 35.9976 0
356 4 51.4252 35.9976 1.71417
8559 2 53.1394 35.9976 0
8560 2 51.4252 35.9976 1.71417
357 4 0 37.7118 0
358 4 1.71417 39.426 0
359 4 1.71417 37.7118 1.71417
360 4 0 39.426 1.71417
8561 2 0 37.7118 0
8562 2 1.71417 37.7118 1.71417
361 4 3.42835 37.7118 0
362 4 3.42835 39.426 1.71417
8563 2 3.42835 37.7118 0
8564 2 5.14252 37.7118 1.71417
363 4 6.85669 37.7118 0
364 4 8.57087 37.7118 1.71417
8565 2 6.85669 37.7118 0
8566 2 8.57087 37.7118 1.71417
8567 2 6.85669 39.426 1.71417
365 4 10.285 37.7118 0
366 4 11.9992 37.7118 1.71417
367 4 10.285 39.426 1.71417
8568 2 11.9992 39.426 0
8569 2 11.9992 37.7118 1.71417
368 4 15.4276 37.7118 1.71417
8570 2 15.4276 37.7118 1.71417
369 4 18.8559 39.426 0
370 4 18.8559 37.7118 1.71417
371 4 17.1417 39.426 1.71417
8571 2 18.8559 39.426 0
8572 2 17.1417 39.426 1.71417
372 4 22.2843 37.7118 1.71417
373 4 20.5701 39.426 1.71417
8573 2 22.2843 37.7118 1.71417
8574 2 20.5701 39.426 1.71417
374 4 23.9984 37.7118 0
375 4 25.7126 39.426 0
376 4 25.7126 37.7118 1.71417
377 4 23.9984 39.426 1.71417
8575 2 23.9984 37.7118 0
8576 2 25.7126 37.7118 1.71417
8577 2 23.9984 39.426 1.71417
378 4 27.4268 37.7118 0
379 4 29.1409 37.7118 1.71417
380 4 30.8551 37.7118 0
381 4 32.5693 37.7118 1.71417
8578 2 30.8551 37.7118 0
8579 2 30.8551 39.426 1.71417
382 4 35.9976 39.426 0
383 4 35.9976 37.7118 1.71417
8580 2 35.9976 39.426 0
384 4 39.426 39.426 0
385 4 39.426 37.7118 1.71417
8581 2 39.426 37.7118 1.71417
386 4 41.1402 39.426 1.71417
387 4 44.5685 37.7118 0
388 4 46.2827 39.426 0
389 4 44.5685 39.426 1.71417
8582 2 46.2827 37.7118 1.71417
390 4 47.9969 37.7118 0
391 4 49.711 37.7118 1.71417
8583 2 49.711 39.426 0
8584 2 49.711 37.7118 1.71417
8585 2 47.9969 39.426 1.71417
392 4 53.1394 39.426 0
393 4 51.4252 39.426 1.71417
8586 2 53.1394 37.7118 1.71417
8587 2 51.4252 39.426 1.71417
394 4 0 42.8543 1.71417
8588 2 1.71417 42.8543 0
8589 2 0 42.8543 1.71417
395 4 3.42835 41.1402 0
396 4 3.42835 42.8543 1.71417
8590 2 5.14252 42.8543 0
8591 2 5.14252 41.1402 1.71417
8592 2 3.42835 42.8543 1.71417
397 4 6.85669 41.1402 0
398 4 8.57087 42.8543 0
399 4 8.57087 41.1402 1.71417
400 4 6.85669 42.8543 1.71417
8593 2 6.85669 41.1402 0
8594 2 8.57087 42.8543 0
8595 2 8.57087 41.1402 1.71417
401 4 11.9992 41.1402 1.71417
8596 2 11.9992 42.8543 0
402 4 13.7134 41.1402 0
403 4 15.4276 42.8543 0
404 4 13.7134 42.8543 1.71417
8597 2 15.4276 41.1402 1.71417
405 4 17.1417 42.8543 1.71417
8598 2 17.1417 41.1402 0
8599 2 18.8559 41.1402 1.71417
406 4 20.5701 41.1402 0
8600 2 20.5701 41.1402 0
8601 2 22.2843 41.1402 1.71417
407 4 23.9984 41.1402 0
8602 2 23.9984 41.1402 0
8603 2 23.9984 42.8543 1.71417
8604 2 29.1409 42.8543 0
8605 2 29.1409 41.1402 1.71417
8606 2 27.4268 42.8543 1.71417
408 4 32.5693 41.1402 1.71417
409 4 30.8551 42.8543 1.71417
8607 2 30.8551 41.1402 0
8608 2 32.5693 41.1402 1.71417
8609 2 30.8551 42.8543 1.71417
410 4 34.2835 41.1402 0
411 4 35.9976 42.8543 0
412 4 35.9976 41.1402 1.71417
8610 2 34.2835 41.1402 0
8611 2 35.9976 42.8543 0
8612 2 35.9976 41.1402 1.71417
8613 2 34.2835 42.8543 1.71417
413 4 37.7118 41.1402 0
414 4 39.426 42.8543 0
415 4 39.426 41.1402 1.71417
8614 2 37.7118 41.1402 0
8615 2 39.426 41.1402 1.71417
416 4 42.8543 42.8543 0
417 4 41.1402 42.8543 1.71417
8616 2 41.1402 41.1402 0
8617 2 42.8543 41.1402 1.71417
418 4 44.5685 41.1402 0
419 4 46.2827 41.1402 1.71417
8618 2 44.5685 41.1402 0
8619 2 46.2827 42.8543 0
8620 2 44.5685 42.8543 1.71417
420 4 47.9969 41.1402 0
421 4 49.711 42.8543 0
8621 2 47.9969 42.8543 1.71417
422 4 51.4252 41.1402 0
423 4 53.1394 42.8543 0
424 4 51.4252 42.8543 1.71417
8622 2 51.4252 41.1402 0
425 4 0 46.2827 1.71417
8623 2 0 44.5685 0
8624 2 1.71417 44.5685 1.71417
426 4 3.42835 44.5685 0
427 4 3.42835 46.2827 1.71417
8625 2 5.14252 44.5685 1.71417
8626 2 3.42835 46.2827 1.71417
428 4 8.57087 46.2827 0
8627 2 6.85669 44.5685 0
8628 2 8.57087 44.5685 1.71417
8629 2 6.85669 46.2827 1.71417
429 4 10.285 44.5685 0
430 4 11.9992 46.2827 0
431 4 10.285 46.2827 1.71417
8630 2 11.9992 46.2827 0
8631 2 11.9992 44.5685 1.71417
8632 2 10.285 46.2827 1.71417
432 4 13.7134 44.5685 0
433 4 15.4276 46.2827 0
434 4 13.7134 46.2827 1.71417
8633 2 15.4276 46.2827 0
8634 2 13.7134 46.2827 1.71417
435 4 17.1417 44.5685 0
8635 2 18.8559 44.5685 1.71417
436 4 20.5701 44.5685 0
437 4 22.2843 46.2827 0
438 4 22.2843 44.5685 1.71417
8636 2 20.5701 44.5685 0
8637 2 22.2843 46.2827 0
439 4 25.7126 46.2827 0
440 4 25.7126 44.5685 1.71417
8638 2 25.7126 44.5685 1.71417
8639 2 23.9984 46.2827 1.71417
441 4 27.4268 44.5685 0
8640 2 27.4268 46.2827 1.71417
442 4 32.5693 46.2827 0
443 4 32.5693 44.5685 1.71417
444 4 30.8551 46.2827 1.71417
8641 2 32.5693 44.5685 1.71417
445 4 34.2835 44.5685 0
446 4 35.9976 46.2827 0
447 4 34.2835 46.2827 1.71417
8642 2 35.9976 46.2827 0
8643 2 34.2835 46.2827 1.71417
448 4 37.7118 44.5685 0
449 4 39.426 44.5685 1.71417
8644 2 37.7118 44.5685 0
8645 2 39.426 46.2827 0
8646 2 37.7118 46.2827 1.71417
450 4 41.1402 44.5685 0
451 4 42.8543 46.2827 0
452 4 42.8543 44.5685 1.71417
453 4 41.1402 46.2827 1.71417
8647 2 42.8543 44.5685 1.71417
8648 2 41.1402 46.2827 1.71417
454 4 44.5685 44.5685 0
455 4 46.2827 46.2827 0
456 4 46.2827 44.5685 1.71417
8649 2 44.5685 44.5685 0
8650 2 46.2827 46.2827 0
8651 2 46.2827 44.5685 1.71417
457 4 49.711 44.5685 1.71417
458 4 47.9969 46.2827 1.71417
8652 2 47.9969 44.5685 0
8653 2 49.711 46.2827 0
8654 2 47.9969 46.2827 1.71417
459 4 51.4252 44.5685 0
460 4 53.1394 44.5685 1.71417
8655 2 51.4252 44.5685 0
8656 2 53.1394 46.2827 0
8657 2 53.1394 44.5685 1.71417
8658 2 0 47.9969 0
8659 2 1.71417 49.711 0
8660 2 1.71417 47.9969 1.71417
461 4 5.14252 49.711 0
8661 2 3.42835 49.711 1.71417
462 4 8.57087 49.711 0
463 4 8.57087 47.9969 1.71417
8662 2 6.85669 47.9969 0
8663 2 8.57087 49.711 0
8664 2 6.85669 49.711 1.71417
464 4 10.285 47.9969 0
8665 2 10.285 47.9969 0
8666 2 11.9992 49.711 0
8667 2 11.9992 47.9969 1.71417
465 4 13.7134 47.9969 0
466 4 13.7134 49.711 1.71417
8668 2 13.7134 47.9969 0
467 4 17.1417 47.9969 0
468 4 18.8559 47.9969 1.71417
469 4 17.1417 49.711 1.71417
8669 2 17.1417 47.9969 0
8670 2 18.8559 49.711 0
470 4 22.2843 47.9969 1.71417
8671 2 20.5701 47.9969 0
8672 2 20.5701 49.711 1.71417
471 4 23.9984 47.9969 0
472 4 25.7126 49.711 0
473 4 25.7126 47.9969 1.71417
474 4 23.9984 49.711 1.71417
8673 2 25.7126 47.9969 1.71417
475 4 29.1409 47.9969 1.71417
8674 2 27.4268 47.9969 0
8675 2 29.1409 49.711 0
476 4 32.5693 49.711 0
477 4 32.5693 47.9969 1.71417
8676 2 30.8551 47.9969 0
8677 2 32.5693 47.9969 1.71417
8678 2 30.8551 49.711 1.71417
478 4 34.2835 47.9969 0
479 4 35.9976 47.9969 1.71417
8679 2 35.9976 49.711 0
8680 2 35.9976 47.9969 1.71417
8681 2 34.2835 49.711 1.71417
480 4 39.426 49.711 0
481 4 39.426 47.9969 1.71417
482 4 37.7118 49.711 1.71417
8682 2 37.7118 49.711 1.71417
483 4 41.1402 47.9969 0
484 4 42.8543 47.9969 1.71417
8683 2 41.1402 49.711 1.71417
485 4 46.2827 49.711 0
486 4 44.5685 49.711 1.71417
8684 2 44.5685 47.9969 0
8685 2 46.2827 49.711 0
8686 2 44.5685 49.711 1.71417
487 4 49.711 49.711 0
488 4 49.711 47.9969 1.71417
8687 2 47.9969 47.9969 0
8688 2 49.711 49.711 0
489 4 51.4252 47.9969 0
490 4 53.1394 49.711 0
491 4 53.1394 47.9969 1.71417
492 4 1.71417 53.1394 0
8689 2 0 51.4252 0
8690 2 1.71417 53.1394 0
8691 2 0 53.1394 1.71417
493 4 3.42835 51.4252 0
494 4 5.14252 53.1394 0
495 4 3.42835 53.1394 1.71417
8692 2 3.42835 51.4252 0
8693 2 5.14252 51.4252 1.71417
8694 2 3.42835 53.1394 1.71417
496 4 6.85669 51.4252 0
497 4 8.57087 51.4252 1.71417
8695 2 8.57087 53.1394 0
8696 2 6.85669 53.1394 1.71417
498 4 11.9992 53.1394 0
8697 2 10.285 51.4252 0
8698 2 11.9992 51.4252 1.71417
8699 2 13.7134 51.4252 0
8700 2 15.4276 53.1394 0
8701 2 15.4276 51.4252 1.71417
8702 2 13.7134 53.1394 1.71417
499 4 18.8559 53.1394 0
500 4 18.8559 51.4252 1.71417
501 4 17.1417 53.1394 1.71417
8703 2 17.1417 51.4252 0
502 4 20.5701 51.4252 0
8704 2 22.2843 53.1394 0
8705 2 22.2843 51.4252 1.71417
8706 2 20.5701 53.1394 1.71417
503 4 23.9984 51.4252 0
504 4 25.7126 53.1394 0
505 4 25.7126 51.4252 1.71417
8707 2 23.9984 51.4252 0
8708 2 25.7126 51.4252 1.71417
8709 2 23.9984 53.1394 1.71417
506 4 29.1409 53.1394 0
507 4 29.1409 51.4252 1.71417
508 4 27.4268 53.1394 1.71417
8710 2 29.1409 53.1394 0
8711 2 27.4268 53.1394 1.71417
509 4 30.8551 51.4252 0
510 4 32.5693 53.1394 0
511 4 32.5693 51.4252 1.71417
8712 2 30.8551 51.4252 0
8713 2 32.5693 51.4252 1.71417
8714 2 30.8551 53.1394 1.71417
512 4 34.2835 51.4252 0
8715 2 34.2835 51.4252 0
8716 2 35.9976 53.1394 0
8717 2 35.9976 51.4252 1.71417
8718 2 34.2835 53.1394 1.71417
513 4 37.7118 51.4252 0
514 4 39.426 51.4252 1.71417
8719 2 37.7118 51.4252 0
8720 2 39.426 53.1394 0
515 4 42.8543 51.4252 1.71417
516 4 41.1402 53.1394 1.71417
8721 2 42.8543 51.4252 1.71417
517 4 44.5685 51.4252 0
518 4 46.2827 51.4252 1.71417
519 4 44.5685 53.1394 1.71417
8722 2 44.5685 51.4252 0
8723 2 46.2827 53.1394 0
8724 2 46.2827 51.4252 1.71417
8725 2 44.5685 53.1394 1.71417
8726 2 49.711 53.1394 0
8727 2 49.711 51.4252 1.71417
520 4 53.1394 53.1394 0
521 4 53.1394 51.4252 1.71417
8728 2 53.1394 53.1394 0
8729 2 53.1394 51.4252 1.71417
8730 2 1.71417 1.71417 3.42835
8731 2 0 1.71417 5.14252
522 4 5.14252 0 5.14252
523 4 3.42835 1.71417 5.14252
8732 2 5.14252 1.71417 3.42835
8733 2 5.14252 0 5.14252
8734 2 3.42835 1.71417 5.14252
524 4 8.57087 0 5.14252
8735 2 6.85669 0 3.42835
8736 2 8.57087 0 5.14252
8737 2 6.85669 1.71417 5.14252
525 4 11.9992 1.71417 3.42835
526 4 11.9992 0 5.14252
527 4 10.285 1.71417 5.14252
8738 2 11.9992 0 5.14252
8739 2 10.285 1.71417 5.14252
528 4 13.7134 0 3.42835
529 4 15.4276 0 5.14252
8740 2 13.7134 0 3.42835
8741 2 13.7134 1.71417 5.14252
530 4 18.8559 0 5.14252
531 4 17.1417 1.71417 5.14252
8742 2 17.1417 1.71417 5.14252
532 4 22.2843 1.71417 3.42835
533 4 22.2843 0 5.14252
8743 2 20.5701 0 3.42835
8744 2 22.2843 1.71417 3.42835
8745 2 20.5701 1.71417 5.14252
534 4 23.9984 0 3.42835
535 4 23.9984 1.71417 5.14252
8746 2 23.9984 0 3.42835
8747 2 25.7126 0 5.14252
536 4 27.4268 0 3.42835
537 4 29.1409 1.71417 3.42835
538 4 29.1409 0 5.14252
539 4 27.4268 1.71417 5.14252
8748 2 27.4268 0 3.42835
8749 2 27.4268 1.71417 5.14252
8750 2 32.5693 1.71417 3.42835
8751 2 32.5693 0 5.14252
8752 2 30.8551 1.71417 5.14252
540 4 34.2835 0 3.42835
8753 2 34.2835 1.71417 5.14252
541 4 37.7118 0 3.42835
542 4 39.426 1.71417 3.42835
8754 2 39.426 1.71417 3.42835
8755 2 39.426 0 5.14252
543 4 42.8543 1.71417 3.42835
544 4 42.8543 0 5.14252
545 4 41.1402 1.71417 5.14252
8756 2 41.1402 1.71417 5.14252
546 4 44.5685 0 3.42835