ITEM: TIMESTEP
0
ITEM: NUMBER OF ATOMS
50688
ITEM: BOX BOUNDS xy xz yz pp pp pp
-20.3673 71.2979584 11.3856602
-22.2210007 65.3610001 0.0
-22.2210007 65.3610001 0.0
ITEM: ATOMS id type x y z VoronoiIndex1 VoronoiIndex2 VoronoiIndex3 VoronoiIndex4 VoronoiIndex5 VoronoiIndex6 VoronoiIndex7 VoronoiIndex8 VoronoiIndex9 AtomicVolume
7 2 -13.4200001 -13.8299999 -3.1659999 0 0 0 1 10 2 0 0 0 12.176609
21 2 -14.5799999 1.285 15.3299999 0 0 0 2 8 1 0 0 0 11.128439
26 5 -17.6499996 -17.2000008 -9.1820002 0 0 0 1 10 4 0 0 0 12.4687653
28 2 3.856 5.882 -10.9899998 0 0 0 2 8 4 0 0 0 11.9629346
36 2 9.4879999 -14.6899996 -19.2999992 0 0 0 1 10 2 0 0 0 12.3604107
38 5 5.9660002 -11.2600002 16.7600003 0 0 1 1 9 5 0 0 0 13.5626917
42 2 8.8520002 -3.7260001 -21.5 0 0 0 0 12 0 0 0 0 10.97392
43 5 -0.7092 12.0500002 9.981 0 0 0 2 8 2 0 0 0 11.5927544
50 2 11.1400003 -3.342 -22.0499992 0 0 0 2 10 0 0 0 0 11.3678312
61 4 -13.6999998 -8.3730002 -4.0879998 0 0 0 2 10 2 0 0 0 13.8175192
98 2 0.5799001 -8.6619997 18.9500008 0 0 0 0 12 0 0 0 0 10.9139204
128 5 -12.7100001 6.6110001 -10.8000002 0 0 1 2 7 3 2 0 0 12.6201964
146 4 1.893 8.6440001 -11.3900004 0 0 0 5 3 6 1 0 0 12.5924874
150 2 -14.29 7.6139999 9.0670004 0 0 0 3 6 3 0 0 0 11.3280916
171 2 4.395 -1.224 -3.108 0 0 0 2 7 1 1 0 0 10.9294444
176 5 8.1590004 -20.5699997 11.9700004 0 0 0 2 8 3 0 0 0 12.0496054
177 5 14.1599999 14.4899998 -20.1399994 0 0 1 1 8 3 1 0 0 12.353179
181 5 -9.4060001 -11.2600002 5.7560001 0 0 0 0 12 0 0 0 0 11.0678968
191 5 -12.8199997 6.0739999 -13.4300003 0 0 0 0 12 2 0 0 0 13.2254267
200 4 -18.6299992 -11.1000004 12.1700001 0 0 0 3 6 3 2 0 0 11.7160139
216 2 14.1400003 16.6900006 11.7700005 0 0 0 0 12 0 0 0 0 11.4325257
219 4 8.8350001 -2.7709999 16.0400009 0 0 1 2 7 3 2 0 0 12.3392983
220 2 -5.2410002 17.5100003 -5.5479999 0 0 0 2 10 1 0 0 0 11.8168497
231 4 -15.6099997 2.916 7.1869998 0 0 0 2 8 5 0 0 0 13.3008576
240 2 1.773 11.2700005 5.8460002 0 0 0 3 8 3 0 0 0 12.0705433
241 2 22.9699994 12.75 -1.1440001 0 0 0 3 6 4 0 0 0 11.6509609
243 4 8.0740004 17.5499993 -2.5290001 0 0 0 0 12 0 0 0 0 11.073
244 5 -9.6920004 -12.6300001 -20.7299996 0 0 1 1 8 3 1 0 0 12.6921988
245 1 15.4099999 -17.6700001 5.4689999 0 0 0 4 6 3 0 0 0 12.2447834
249 4 -8.0469999 -6.1729999 18.8899994 0 0 0 0 12 3 0 0 0 12.5655613
262 2 0.2449 2.987 9.4390002 0 0 0 3 7 2 1 0 0 12.3940954
263 1 -9.698 -2.638 -16.1900005 0 0 0 2 10 0 0 0 0 11.8923664
266 5 15.5799999 -18.0400009 16.6299992 0 0 0 2 10 2 0 0 0 12.2740631
277 4 -15.8900004 -0.7574 -7.2779999 0 0 0 2 10 1 0 0 0 12.2417793
283 5 -2.6459999 10.1899996 -11.1400003 0 0 0 0 12 2 0 0 0 12.1511908
298 4 -5.2059999 17.5300007 3.2950001 0 0 1 2 7 5 0 0 0 12.0045328
301 1 -12.8900004 18.8099995 20.2000008 0 0 0 4 4 7 0 0 0 12.4469519
311 5 -11.3299999 13.5699997 -4.553 0 0 0 5 6 3 0 0 0 12.905963
318 5 -4.6300001 -14.4700003 -6.0809999 0 0 0 2 8 2 0 0 0 12.210145
322 4 -11.4200001 -8.7010002 3.434 0 0 1 1 11 1 0 0 0 12.5279818
335 1 -19.0799999 -18.1100006 -5.4980002 0 0 1 2 7 4 0 0 0 11.5310459
336 4 -13.0100002 -16.5400009 -2.425 0 0 0 2 8 4 0 0 0 12.0382004
362 5 -11.4200001 -9.7370005 -4.2160001 0 0 0 1 10 3 0 0 0 13.1039801
370 5 -18.0200005 -17.0300007 -11.6300001 0 0 0 0 12 2 0 0 0 11.9591436
372 5 8.5010004 -19.9799996 3.931 0 0 0 2 8 2 0 0 0 11.9796734
377 5 -4.888 15.6800003 -0.9891 0 0 0 2 8 5 0 0 0 12.9657106
398 1 -3.82 0.4842 -1.326 0 0 0 0 12 0 0 0 0 10.8845578
409 2 21.7399998 -3.583 -17.3099995 0 0 1 0 11 1 0 0 0 11.2115545
416 2 -11.1599999 -21.1800003 -11.4399996 0 0 1 3 6 4 1 0 0 12.5020199
428 4 20.1800003 -6.7859998 4.763 0 0 0 2 10 0 0 0 0 11.5692997
431 2 -4.296 19.7800007 -19.5799999 0 0 0 3 6 4 0 0 0 11.8645382
439 4 -18.5400009 -8.3809996 15.4700003 0 0 0 3 8 3 0 0 0 12.850625
442 4 0.1454 -20.7900009 -12.3900004 0 0 0 1 10 4 0 0 0 12.8472548
452 4 -15.5 -22.0900002 -20.3700009 0 0 0 0 12 0 0 0 0 11.5978947
482 4 4.434 -0.3902 -19.6100006 0 0 0 3 8 3 0 0 0 12.0270901
506 4 -5.0689998 -0.5356 16.5699997 0 0 0 2 9 2 0 0 0 11.679019
527 5 8.4320002 -5.4089999 4.605 0 0 0 4 6 4 0 0 0 11.5548058
531 5 19.75 6.7319999 12.0799999 0 0 0 1 10 2 0 0 0 12.3498736
537 2 2.3699999 17.4799996 5.0349998 0 0 0 0 12 0 0 0 0 11.5875035
539 2 -1.6640001 -21.9599992 -16.3099995 0 0 0 2 8 2 0 0 0 11.0784063
548 4 -2.26 -8.0100002 1.3430001 0 0 0 0 12 0 0 0 0 11.333911
549 5 -15.4200001 13.04 -17.6100006 0 0 0 2 10 1 0 0 0 11.7680493
553 4 7.6199999 4.6560002 -21.3999996 0 0 0 0 12 0 0 0 0 11.1736479
559 4 14.4499998 6.3639999 -22.0599995 0 0 0 3 6 5 0 0 0 12.8405582
561 4 5.3870001 14.9899998 -5.9780002 0 0 0 0 12 3 0 0 0 13.5625315
564 4 -4.8260002 4.138 -11.9799996 0 0 0 2 9 3 1 0 0 12.4970064
569 2 7.2659998 -3.322 4.309 0 0 0 2 8 3 0 0 0 11.3448801
570 4 -18.4500008 -20.2399998 -6.0599999 0 0 0 3 6 4 0 0 0 11.6331501
571 5 -14.6700001 5.5029998 8.0970001 0 0 1 1 8 3 1 0 0 12.4787016
587 5 19.7099991 17.1000004 16.25 0 0 0 1 9 2 1 0 0 12.6121178
597 2 -3.0420001 -17.3500004 -13.4399996 0 0 0 3 6 5 0 0 0 11.2410298
613 5 14.5699997 -5.1729999 -1.413 0 0 1 5 4 3 1 0 0 12.5573626
618 2 -1.031 6.0479999 -12.6099997 0 0 0 2 10 1 0 0 0 11.0438108
623 4 17.9400006 17.1800003 4.7290001 0 0 0 0 12 2 0 0 0 12.4693184
638 5 -13.9399996 -9.0539999 9.2749996 0 0 0 2 8 2 0 0 0 11.8688642
643 5 -12.3500004 3.8340001 1.852 0 0 0 1 10 2 0 0 0 11.7518101
645 5 -11.4700003 16.3799992 5.6170001 0 0 0 1 10 2 0 0 0 12.0868979
649 4 17.1800003 -18.9300004 8.877 0 0 0 0 12 2 0 0 0 12.7711296
654 4 1.907 -17.2000008 1.2410001 0 0 0 2 8 4 0 0 0 11.9534054
657 4 20.7000008 -10.8100004 15.8299999 0 0 1 2 7 5 0 0 0 12.0787191
671 2 0.9419 -9.9139996 9.1020002 0 0 0 0 12 0 0 0 0 11.1418228
672 2 22.9200002 20.8799992 -17.4099999 0 0 0 1 10 3 0 0 0 12.2174902
681 2 -13.8800002 20.6299992 -9.0579996 0 0 0 1 10 2 0 0 0 11.3446036
699 5 17.0599995 3.181 3.5220001 0 0 0 3 6 4 0 0 0 12.3161526
701 4 21.3600006 -0.6389 19.6399994 0 0 1 4 4 4 1 0 0 12.3767958
726 5 18.1000004 -8.1040001 8.6330004 0 0 0 0 12 2 0 0 0 13.1347828
727 5 -8.3100004 -21.1000004 21.0900002 0 0 0 4 5 5 1 0 0 13.3779783
729 1 -0.554 -21.8099995 9.6680002 0 0 0 2 8 0 0 0 0 10.7367563
741 4 4.8509998 15.4700003 2.1659999 0 0 0 3 6 4 0 0 0 11.9371424
742 4 11.8000002 2.625 9.6709996 0 0 0 1 10 2 0 0 0 12.1815519
745 4 4.0890002 20.8199997 -21.0300007 0 0 0 1 10 3 0 0 0 12.6164503
755 5 13.1099997 -14.4899998 -17.7000008 0 0 0 2 8 3 0 0 0 12.2019501
758 2 6.4169998 10.3100004 14.5500002 0 0 0 4 6 3 0 0 0 11.5793152
760 1 8.5179997 8.8909998 -16.8199997 0 0 0 0 12 2 0 0 0 11.7512903
762 5 17.6499996 -5.3460002 -7.7600003 0 0 1 3 6 3 3 0 0 12.8601752
765 1 -2.0350001 11.2600002 -21.1299992 0 0 1 2 8 3 1 0 0 13.0264435
809 2 24.1700001 20.2099991 -0.7786 0 0 0 0 12 2 0 0 0 12.2535839
818 5 7.1760001 9.1940003 6.0890002 0 0 1 0 11 4 0 0 0 13.913374
842 5 9.7539997 1.163 -6.0310001 0 0 0 2 8 2 0 0 0 11.5344239
849 4 -3.039 3.0569999 11.1999998 0 0 0 4 6 3 0 0 0 11.5094528
850 5 5.5619998 17.7900009 -17.8799992 0 0 0 2 10 0 0 0 0 11.2128468
882 3 -7.4029999 16.6000004 16.0799999 0 0 1 3 4 5 1 0 0 12.852334
899 4 -3.2349999 -9.4960003 -0.5868 0 0 0 0 12 2 0 0 0 12.3277102
901 4 1.355 18.0100002 -1.777 0 0 0 3 8 3 0 0 0 11.9725332
915 5 -7.3990002 -22.1399994 -3.873 0 0 1 1 9 3 0 0 0 12.5840369
926 5 -0.9863 7.0570002 8.4890003 0 0 0 2 8 5 0 0 0 13.4740086
936 1 2.444 12.7700005 -14.9300004 0 0 1 2 5 4 0 0 0 11.1486692
941 5 0.7796 4.638 14.0200005 0 0 0 4 6 2 0 0 0 11.6469841
946 4 -4.303 -13.9300004 20.9599992 0 0 0 1 10 4 0 0 0 12.4283896
950 3 -3.6530001 -1.879 5.9400002 0 0 0 1 10 6 0 0 0 14.3316193
951 5 10.1499996 16.3299999 -1.428 0 0 0 0 12 3 0 0 0 13.2099619
958 5 13.1599999 7.0830002 -1.703 0 0 0 3 8 4 0 0 0 13.7466107
961 2 -1.4550001 17.8899994 -17.7199993 0 0 0 1 12 1 0 0 0 12.762538
962 4 -8.665 -14.6199999 -11.3999996 0 0 1 1 9 3 0 0 0 12.4049826
963 5 -11.1499996 -12.2399998 -15.0900002 0 0 0 3 8 4 0 0 0 12.9398414
990 4 13.0799999 17.0900002 -1.449 0 0 0 0 12 4 0 0 0 13.5112448
993 4 20.1900005 1.614 -13.04 0 0 0 3 6 4 0 0 0 11.7410679
995 1 -0.8283 -17.4300003 13.2600002 0 0 0 0 12 2 0 0 0 12.2672796
1007 2 1.599 -5.2800002 -2.868 0 0 0 0 12 0 0 0 0 11.2416353
1025 1 0.1883 -12.9899998 11.79 0 0 0 3 6 5 0 0 0 11.6636601
1027 4 16.1900005 -9.974 8.4169998 0 0 0 4 10 1 0 0 0 13.3361721
1047 4 -7.9640002 20.9899998 2.1860001 0 0 0 2 8 3 0 0 0 12.5816469
1050 1 -1.001 -10.3699999 18.6599999 0 0 0 2 8 2 0 0 0 10.9268188
1051 4 6.3400002 16.3500004 -19.4300003 0 0 0 1 10 2 0 0 0 11.288023
1055 2 9.2530003 5.2129998 -6.961 0 0 0 3 6 3 0 0 0 11.5322285
1057 4 11.3000002 -7.6220002 -11.7399998 0 0 0 1 9 2 1 0 0 12.0852299
1059 4 -6.3850002 13.0 2.2620001 0 0 0 3 8 2 0 0 0 13.0045109
1063 5 -11.1199999 9.2510004 9.6770001 0 0 0 1 10 2 0 0 0 12.3587074
1072 4 -10.9899998 21.4300003 9.6470003 0 0 0 1 10 4 0 0 0 12.9446764
1089 4 10.8999996 -20.3199997 -16.5900002 0 0 0 0 12 3 0 0 0 12.1443777
1098 4 18.7999993 -18.7399998 20.25 0 0 1 0 11 4 0 0 0 13.7603674
1102 5 16.9300004 -19.2299996 -15.8900004 0 0 0 0 12 0 0 0 0 11.0868702
1110 5 0.7571 -3.24 19.1499996 0 0 1 1 8 3 1 0 0 12.6761503
1118 1 13.2100001 -14.1099997 0.5757 0 0 0 3 6 4 0 0 0 11.5201636
1128 2 1.4 -19.6100006 0.9677 0 0 0 0 12 0 0 0 0 10.693615
1153 5 5.605 -15.3000002 18.3199997 0 0 1 1 8 3 1 0 0 11.9926348
1159 4 2.0079999 -10.2700005 15.1400003 0 0 3 1 6 4 1 0 0 11.9118148
1167 4 -5.5770002 20.3099995 -12.6700001 0 0 0 3 6 5 0 0 0 12.6042223
1169 2 15.4099999 2.2349999 -19.8700008 0 0 0 4 4 4 0 0 0 11.172163
1178 2 8.1689997 3.9960002 10.8500004 0 0 0 0 12 0 0 0 0 11.6230088
1187 5 -2.0439999 18.1100006 -13.7399998 0 0 0 2 8 5 0 0 0 12.999693
1188 4 12.9700004 16.1499996 8.0109997 0 0 0 0 12 2 0 0 0 12.4177189
1190 2 3.7809999 -17.8600006 -17.0900002 0 0 0 2 8 2 0 0 0 11.1067247
1199 4 -16.6200009 -9.9540006 -15.2100001 0 0 0 1 10 3 0 0 0 12.5588341
1214 5 -10.0799999 9.2209997 -22.0200005 0 0 0 0 12 2 0 0 0 12.9075098
1217 5 19.2999992 -9.8990002 -15.96 0 0 0 1 10 2 0 0 0 12.3443613
1222 1 -6.9460002 16.4099999 -1.875 0 0 0 1 10 2 0 0 0 11.3214159
1244 3 -10.2700005 -10.7100001 -9.2080002 0 0 0 0 12 0 0 0 0 11.186636
1247 1 12.1499996 1.379 -19.0499992 0 0 0 2 8 2 0 0 0 11.4252396
1261 4 7.5359998 16.5100003 19.2099991 0 0 0 2 8 3 0 0 0 12.0367031
1264 2 12.0699997 17.1700001 10.2700005 0 0 0 1 12 1 0 0 0 12.1980724
1272 4 19.5699997 18.6100006 -9.165 0 0 1 2 7 5 0 0 0 12.2229262
1280 5 -8.4829998 1.494 -11.5699997 0 0 0 1 10 2 0 0 0 11.918562
1283 4 18.8400002 2.2000001 12.4600001 0 0 1 2 7 5 0 0 0 12.2068758
1288 5 -11.87 -9.3780003 15.8999996 0 0 0 5 4 4 0 0 0 13.0129471
1293 4 20.0200005 -19.7299996 0.3948 0 0 0 2 8 4 0 0 0 12.8994064
1299 4 -4.7529998 -10.9799996 6.2340002 0 0 0 4 6 5 0 0 0 12.900489
1302 4 6.4190002 -1.721 -18.9799996 0 0 0 1 12 1 0 0 0 12.2980271
1303 2 -4.2979999 5.191 -0.186 0 0 0 0 12 0 0 0 0 11.5119467
1305 5 10.1999998 14.0600004 4.6830001 0 0 0 2 8 5 0 0 0 13.009903
1320 2 -11.1700001 12.4799996 12.2100001 0 0 0 0 12 0 0 0 0 11.4178038
1338 2 -6.2909999 21.1399994 -19.3600006 0 0 1 2 5 3 0 0 0 11.7569599
1339 5 5.2550001 2.1029999 3.763 0 0 0 1 10 3 0 0 0 12.1151848
1342 4 -6.9180002 19.5300007 18.25 0 0 1 2 7 4 0 0 0 12.3314066
1350 4 23.3299999 16.5599995 0.6883 0 0 0 1 12 2 0 0 0 12.8185435
1363 2 -9.3360005 -4.2969999 2.333 0 0 0 4 6 4 0 0 0 12.1689739
1365 4 14.75 -9.691 -16.9099998 0 0 1 3 5 6 0 0 0 12.7501135
1370 4 -20.0499992 -19.9599992 15.7600003 0 0 1 2 8 1 3 0 0 12.4354725
1374 4 18.9500008 -10.3900004 -18.6599999 0 0 1 1 9 5 0 0 0 12.533495
1377 4 -6.8660002 -4.1789999 -12.3400002 0 0 0 3 6 4 0 0 0 12.3011761
1387 3 -15.5600004 -22.1000004 6.5580001 0 0 0 3 10 2 0 0 0 13.9627924
1403 4 19.0300007 -12.5 -16.4699993 0 0 0 2 12 1 0 0 0 12.7213936
1434 5 -10.4899998 9.5939999 -11.0100002 0 0 1 1 8 3 1 0 0 12.3586121
1445 2 3.9760002 2.8510002 8.2860003 0 0 0 0 12 0 0 0 0 11.1688557
1456 4 -9.7930002 -10.2100001 -20.0900002 0 0 0 3 8 4 0 0 0 12.0711546
1457 4 -7.1960001 3.0539999 3.4130001 0 0 0 0 12 2 0 0 0 12.2262755
1463 4 7.4099999 17.0100002 -0.3404 0 0 0 1 10 3 0 0 0 12.6360407
1471 5 20.3899994 -7.8520002 -19.6399994 0 0 0 3 8 4 0 0 0 13.211175
1477 2 -4.6609998 -6.2540002 -19.6599999 0 0 0 3 5 2 1 0 0 11.342082
1478 2 20.1100006 17.4099999 6.1149998 0 0 0 2 8 2 0 0 0 11.0851746
1492 5 -0.6885 19.6800003 9.9499998 0 0 0 2 8 2 0 0 0 11.1620665
1502 5 2.9990002 5.3709998 -3.368 0 0 1 3 7 3 0 0 0 11.8344088
1505 4 -4.1430001 19.8400002 21.1900005 0 0 1 1 8 4 1 0 0 12.8297701
1509 5 3.471 -19.5400009 16.7900009 0 0 1 3 7 3 0 0 0 12.6680441
1515 5 -9.7180004 0.9183 -19.0499992 0 0 0 1 10 2 0 0 0 11.821106
1523 2 -8.5279999 13.3599997 -21.3299999 0 0 1 3 4 5 1 0 0 12.3979273
1545 4 3.7260001 -8.5889998 -16.0 0 0 0 0 12 0 0 0 0 11.8491888
1556 5 13.04 -6.881 -7.6399999 0 0 0 1 12 2 0 0 0 12.7059269
1583 2 -6.0279999 -7.5900002 2.303 0 0 0 2 8 4 0 0 0 12.6637059
1599 4 15.7200003 18.5799999 -20.8299999 0 0 0 1 10 3 0 0 0 12.2299824
1605 5 13.6199999 11.1599999 -2.1470001 0 0 0 1 10 2 0 0 0 11.5643368
1607 4 -0.3378 10.0299997 18.4799996 0 0 1 2 7 5 0 0 0 12.7061491
1615 4 13.6700001 20.5 0.226 0 0 0 2 8 4 0 0 0 11.6903992
1620 4 -13.8199997 -1.221 19.3999996 0 0 0 2 10 4 0 0 0 13.8130293
1634 5 14.2100001 18.1299992 -5.974 0 0 0 4 6 6 0 0 0 12.8581266
1642 4 7.6199999 -19.9400006 6.276 0 0 0 2 7 4 1 0 0 12.0454798
1657 5 -8.2279997 15.7700005 13.4700003 0 0 0 2 8 5 0 0 0 12.986021
1663 2 -8.422 -3.549 11.0600004 0 0 0 0 12 0 0 0 0 11.6003809
1669 4 -10.5900002 -20.2399998 -5.3530002 0 0 0 0 12 3 0 0 0 12.7238789
1671 4 24.4799996 18.9599992 -2.872 0 0 0 1 12 2 0 0 0 12.7655735
1692 5 -19.1900005 -20.9300004 11.7399998 0 0 1 2 9 2 0 0 0 12.2603483
1694 2 7.8350001 -17.8899994 -4.0040002 0 0 0 3 7 5 1 0 0 12.9394694
1698 4 -7.4819999 -1.696 21.2999992 0 0 0 0 12 0 0 0 0 11.7253781
1702 2 4.5370002 -10.5699997 14.5900002 0 0 0 3 5 4 1 0 0 12.113698
1706 4 4.6700001 1.124 -7.421 0 0 1 2 7 4 0 0 0 11.7986374
1722 5 -3.435 -1.8710002 -2.2750001 0 0 0 1 10 2 0 0 0 11.6911831
1726 5 1.164 -8.7709999 -5.969 0 0 0 2 10 0 0 0 0 11.5461474
1730 5 14.1999998 20.0799999 8.5340004 0 0 0 3 6 4 0 0 0 11.3608465
1766 4 -9.3870001 -18.6399994 -3.24 0 0 0 0 12 2 0 0 0 12.5164004
1774 4 -1.976 0.9918 -12.8400002 0 0 0 1 10 4 0 0 0 12.900631
1795 4 -0.3014 20.0699997 -13.4700003 0 0 0 0 12 0 0 0 0 11.6227083
1805 4 -14.7399998 17.6200009 9.4420004 0 0 0 2 7 4 1 0 0 12.3623924
1807 4 16.3299999 -8.29 14.5100003 0 0 0 1 10 3 0 0 0 12.4348183
1812 4 8.8859998 -8.0430002 15.3400002 0 0 1 2 9 3 0 0 0 12.9341222
1818 4 -7.3460002 0.1417 17.1200008 0 0 1 1 8 3 1 0 0 11.9948578
1829 5 -9.8120003 16.4300003 -19.3299999 0 0 0 0 12 0 0 0 0 11.0942631
1847 4 1.84 -21.6399994 -10.8999996 0 0 0 0 12 0 0 0 0 10.8992672
1851 1 -1.716 19.8899994 16.1800003 0 0 0 0 12 0 0 0 0 11.2376423
1865 2 10.0799999 -6.869 5.7849999 0 0 0 2 8 4 0 0 0 12.7388802
1873 4 -0.1568 -19.6599999 6.7160001 0 0 0 4 6 3 0 0 0 11.6263962
1879 5 19.4300003 -16.0 -17.3799992 0 0 0 3 10 0 0 0 0 12.1523581
1882 2 11.1999998 11.9899998 15.1599999 0 0 0 2 8 1 0 0 0 11.3413296
1897 4 17.9599992 -0.1688 15.9200002 0 0 0 2 8 6 0 0 0 12.6520453
1899 2 22.8299999 1.7840001 3.1459999 0 0 0 4 4 4 0 0 0 11.2814808
1905 4 -11.79 -5.9400002 12.2299996 0 0 1 0 11 3 0 0 0 13.0520515
1906 2 -5.4930001 17.1599999 0.8195001 0 0 0 2 8 2 0 0 0 10.9051752
1920 5 8.8610002 -5.4559999 7.5149999 0 0 0 2 10 3 0 0 0 13.4085322
1942 5 1.747 -19.8400002 15.0100002 0 0 0 2 8 4 0 0 0 12.1126719
1947 5 2.6359999 6.3379998 10.7799998 0 0 0 3 8 3 0 0 0 12.6343689
1951 4 9.026 20.9300004 17.1200008 0 0 0 0 12 2 0 0 0 12.6754542
1960 2 23.3600006 8.1140003 0.7975 0 0 0 3 6 5 0 0 0 11.2762118
1965 2 -7.988 1.391 -20.9699994 0 0 0 2 8 4 0 0 0 12.692152
1970 2 19.2999992 19.6499996 -19.2600002 0 0 0 0 12 0 0 0 0 12.026269
1975 4 -7.7540002 2.5639999 -18.6000004 0 0 0 2 8 5 0 0 0 12.980012
1976 5 23.7600003 16.5499993 15.1800003 0 0 0 1 10 2 0 0 0 11.7295847
1990 5 4.6700001 -8.889 -6.6539998 0 0 0 3 6 5 0 0 0 12.0591736
2013 5 1.147 11.6400004 -5.672 0 0 0 3 8 3 0 0 0 12.7831488
2020 2 -2.695 -9.184 -17.5300007 0 0 0 0 12 0 0 0 0 11.2891903
2029 4 0.8198 2.645 15.9300004 0 0 1 3 7 5 0 0 0 12.8656168
2041 5 15.5299998 1.005 16.3700009 0 0 0 2 8 4 0 0 0 12.7609635
2046 2 -17.4699993 -9.8640004 4.4499998 0 0 0 2 10 0 0 0 0 11.7443581
2053 2 -15.8100004 6.1929998 -1.568 0 0 0 1 12 1 0 0 0 12.3905859
2054 4 12.8100004 -3.5769999 6.737 0 0 0 1 10 5 0 0 0 13.6921196
2066 5 -8.7779999 -17.5599995 10.5699997 0 0 0 1 10 4 0 0 0 13.2003412
2082 2 -17.2999992 -14.5299998 -12.8199997 0 0 0 4 6 3 0 0 0 12.6263352
2085 5 22.9699994 18.2999992 -17.8999996 0 0 0 0 12 0 0 0 0 11.5068426
2089 1 -14.1899996 -4.863 12.4200001 0 0 1 3 6 2 1 0 0 11.7876015
2091 4 21.5499993 -8.1110001 -12.9399996 0 0 1 3 7 2 0 0 0 11.3860226
2097 5 -2.2379999 -7.4510002 -1.273 0 0 0 1 10 4 0 0 0 13.120285
2104 2 14.54 -18.7700005 -15.8900004 0 0 0 0 12 0 0 0 0 11.2645054
2116 5 10.3599997 -13.96 -11.4899998 0 0 0 1 12 1 0 0 0 12.3752957
2119 2 -13.5299998 14.5799999 -3.9920002 0 0 0 0 12 0 0 0 0 11.3442412
2124 5 13.9899998 -15.5299998 13.5699997 0 0 0 1 10 2 0 0 0 11.0620995
2126 5 12.3900004 -5.4380002 -12.8199997 0 0 0 2 8 4 0 0 0 12.1237431
2144 4 10.9099998 6.9369998 5.3169999 0 0 0 1 10 2 0 0 0 11.4282551
2147 1 10.6199999 -14.1400003 -15.9700004 0 0 0 3 6 6 0 0 0 12.0569744
2148 2 13.9099998 10.1700001 -6.4320002 0 0 0 2 10 2 0 0 0 12.0729265
2151 2 -10.1400003 6.903 21.4699993 0 0 0 2 10 0 0 0 0 11.6620827
2163 2 -2.536 15.3699999 10.2399998 0 0 0 0 12 0 0 0 0 11.7192431
2180 5 -0.7588001 0.6313 -10.4700003 0 0 0 0 12 0 0 0 0 11.1717386
2183 2 18.2999992 6.0619998 -12.5799999 0 0 1 2 7 2 0 0 0 10.877101
2202 4 -13.4600001 12.4200001 18.6000004 0 0 0 2 8 4 0 0 0 12.4354887
2208 2 8.724 12.5600004 3.6870001 0 0 1 2 7 3 0 0 0 11.5779248
2214 2 2.425 -0.5633 -4.244 0 0 0 2 8 2 0 0 0 11.7794237
2219 5 17.1900005 -18.5300007 11.6199999 0 0 0 3 6 4 0 0 0 11.8758926
2224 5 -11.6999998 -18.2999992 -17.5100003 0 0 0 2 10 0 0 0 0 12.0060186
2228 5 -9.934 16.5400009 -14.1099997 0 0 0 1 10 2 0 0 0 12.0278778
2229 4 -3.151 8.8380003 -22.0200005 0 0 0 3 8 3 0 0 0 12.4429417
2231 5 8.6149998 21.3299999 21.3600006 0 0 0 1 12 2 0 0 0 13.0294991
2232 3 1.747 -17.8500004 -9.6800003 0 0 0 5 8 1 0 0 0 12.4877033
2256 2 -15.5500002 4.501 -17.7600003 0 0 0 3 6 3 0 0 0 11.297822
2265 2 18.4500008 -0.1115 -13.3400002 0 0 0 2 8 2 0 0 0 11.1771383
2273 5 8.8710004 -20.9400006 9.5050001 0 0 0 1 9 4 1 0 0 12.7454062
2274 1 19.9500008 5.579 5.844 0 0 0 1 10 2 0 0 0 11.8495932
2284 5 14.2600002 14.87 -15.04 0 0 0 2 8 4 0 0 0 11.1665936
2285 4 -9.8210001 -8.066 -21.9500008 0 0 0 1 10 2 0 0 0 12.3662224
2295 1 -13.8900004 11.79 5.8460002 0 0 0 0 12 0 0 0 0 10.9101926
2298 5 13.8900004 21.4300003 -6.7059999 0 0 1 3 5 7 0 0 0 13.2277889
2304 4 11.3999996 -8.389 10.79 0 0 0 1 10 3 0 0 0 12.5693112
2314 4 -2.4949999 21.3999996 -20.5100003 0 0 1 4 7 2 0 0 0 12.5431843
2317 4 -3.2809999 1.5620001 19.4699993 0 0 0 1 10 2 0 0 0 11.8364907
2322 4 4.3140001 -7.4289999 -8.6409998 0 0 0 3 8 4 0 0 0 12.195138
2337 5 14.8299999 -8.3350001 -14.79 0 0 0 4 4 6 0 0 0 12.112319
2341 4 16.1800003 -5.9860002 -14.8199997 0 0 0 1 10 2 0 0 0 12.5411186
2368 2 0.158 -15.4200001 -15.4799996 0 0 0 1 10 2 0 0 0 11.5049401
2369 5 0.8899 13.7600003 -10.3199997 0 0 0 0 12 4 0 0 0 14.0293579
2385 4 -9.6770001 2.954 14.1300001 0 0 0 0 12 4 0 0 0 12.9053192
2386 2 21.4599991 20.9500008 -22.1800003 0 0 1 2 7 3 0 0 0 11.8930846
2407 2 1.278 8.875 2.276 0 0 0 3 6 4 0 0 0 11.8361483
2414 1 14.8400002 -12.4399996 -16.0799999 0 0 1 3 5 5 0 0 0 12.2141838
2427 4 -9.5769997 1.3 -16.5300007 0 0 0 1 10 4 0 0 0 12.5041819
2429 5 16.5200005 -17.4699993 21.1900005 0 0 0 3 6 5 0 0 0 12.3502607
2441 2 -10.4200001 -17.2299996 8.7629996 0 0 0 2 8 4 0 0 0 12.8410626
2442 4 18.0900002 1.86 -20.8099995 0 0 0 2 8 4 0 0 0 12.4977932
2443 5 21.7900009 20.2299996 2.915 0 0 0 3 6 5 0 0 0 13.1144705
2446 2 4.7150002 -9.6280003 -12.6599999 0 0 0 1 10 2 0 0 0 12.0629358
2451 2 -13.5100003 -4.3870001 1.675 0 0 0 0 12 0 0 0 0 10.9596702
2457 4 11.7600003 2.9960002 7.3410001 0 0 0 3 6 4 0 0 0 11.8220177
2482 5 -10.4200001 1.002 -21.5699997 0 0 1 1 11 1 0 0 0 12.5360327
2489 2 3.879 -5.0380001 -7.9720002 0 0 0 6 4 3 0 0 0 11.4416914
2494 2 -14.9099998 -4.0799999 -8.8870002 0 0 0 2 10 1 0 0 0 12.2502194
2496 4 6.5539999 7.1820002 7.7329998 0 0 0 1 12 2 0 0 0 13.3116179
2506 2 -7.763 20.0799999 -0.141 0 0 1 2 7 4 0 0 0 12.460167
2513 5 17.9200002 17.6200009 -20.1700001 0 0 0 0 12 3 0 0 0 12.5224362
2521 2 1.2280001 13.9200002 9.4899998 0 0 1 2 8 2 1 0 0 12.6976576
2523 4 14.1700001 12.2700005 21.2199993 0 0 0 1 10 3 0 0 0 12.637825
2527 1 -11.7100001 -11.0799999 -13.1099997 0 0 0 2 8 0 0 0 0 10.9901876
2541 2 -6.962 13.4200001 19.6900006 0 0 2 2 5 1 3 0 0 11.0193281
2543 5 -13.9899998 0.9364 -1.378 0 0 0 1 10 4 0 0 0 12.3455086
2545 5 -13.4899998 3.5520001 11.0200005 0 0 1 2 7 4 0 0 0 11.3524666
2548 2 -7.6469999 -6.6599999 -16.7299996 0 0 0 2 10 4 0 0 0 13.165761
2553 2 -7.2360001 3.4790001 -12.4099999 0 0 0 2 8 4 0 0 0 12.1786108
2557 4 1.492 16.4799996 -14.4200001 0 0 0 0 12 2 0 0 0 13.1344843
2562 5 -2.0190001 18.6499996 -20.2399998 0 0 0 2 10 2 0 0 0 12.6231747
2564 4 9.4259997 8.908 -11.3999996 0 0 0 4 8 3 0 0 0 12.9717836
2573 5 12.6099997 -4.0949998 13.75 0 0 0 3 6 4 0 0 0 12.2440062
2574 2 -8.2489996 -21.4899998 4.0250001 0 0 1 2 7 2 0 0 0 11.2584705
2594 2 7.5209999 -1.896 -7.9889998 0 0 0 4 6 5 0 0 0 12.5184183
2596 4 17.9799996 14.6000004 20.8500004 0 0 0 1 10 2 0 0 0 11.9466496
2600 1 18.5499993 -6.9959998 -1.651 0 0 0 0 12 0 0 0 0 11.2694988
2619 5 -7.4910002 -7.4400001 20.9099998 0 0 0 0 12 2 0 0 0 11.8824968
2627 4 -1.953 -15.1099997 -16.7900009 0 0 0 3 6 5 0 0 0 12.3347626
2632 4 2.491 0.7633 -20.7800007 0 0 0 3 8 2 0 0 0 11.9314594
2644 2 7.921 17.4400006 9.5229998 0 0 1 2 7 3 0 0 0 12.5265513
2647 4 14.8800002 -5.6599999 -19.0200005 0 0 0 1 10 4 0 0 0 12.880043
2657 4 -9.6669998 19.1000004 -14.7200003 0 0 0 2 10 2 0 0 0 12.5370541
2663 4 22.0400009 14.79 21.5 0 0 0 2 8 5 0 0 0 12.8194943
2664 5 -18.0699997 -4.8239999 -18.4799996 0 0 0 4 8 3 0 0 0 13.5275879
2666 2 18.9599992 -4.546 8.8830004 0 0 1 1 8 3 1 0 0 12.0909662
2675 4 -10.4600001 4.3709998 10.1999998 0 0 0 3 6 4 0 0 0 11.6411057
2680 4 -15.1899996 12.8900004 -2.448 0 0 0 0 12 3 0 0 0 12.9549322
2695 4 -3.24 -7.5700002 21.0300007 0 0 0 1 10 3 0 0 0 11.7587948
2700 1 19.7299996 -0.07419 5.4549999 0 0 0 3 8 2 0 0 0 11.1420775
2719 4 -19.4799996 -16.0100002 8.3450003 0 0 0 0 12 0 0 0 0 11.8721552
2722 5 -12.96 20.1299992 0.9547 0 0 0 0 12 0 0 0 0 11.3995619
2752 2 20.7199993 16.3500004 -5.0500002 0 0 1 1 8 3 1 0 0 11.6902666
2754 5 -15.9399996 9.3459997 15.9300004 0 0 0 1 10 2 0 0 0 11.5802727
2760 5 -3.826 0.2179 -20.0499992 0 0 0 1 10 4 0 0 0 12.8664218
2768 2 10.2799997 5.816 -4.7420001 0 0 1 2 7 2 2 0 0 12.1940355
2774 4 11.4799996 0.5974 6.8670002 0 0 0 1 10 4 0 0 0 12.2629099
2778 4 6.244 11.1199999 16.9500008 0 0 0 4 6 3 0 0 0 12.4300976
2782 4 -12.79 -21.0499992 13.1899996 0 0 0 1 10 4 0 0 0 13.3487663
2790 4 0.5070001 18.0100002 3.181 0 0 0 2 8 6 0 0 0 12.8629914
2799 4 1.462 -11.8800002 -21.9799996 0 0 1 4 7 5 0 0 0 13.9787332
2800 4 -11.8800002 16.4400006 -20.6399994 0 0 0 3 6 4 0 0 0 12.2146187
2802 5 -2.6400001 10.7200003 10.8000002 0 0 0 1 9 2 1 0 0 11.6994677
2820 4 13.8599998 -11.0900002 9.0790005 0 0 1 3 6 3 1 0 0 12.016614
2823 4 -10.6599999 12.2600002 18.2999992 0 0 0 1 10 2 0 0 0 12.3035946
2824 4 18.1000004 6.921 4.7579999 0 0 0 2 10 3 0 0 0 12.604621
2830 4 -18.6299992 -21.6900006 -16.1800003 0 0 1 3 5 5 2 0 0 12.4208479
2848 4 14.3100004 -17.5 0.9987 0 0 0 3 6 3 0 0 0 11.2833891
2851 3 -13.8999996 3.118 -15.7799998 0 0 0 0 12 2 0 0 0 12.9839134
2857 4 -0.006664 20.3299999 -3.0380001 0 0 2 4 3 5 1 0 0 12.2072182
2885 2 18.9799996 17.8400002 -17.7299996 0 0 0 1 10 2 0 0 0 11.989747
2895 4 3.8050001 -19.8400002 -4.855 0 0 0 5 4 6 0 0 0 13.5181494
2899 5 16.8500004 -12.4300003 -1.754 0 0 0 2 10 2 0 0 0 11.9748144
2906 4 17.4400006 10.2299996 1.523 0 0 0 0 12 0 0 0 0 11.6762877
2908 5 -0.5326 8.9309998 0.3749 0 0 0 1 11 0 0 0 0 11.6192265
2914 2 -1.2130001 -2.096 -6.4790001 0 0 0 2 8 2 0 0 0 11.382865
2932 4 -11.6599999 -14.3800001 -1.3480001 0 0 0 1 10 3 0 0 0 12.5492544
2955 4 -6.573 8.7609997 -13.7399998 0 0 0 2 8 6 0 0 0 13.6979237
2975 5 7.8410002 -4.4720001 -6.5539999 0 0 0 2 10 0 0 0 0 11.8156472
2985 4 -2.336 3.418 -16.5599995 0 0 0 1 10 3 0 0 0 12.5230532
2993 4 13.4600001 -0.8274001 10.1800003 0 0 0 3 6 5 0 0 0 12.2299614
2994 4 -12.2600002 -14.8299999 -14.5200005 0 0 0 2 8 5 0 0 0 12.5396033
3004 5 11.54 -1.776 -9.0010004 0 0 0 1 10 5 0 0 0 12.7846413
3009 4 7.309 -10.3699999 -7.553 0 0 0 1 10 2 0 0 0 11.4029999
3020 5 11.2200003 20.0799999 -9.6529999 0 0 0 2 10 2 0 0 0 12.3995762
3023 2 20.6100006 -9.2939997 -10.6800003 0 0 0 1 9 2 1 0 0 12.2532406
3025 2 -18.1299992 -9.231 -3.609 0 0 1 4 7 1 0 0 0 12.0488491
3060 4 -8.3050003 20.9899998 -15.8100004 0 0 0 1 10 2 0 0 0 11.4862728
3068 2 5.547 3.2130001 6.309 0 0 0 1 10 2 0 0 0 11.4085827
3090 5 18.6299992 -9.7939997 20.0599995 0 0 1 0 10 3 1 0 0 12.7214422
3100 4 -2.3929999 1.853 0.1891 0 0 0 0 12 2 0 0 0 12.0956507
3115 4 -0.3356 7.6630001 -1.722 0 0 0 1 10 2 0 0 0 12.483409
3118 4 2.82 -3.138 -3.533 0 0 0 0 12 3 0 0 0 12.9726678
3134 2 5.9510002 7.717 -13.9399996 0 0 0 0 12 0 0 0 0 11.1576901
3150 2 19.6700001 19.3199997 7.9980002 0 0 1 3 5 5 0 0 0 11.8357458
3151 4 -14.3999996 16.7900009 19.7099991 0 0 0 2 10 2 0 0 0 12.5930605
3152 4 -1.8250001 -17.1399994 -15.5 0 0 1 0 9 3 0 0 0 11.7498446
3158 2 12.0200005 -7.5710001 3.9070002 0 0 0 4 8 1 0 0 0 12.045023
3159 5 -4.7140003 15.1899996 -6.0560002 0 0 0 0 12 0 0 0 0 11.6020441
3165 5 12.1999998 -15.1700001 18.3500004 0 0 0 1 10 3 0 0 0 12.5478001
3167 2 -1.226 2.845 19.8299999 0 0 1 1 9 3 0 0 0 11.9082298
3174 4 -4.947 -0.1629 -5.6300001 0 0 0 5 3 4 1 0 0 12.6863451
3178 4 18.3500004 -10.2100001 10.6800003 0 0 0 0 12 3 0 0 0 13.2729349
3180 2 20.2099991 19.9899998 -7.02 0 0 0 2 8 4 0 0 0 12.0202837
3182 4 15.6099997 -18.6200009 -18.2700005 0 0 0 1 10 5 0 0 0 13.1476526
3185 5 1.438 5.5409999 6.0240002 0 0 1 2 5 5 0 0 0 11.7008057
3186 5 6.3060002 -1.962 -1.461 0 0 0 3 10 0 0 0 0 11.6709099
3199 5 11.6199999 18.6299992 0.1469 0 0 1 2 7 5 0 0 0 13.0758038
3201 5 -13.1599999 18.8600006 -12.7200003 0 0 1 2 8 3 1 0 0 12.1277237
3220 4 -6.935 19.4200001 -14.5200005 0 0 1 1 9 3 0 0 0 11.4964218
3222 4 13.9700004 -2.3499999 -9.632 0 0 0 3 8 3 0 0 0 11.930833
3234 4 -7.2150002 -7.5380001 4.955 0 0 0 1 10 5 0 0 0 13.523386
3240 1 3.8 8.3789997 -12.8199997 0 0 2 2 6 3 2 0 0 11.7253266
3246 5 -1.556 -21.3199997 4.6350003 0 0 2 1 7 5 1 0 0 13.349186
3267 5 4.2509999 -13.87 -7.7680002 0 0 0 1 10 4 0 0 0 12.6998167
3286 5 11.29 -7.9850002 15.04 0 0 0 0 12 0 0 0 0 11.2847357
3287 5 12.6700001 15.4600001 -16.5400009 0 0 0 1 10 2 0 0 0 11.6579752
3298 5 3.9170002 -21.1000004 14.6400004 0 0 1 2 7 2 2 0 0 11.9688196
3301 5 21.1399994 16.0200005 -7.52 0 0 0 1 10 2 0 0 0 11.3378124
3303 5 21.9200002 2.3729999 -15.3599997 0 0 0 3 6 4 0 0 0 11.6745882
3315 4 3.155 -10.5 10.1499996 0 0 0 4 6 3 0 0 0 11.8469944
3323 5 -17.3799992 0.03342 12.4099999 0 0 0 2 8 2 0 0 0 12.066659
3337 5 -9.3310003 -16.7399998 1.5470001 0 0 1 4 3 8 0 0 0 12.86201
3343 5 -9.5539999 19.0200005 -6.639 0 0 0 0 12 0 0 0 0 11.3353768
3346 2 -18.7700005 -15.9799996 -4.3070002 0 0 0 1 10 2 0 0 0 11.3520212
3357 4 -11.5600004 12.6400004 -6.6810003 0 0 0 2 9 2 0 0 0 12.0509272
3365 5 -17.5799999 -3.0580001 -0.6426 0 0 0 1 10 3 0 0 0 12.6974478
3387 5 21.0 17.3999996 -19.3899994 0 0 0 1 10 4 0 0 0 12.972294
3406 5 -10.8299999 6.8670002 -0.7738 0 0 0 2 10 2 0 0 0 12.696867
3408 5 -16.6700001 4.0890002 -15.75 0 0 0 1 10 2 0 0 0 12.5811196
3414 2 20.6800003 21.0100002 -4.856 0 0 0 4 6 2 0 0 0 11.6327448
3433 4 0.2825 17.7099991 -12.25 0 0 0 0 12 3 0 0 0 12.7813435
3438 5 18.8799992 -17.4699993 -21.4899998 0 0 0 3 5 4 1 0 0 14.3223477
3444 5 12.5 -13.6000004 2.9360002 0 0 0 2 8 3 0 0 0 12.2947588
3446 4 10.3999996 -10.5100003 6.921 0 0 1 2 7 4 0 0 0 13.2224712
3454 2 11.8299999 14.7100001 2.5420001 0 0 0 1 10 2 0 0 0 11.3913298
3465 5 -12.25 0.4253 -9.8920002 0 0 0 3 7 5 1 0 0 12.6381884
3467 4 3.01 -5.717 -10.1599999 0 0 0 0 12 0 0 0 0 11.6524525
3471 2 -17.8099995 -20.8199997 16.4899998 0 0 0 0 12 0 0 0 0 10.9870864
3481 4 0.4469 -14.6499996 -17.6800003 0 0 0 1 10 2 0 0 0 11.406971
3482 3 -14.9399996 8.2270002 4.2049999 0 0 0 2 8 4 0 0 0 12.8128672
3489 2 -6.6589999 -7.414 -19.1299992 0 0 0 1 12 2 0 0 0 12.4083729
3497 2 20.8199997 11.6000004 7.4089999 0 0 1 4 3 5 0 0 0 11.5147162
3501 4 8.25 -6.7719999 9.5170002 0 0 0 2 8 2 0 0 0 11.7011576
3516 4 17.6100006 -9.3640003 2.4319999 0 0 1 1 9 4 0 0 0 12.1623964
3529 5 12.5600004 -8.5299998 -2.4690001 0 0 1 1 7 6 0 0 0 12.2294054
3536 5 -19.5200005 -22.0 1.558 0 0 0 2 10 2 0 0 0 12.6145745
3540 4 3.698 3.3380001 -7.7919998 0 0 0 0 12 0 0 0 0 11.5922394
3561 5 -2.445 14.2200003 6.1279998 0 0 0 2 8 4 0 0 0 12.4784889
3563 2 -12.3400002 -7.0900002 -21.9500008 0 0 0 1 10 2 0 0 0 12.0012989
3571 4 0.849 11.1199999 0.565 0 0 0 3 8 3 0 0 0 12.4742432
3587 4 19.8899994 -20.0900002 -21.0699997 0 0 0 2 8 5 0 0 0 12.7370024
3597 2 13.25 -0.03458 -9.4099999 0 0 0 2 8 3 0 0 0 11.6976776
3613 4 -1.2640001 15.9200002 -13.1599999 0 0 0 1 10 4 0 0 0 12.4534168
3614 4 -4.922 2.0929999 7.2090001 0 0 0 2 10 1 0 0 0 12.2249842
3617 5 -13.3800001 -22.2099991 0.3928 0 0 1 2 5 5 0 0 0 12.2052288
3634 5 15.0299997 -13.1499996 -6.4699998 0 0 0 2 10 3 0 0 0 12.3385544
3636 4 5.356 -16.4200001 -0.8617 0 0 0 2 8 2 2 0 0 12.2215052
3648 2 -3.731 18.4300003 5.5770002 0 0 1 1 9 4 0 0 0 12.8482886
3659 4 20.75 -3.073 20.9200002 0 0 0 1 10 2 0 0 0 13.0255795
3662 2 -0.9251 5.2010002 19.6399994 0 0 0 3 6 4 0 0 0 11.6313391
3675 1 2.217 15.4200001 19.0200005 0 0 0 1 10 2 0 0 0 11.9794302
3678 2 -6.0409999 -2.6670001 -10.2799997 0 0 0 1 10 3 0 0 0 12.4961806
3690 5 -8.7390003 -14.3299999 2.918 0 0 1 4 4 5 1 1 0 12.760993