# LAMMPS data file
1000 atoms
5 atom types
0 1.0 xlo xhi
0 1.0 ylo yhi
0.0 1.0 zlo zhi

Atoms  # atomic: id tyoe x y z

1 5 0.6117270913591748 0.5445388643471805 0.23781642665022484
2 5 0.21467962426804688 0.14913459182575384 0.775930365942977
3 5 0.02002719700675626 0.6869560849448948 0.0010351569118377535
4 5 0.10224353789130047 0.7057151429137257 0.9301481942586368
5 5 0.2918461815402814 0.4133468654168153 0.1948786807136882
6 5 0.8613570905216617 0.2203835142565609 0.46641178311607145
7 5 0.6306708578608022 0.20955884831874527 0.021481020708390752
8 5 0.015016073781447203 0.6739384175764864 0.7085372682830695
9 5 0.34833670507433456 0.8555715481941247 0.6367386849910651
10 5 0.7173868857412491 0.5119747275486205 0.20261113454427293
11 5 0.3004673210135401 0.36398429004626676 0.6480038687225583
12 5 0.5056684068583237 0.734234868794648 0.025723055303741638
13 5 0.06174197766658618 0.5142171357715393 0.5659628912896577
14 5 0.0958975108212049 0.4224977898322202 0.5488288416321352
15 5 0.9569691390672111 0.8561491586116916 0.572375581169451
16 5 0.6681688592699324 0.3780614744891223 0.30730647207050654
17 5 0.3834913327689007 0.9005421037804118 0.867750278962013
18 5 0.0534104862915894 0.3787612959324844 0.20924387048895432
19 5 0.8811610373856402 0.8623085865520324 0.0391239306210448
20 5 0.35831718394116996 0.026076907928077486 0.009152377155768332
21 5 0.8850801968210649 0.5950861213889939 0.519231205936562
22 5 0.6620846256091303 0.602538553948999 0.7980203454131548
23 5 0.7464018098583437 0.004253140469846817 0.8155932432148755
24 5 0.09323758611741939 0.3324772812631239 0.8368575840795239
25 5 0.4829215963627015 0.7733567492733515 0.9523761319250188
26 5 0.9480891627125569 0.7346129801362326 0.2355703355782347
27 5 0.010901196762288512 0.8053331400271078 0.09163405949828507
28 5 0.413570413758937 0.738933669297575 0.7363745248795132
29 5 0.5133236535112484 0.6879456921625242 0.5313018006820801
30 5 0.9824437758275486 0.030662839728958446 0.0675513450999865
31 5 0.9081992411361042 0.5444742576029367 0.915692566644775
32 5 0.6154762714355538 0.7383061186090545 0.7183301041454412
33 5 0.13533413591796317 0.8783509651951068 0.9353230370334376
34 5 0.9882901143906236 0.8518022298555182 0.5267513858147859
35 5 0.6847781982795357 0.7097308463410886 0.9949752102001047
36 5 0.5646343567186438 0.12240988632877858 0.5750903804147319
37 5 0.4035723605625784 0.6015394346913605 0.5629874055040355
38 5 0.48404601070435127 0.9552709856173608 0.526956445209594
39 5 0.2944659306867169 0.2696322030596844 0.6233887317494573
40 5 0.5377703534588161 0.223324520480346 0.010759246931350996
41 5 0.7294468984625655 0.23420578885643262 0.6496066738184054
42 5 0.1752702002776323 0.2628604593887093 0.7221486834765505
43 5 0.6585582715994155 0.10103104174924415 0.6900945113569185
44 5 0.5370686636690878 0.41891764427560474 0.6353505990212356
45 5 0.4259407090740752 0.14306246230392028 0.26514247761770493
46 5 0.03864217907340328 0.86873451998525 0.7901844019811445
47 5 0.3175130312929241 0.10271415265354411 0.4140384742051063
48 5 0.7070529577287357 0.4099435103699999 0.3759004382310336
49 5 0.2107826406346296 0.6335693381318305 0.2090397694245536
50 5 0.24054242784344237 0.2550084005446128 0.9982157147276717
51 5 0.7801064524920637 0.11285071424846849 0.9150458161944043
52 5 0.029137468566279745 0.9598972245240207 0.3182970690429736
53 5 0.8663996659079507 0.25089004694138894 0.4081172806151281
54 5 0.36134904970922965 0.3778640615028782 0.8341095669455074
55 5 0.904415101456584 0.21830971892608464 0.9017115289410014
56 5 0.8477423989506122 0.18194187974746168 0.04862498041594976
57 5 0.5055299814406015 0.5919158953150498 0.26605620401346997
58 5 0.22166031504590966 0.8219666422491826 0.5933767146740477
59 5 0.3965090280672555 0.15327448679240396 0.1599023794053278
60 5 0.1282275399973385 0.6029481345912133 0.5294528942359857
61 5 0.7365136881816062 0.149791361298794 0.7632245244639976
62 5 0.5856844383097605 0.989033721626106 0.24130252074340797
63 5 0.8487374170824973 0.3153953395170117 0.22335948659026694
64 5 0.8743224834024884 0.14591872562426667 0.8927718191874902
65 5 0.7288594334613091 0.23200717446751706 0.9167769700391144
66 5 0.29914881609323296 0.0669187903090277 0.19423478348108347
67 5 0.3304564300101639 0.7653344066348251 0.6643494490037527
68 5 0.2640298069036887 0.06740393099849573 0.13046603208964658
69 5 0.456522786231483 0.051039532843228486 0.5208719989934039
70 5 0.7882980363040849 0.5168379616551422 0.4029543132597099
71 5 0.3428337151396844 0.5547523659343437 0.915570963795204
72 5 0.7590165805011962 0.5476028145625974 0.21233615196860467
73 5 0.8068486927522571 0.16163359347362083 0.7393139526244222
74 5 0.3237942264823831 0.07194870015551347 0.9892147793722432
75 5 0.8506634484000908 0.5467956582517068 0.941869022186631
76 5 0.7485453848098941 0.04311606581074867 0.4477814838132679
77 5 0.28405288463007394 0.8333219899340137 0.8967990696684971
78 5 0.9828017593910717 0.3579771794563694 0.7379399642421238
79 5 0.5057657144454226 0.7727053714862705 0.7894331303346805
80 5 0.605010061798413 0.5556647637615757 0.9956534237808686
81 5 0.7176456901032451 0.8698274753429434 0.21832279424143974
82 5 0.10197047776157409 0.485234235213273 0.12546239460809494
83 5 0.05996919226943209 0.8689830744312236 0.9939151159573408
84 5 0.5636274801201864 0.6638878080365695 0.012557101482471689
85 5 0.14191487775461176 0.2134208245854321 0.44271666297767254
86 5 0.2006719298823606 0.07179698232311116 0.24776172628635718
87 5 0.8133026611884707 0.9264095408978905 0.12600719007917116
88 5 0.842149817583132 0.1496371452927635 0.4761435856407872
89 5 0.3199873742543271 0.7581981970429407 0.16578498177596424
90 5 0.10100454314895324 0.7704125836073626 0.4765137134255317
91 5 0.6348478100187837 0.38712643407442515 0.3119772257846092
92 5 0.35668924929582 0.5251982616385472 0.9310316748009546
93 5 0.5545986355117907 0.43566278648612455 0.29560106134081565
94 5 0.19379281803900783 0.9153073352388457 0.7532805046901215
95 5 0.1351286858752736 0.9286773794711994 0.09775507711183451
96 5 0.05210884049816378 0.6837183842499525 0.5407009073781097
97 5 0.3062875593547777 0.2496886821425085 0.7030037544768024
98 5 0.6839296548720928 0.2915287608064733 0.15085095053855724
99 5 0.3229202901979793 0.848648872310727 0.3118239970593578
100 5 0.712441499696747 0.7072516176488577 0.4624317103892138
101 5 0.40657982618616384 0.21676740962517516 0.6848810368248747
102 5 0.02944699262991346 0.4941748801564009 0.7405032975484943
103 5 0.3291005584928456 0.43373947947363445 0.6516687169868012
104 5 0.07857305925635005 0.9759768364744665 0.08809686608517264
105 5 0.8550897099084519 0.25201440757496396 0.5627702454391548
106 5 0.7480607710044344 0.6665328236734087 0.01999531289815204
107 5 0.5450880731430635 0.8076576710250986 0.5652546034604085
108 5 0.33926286796470173 0.45296280447290016 0.3139513828779237
109 5 0.636987761895331 0.2794812369065357 0.662954450792217
110 5 0.5908076597308568 0.9424700264553435 0.082874744006038
111 5 0.9692592484441925 0.9184884960260808 0.8362028701840575
112 5 0.3265930799209319 0.29724594583993025 0.8638845589205871
113 5 0.8125351170393135 0.31336148319328405 0.9460670013829139
114 5 0.22968076069684606 0.48724112780723716 0.8746631469583687
115 5 0.41718321995762686 0.14787784666749193 0.0033698347167155918
116 5 0.11447329471925327 0.12653650872112943 0.23144703885857487
117 5 0.8426591761004169 0.7072773143786981 0.6188249956428321
118 5 0.1461603466478858 0.6295965363818536 0.8606758794938205
119 5 0.7514016607225342 0.607727886647306 0.9104425102041674
120 5 0.4961824580516693 0.5425015753006227 0.1698467886475311
121 5 0.6703677951628007 0.9946282602648371 0.6542171092757805
122 5 0.8765567376795875 0.5163601131948444 0.2113515930889397
123 5 0.7708956011856268 0.6478577521579776 0.39853845664660326
124 5 0.7798764018608842 0.6511112655669112 0.5704804624932196
125 5 0.8416385506121753 0.7276207473906299 0.6891630373090936
126 5 0.03689163900013526 0.2276664258945298 0.992236446664842
127 5 0.9852114355963213 0.730597044697025 0.5688905326986136
128 5 0.47449014196565875 0.5390179171738059 0.6869558453821138
129 5 0.48122070998531463 0.45994476347493174 0.5427055243755
130 5 0.8050905644110812 0.6197439496364057 0.5678575923320451
131 5 0.14690248934858552 0.6137216423002542 0.5459030434147321
132 5 0.9272215905671092 0.4884928578342004 0.23383636722141943
133 5 0.43714740425308707 0.8974184773134573 0.4071504300265143
134 5 0.8162640844591623 0.5144796767535026 0.9972250662615444
135 5 0.08946677155734661 0.04459775314819525 0.31130402278920466
136 5 0.6439924284667807 0.16507716345266554 0.11842329615527714
137 5 0.35813088311243724 0.06397996552463792 0.8561765682386898
138 5 0.6949073947291607 0.48449313021539864 0.6011677582512568
139 5 0.8950693372881547 0.6151768259251631 0.3569293615764697
140 5 0.42495983785932334 0.11654595154987235 0.3933326832686739
141 5 0.554494754990072 0.06765296563904388 0.7423992849032325
142 5 0.09479147874685656 0.33256647353090685 0.542074755710814
143 5 0.5785692371453856 0.47987276231020515 0.1793910413779194
144 5 0.8237086841228879 0.35598190876963676 0.7480435299500343
145 5 0.5053402138800596 0.8494437319321784 0.13156749705628334
146 5 0.016603204239349578 0.9971838345234889 0.45718575558806873
147 5 0.8901346859063065 0.34493844513954997 0.48193564983084025
148 5 0.1865874895047378 0.7490065038161475 0.08138517535353196
149 5 0.1542798461706424 0.03962172967732447 0.7512028781763601
150 5 0.27681521698473766 0.8716159517752505 0.5631299630222371
151 5 0.6481516749125343 0.9429958659425838 0.3403520911690806
152 5 0.772579908216949 0.2763469166753246 0.21280067528998192
153 5 0.4876000928385441 0.4933833119905383 0.3711289832015533
154 5 0.2930751632449269 0.5057271745054195 0.894481776524628
155 5 0.6382215732800878 0.8155438309250969 0.6587709821380957
156 5 0.22102293043587606 0.3491773839704838 0.27357491117147514
157 5 0.9567864630938536 0.7270556901350358 0.7215169930134838
158 5 0.2500085575713291 0.29651037532976454 0.3993963587563468
159 5 0.3965919432606059 0.7336051210840621 0.713616559806646
160 5 0.10295832597947474 0.8401376358789627 0.8786269070440267
161 5 0.04491167269559537 0.3716332035356781 0.48720895156141486
162 5 0.32972187100146566 0.3542881955783205 0.12272459100389477
163 5 0.18365919465007163 0.8941243048818165 0.8811128114974814
164 5 0.7394241080540189 0.9346674963197742 0.3013589371620561
165 5 0.6378292179723036 0.6354502601518237 0.6879391328801835
166 5 0.46671826241514003 0.5213507071119684 0.3950569632079517
167 5 0.3172331891764081 0.949552511283448 0.9474966199116218
168 5 0.9310792567049605 0.37337076620444565 0.7717455840424918
169 5 0.5966966816697918 0.48454931882908503 0.8531287990797953
170 5 0.8059660820832841 0.38521949302049874 0.3221327463144241
171 5 0.7937947937645625 0.5069559033473398 0.3306898723096059
172 5 0.5665641015096594 0.8369761136063691 0.10471759002300873
173 5 0.6725347122343904 0.45948165528351215 0.316413288975512
174 5 0.5210643704481687 0.8836817733202884 0.23290638504266736
175 5 0.1412103229189039 0.3274672194512134 0.6224178831941456
176 5 0.05336015522517179 0.8976458722703232 0.5985955069482802
177 5 0.619988859058805 0.6237470714020781 0.6618027835996056
178 5 0.5540133751539548 0.7921703350707932 0.7294940145594369
179 5 0.40863611845511005 0.4136733101338429 0.523841382599912
180 5 0.6917628773815816 0.8143532397703603 0.09035177031910291
181 5 0.6620315370182345 0.3934090719029556 0.25505809705199733
182 5 0.7781074644095135 0.6034038173870068 0.9355017369513099
183 5 0.7710260799038563 0.4397703237776407 0.21177812166533994
184 5 0.6826243357542484 0.5695103871910248 0.8888293047406791
185 5 0.013585570282814818 0.24509813177775452 0.731257940343501
186 5 0.6255770416856999 0.10013663134745787 0.1500445827524891
187 5 0.6300695114838623 0.6801246141528646 0.7985011194607685
188 5 0.6192645541427977 0.3660616554600866 0.49637676165329103
189 5 0.597579727167009 0.15130508915001128 0.011111921902117183
190 5 0.3730976856820021 0.6721560941166849 0.23191549188013172
191 5 0.8786751013170346 0.7054101928884011 0.8328006643176391
192 5 0.7439578186277187 0.005569456170304354 0.8942839245698608
193 5 0.6395747391316083 0.40611571392349 0.1932463156741704
194 5 0.5528923197490296 0.25957043018774517 0.587463585722228
195 5 0.32472696616794106 0.15904739436830673 0.40594063444045014
196 5 0.34216575017797957 0.1020760594726573 0.15797704834402237
197 5 0.8998422873594151 0.9998647873969722 0.6200416503544339
198 5 0.5213194989511994 0.8275967169783331 0.3252508248526583
199 5 0.9216392300843506 0.42581394778102244 0.749356290474583
200 5 0.7656869956650127 0.6836015470253308 0.5390840445187781
201 5 0.27702044537431236 0.5909218677904826 0.04662778549606561
202 5 0.19660514365994486 0.5256401600323086 0.7509709025328168
203 5 0.5175183393305406 0.2528436453012066 0.9332463992880285
204 5 0.31214619227066753 0.2228753328377282 0.829948492884984
205 5 0.5817788649634307 0.5273899879035933 0.8560948713829472
206 5 0.04099015732541644 0.5133775043016161 0.7234217108481221
207 5 0.1849381146435175 0.6254391563475027 0.5149954377656455
208 5 0.05870278019579689 0.1550338226216773 0.5936051143585563
209 5 0.5906158826115654 0.4850759720977371 0.8588353340332011
210 5 0.5530098666441038 0.7887877105436171 0.8582001652085428
211 5 0.7056144445193412 0.8509141931306063 0.1536809735438226
212 5 0.009789618758607843 0.6686598101357959 0.1962648461187848
213 5 0.21274908139412707 0.846497184997669 0.3055225019031397
214 5 0.02595111255633853 0.6885760670468336 0.8890071904413901
215 5 0.35599795547678215 0.44986087564280464 0.4843864100598825
216 5 0.44720328755028127 0.4241421628119213 0.7081985065194656
217 5 0.9501794926371959 0.4828692697232262 0.2692248937224937
218 5 0.6333706894342558 0.9696561389538609 0.9800379256690005
219 5 0.17703849475694 0.0832281265501339 0.22563389443041038
220 5 0.8946631057746325 0.3307084526101217 0.23940406944738923
221 5 0.1746237691552981 0.43821777532244055 0.40754283510287226
222 5 0.03644395937107514 0.15806871840788017 0.7618250059097256
223 5 0.28064481469618807 0.8152024005022233 0.361787831312692
224 5 0.2292431831945101 0.04018408201089485 0.0011365415028665726
225 5 0.48225486409759344 0.025441336850150043 0.06929554235335711
226 5 0.031561420203278456 0.8988120820263119 0.3047372227173345
227 5 0.2328110499249747 0.8176255731375105 0.2904134488838809
228 5 0.8458769935571603 0.929795483820499 0.09316137870803953
229 5 0.5130209494266638 0.2871818547404994 0.4847555343239819
230 5 0.7180615900290515 0.5376219895432057 0.659674983465009
231 5 0.01731047570662747 0.4351985138577803 0.6864172308280473
232 5 0.31019816046507365 0.9527152860350396 0.24909147340801008
233 5 0.8516577000897951 0.9923729721036164 0.10551329039292168
234 5 0.6756486003623514 0.5781668564037291 0.6619375076696651
235 5 0.8284769945887386 0.746838654483814 0.8091641719127752
236 5 0.3742912015783534 0.3072362219662149 0.08715117247145754
237 5 0.8743658271526709 0.5600327335767303 0.0281027134396451
238 5 0.7396641098426031 0.9336818992026077 0.6510053680650049
239 5 0.9670014751601561 0.6566388770529097 0.06388451650484284
240 5 0.0613490727865994 0.9576298320973773 0.6632692102744772
241 5 0.0327914261312473 0.5665296310561768 0.3719057071871098
242 5 0.2877270454123999 0.6314668910087864 0.23477665219514898
243 5 0.8118314555239855 0.46129436722297557 0.15195358628650635
244 5 0.2656590268022564 0.7114075617401626 0.8306578471365539
245 5 0.4196462672556187 0.6365408926523888 0.13114456348313575
246 5 0.7120737427697017 0.6384635089322676 0.45707458195474837
247 5 0.5319960842225943 0.6630383063974808 0.21788727887207004
248 5 0.7929831304118548 0.3353885824825409 0.5112635048306713
249 5 0.406272154704968 0.03534022967863282 0.1899060326115184
250 5 0.04362857699931655 0.5033953996283772 0.7801156411134248
251 5 0.33788189196152474 0.5582814926209974 0.906764797147021
252 5 0.44625283944195415 0.7877786325838856 0.25465749808839866
253 5 0.28000152769453124 0.3924005985867165 0.33648266416346817
254 5 0.4997153533977705 0.6562444939224071 0.30212861423124615
255 5 0.9137700141060551 0.4376996563994312 0.7870985687496147
256 5 0.7633930639883699 0.13068543842488523 0.8630158375294292
257 5 0.3164459665221042 0.46673714631198526 0.8064308608092802
258 5 0.5737683841822586 0.6706371280286232 0.5196876358501531
259 5 0.027243016356489957 0.11166853906074625 0.18609440234210273
260 5 0.08130076226324123 0.7439717389391134 0.8473466465681614
261 5 0.14071364545123632 0.21269711900216992 0.36327620657521964
262 5 0.7050974110735848 0.2849177666637891 0.09587786507822527
263 5 0.42258939760702496 0.4242061177935388 0.7838702027016822
264 5 0.9127110241388869 0.4395171107994148 0.5888935121660163
265 5 0.2993240561646926 0.005774392593886235 0.25557205213523737
266 5 0.1256120843597648 0.3911647798967697 0.16933861733715372
267 5 0.1344719453780825 0.7903388214360548 0.053742032648920746
268 5 0.26667165394425985 0.7948424123167449 0.28076342055180603
269 5 0.17575203827865327 0.8491866437275233 0.11720862552073175
270 5 0.8356799140125893 0.7795653566602168 0.959638463157574
271 4 0.8488820584023763 0.28525810961514275 0.5954585858305383
272 4 0.7474893259384155 0.1400887137842023 0.35047914550377
273 4 0.978616436441389 0.48305277794973156 0.6813156204920354
274 4 0.33298781927602705 0.3711147641482966 0.3810922368575538
275 4 0.4365783080624658 0.5612524515723383 0.6315769193557352
276 4 0.34675836793335857 0.512279322070496 0.30821505182647835
277 4 0.5303971365826357 0.7561623441289801 0.323651234105527
278 4 0.2546949498596158 0.3864456018678559 0.8115874609039351
279 4 0.7717428609224123 0.7633324194196649 0.0033170451595484485
280 4 0.21424467707292483 0.8331983745294447 0.533645729390045
281 4 0.037167195269179554 0.853980844992916 0.9237016579001446
282 4 0.4374938108332065 0.18980149236790167 0.39765558917568433
283 4 0.2823580829800174 0.8617392982112243 0.0030726241191593173
284 4 0.6216445437535113 0.05939218736469909 0.7045549147507582
285 4 0.2118878660928315 0.4617036800003702 0.1631214039848472
286 4 0.5954434060517254 0.33678895986723956 0.2411531899584458
287 4 0.43897871605723904 0.5077224314209263 0.980885450439945
288 4 0.35416651600929316 0.3686239223061196 0.4610803962853792
289 4 0.40894677484761377 0.5556917516222087 0.07345629189649816
290 4 0.49659628444831283 0.04291563734161574 0.7896897774065553
291 4 0.20672932041054992 0.4900077653227244 0.32066786422665716
292 4 0.616268344170216 0.755585389484321 0.09763269756880022
293 4 0.017927990878351396 0.05040867350771805 0.6725466043812474
294 4 0.9081719050820439 0.3662091984550544 0.9325507009992413
295 4 0.5881550538646433 0.5014846153138681 0.1834074260462214
296 4 0.7940727150063474 0.5914919354893686 0.8674811122948001
297 4 0.8475866602393598 0.671072393924759 0.2270200950654424
298 4 0.0030866491792725936 0.9022341916548524 0.6470518126585312
299 4 0.5467756537450424 0.2870840839739546 0.43470906452765123
300 4 0.7079796445021498 0.6877837196123615 0.7624278217814948
301 4 0.8235403072739594 0.7218553604740707 0.05921412766131351
302 4 0.38349198845847976 0.19800775450038488 0.07307699921593447
303 4 0.5833187010807936 0.28220458593834974 0.3054060550036316
304 4 0.6640221820727464 0.19872556989787382 0.8894373751369818
305 4 0.39797173132829367 0.7422643703956716 0.7269083984654253
306 4 0.49723915967414445 0.8617276476905456 0.1789565666981947
307 4 0.22718660417622938 0.11218655677710732 0.9334141858088452
308 4 0.5209065754430786 0.5835063571031697 0.4350273422684289
309 4 0.22101706975922653 0.7139528714299753 0.5275214872063161
310 4 0.6837154460222093 0.6749463806749862 0.08788474510946487
311 4 0.9942727875788249 0.8670735185628871 0.7382795064659015
312 4 0.24293121214626268 0.8189516023750403 0.08353213656761305
313 4 0.5437857044343761 0.9135763478397797 0.3551965301651432
314 4 0.3598558348827592 0.8389968908223954 0.5234534127351642
315 4 0.6209387045109611 0.4805806799811865 0.32236376397778277
316 4 0.4072496839084194 0.3388479700386522 0.6916164427887622
317 4 0.1377672507776263 0.7806755694937346 0.3057284699273216
318 4 0.5411028860990533 0.01812907309517575 0.5529274595358247
319 4 0.031004209906438374 0.04977345233249986 0.6586221589252981
320 4 0.23639181839191947 0.7671830096775263 0.30908576454375825
321 4 0.14679930233940208 0.8409580846423583 0.04601446751681326
322 4 0.21841506054440585 0.02260515516103423 0.0028408216179158785
323 4 0.38327442540643597 0.6170564531581552 0.22802773482021865
324 4 0.13145332921400854 0.252859084768399 0.29900124784893256
325 4 0.05445645159178236 0.934228735633964 0.4130098474931463
326 4 0.2754691694040171 0.7286478527375014 0.8584553218995327
327 4 0.8412985451265884 0.6726086101229717 0.49586909220648223
328 4 0.4933964188175852 0.7120603789397849 0.9017640054557349
329 4 0.5579620672341448 0.7305254112667475 0.21212805882929608
330 4 0.1021668071017422 0.060753690866421906 0.5237503716500072
331 4 0.5115566306507539 0.3712654517810503 0.010795166392771005
332 4 0.3960050836291904 0.3005327767391007 0.9930321039229776
333 4 0.109841410276864 0.6922171424326746 0.7765468983697374
334 4 0.2168751836667442 0.0480663644877285 0.6810025386621952
335 4 0.5217771319017883 0.7329748896782059 0.778401758119684
336 4 0.6538262018698783 0.741579736436026 0.20055078463370923
337 4 0.08029893270367294 0.6504580058254732 0.8669709367000875
338 4 0.7830025079640883 0.8832475122049057 0.6809344814268768
339 4 0.4993010771319132 0.9205193332756768 0.2332916954558164
340 4 0.042648586113466 0.5421801208318107 0.5118611867390053
341 4 0.8640831038178247 0.6642761924779185 0.15996486979083147
342 4 0.9900815992133346 0.35561101460805533 0.7178792889607858
343 4 0.7225847407928048 0.21511720973259862 0.44819872399136507
344 4 0.9200522815419835 0.30463741949130374 0.2854897570183026
345 4 0.8988254344250471 0.5405544919127692 0.6950918107012048
346 4 0.891173911298953 0.021090820917678776 0.6563614962935523
347 4 0.8062495121757787 0.06875149657184598 0.001450916934060853
348 4 0.28423602452922536 0.2975432199760747 0.7005433265262225
349 4 0.12081350332043883 0.6549195703168372 0.6656688113072485
350 4 0.8842367876847143 0.3646709151707396 0.03823214407229192
351 4 0.005602370968805781 0.5528471856698021 0.7393297732133249
352 4 0.46971778891351623 0.25508140254113876 0.6087721753088803
353 4 0.6691479969374218 0.4572459316555788 0.8772815519594246
354 4 0.11874794329577787 0.4847543927864234 0.864103062800059
355 4 0.8931149769751665 0.3766207927791422 0.0626636043970914
356 4 0.9001631569803978 0.7677911792685187 0.4721431737929751
357 4 0.8781525841300054 0.7888453841170491 0.20520190292369578
358 4 0.08188346253778966 0.7918089956168678 0.3734939503691753
359 4 0.7418964143942218 0.9773215316537203 0.9607493666364045
360 4 0.3858405391770875 0.7765802985788448 0.8897998887300469
361 4 0.38543585455936613 0.9249592539370678 0.6341409608249906
362 4 0.8904602167851268 0.027292142264789376 0.5324289123827376
363 4 0.11494760818907146 0.0790587506933138 0.10133077406484448
364 4 0.4364253113550799 0.6687955346684297 0.15407615764442217
365 4 0.9464877809250847 0.8332777375957561 0.6149595877629472
366 4 0.5064544023118104 0.20715467649810737 0.27091874565032614
367 4 0.1850854862363176 0.9454964780631462 0.13506682616722754
368 4 0.7603811283900193 0.7237433185244242 0.95116160843467
369 4 0.9301870419261127 0.846182691081097 0.2274433555643518
370 4 0.7794860078937194 0.6324895870687282 0.8514909744208327
371 4 0.3885749425905508 0.8261496366192321 0.6669768738572157
372 4 0.4903165239523638 0.8312086839914242 0.701562863601591
373 4 0.44445235188864984 0.3106701492714984 0.6855632387107831
374 4 0.03530764669407016 0.6613070575729173 0.004505997102788317
375 4 0.3251710469884078 0.11899277182071333 0.12140805579186331
376 4 0.05523601932055766 0.4395235962588212 0.38810954957001553
377 4 0.2687868365446292 0.6582602400896533 0.902566535885081
378 4 0.2002528129983986 0.5901115036592811 0.24423071497265725
379 4 0.7879535695917788 0.33336289268438957 0.4655746405137211
380 4 0.2581860303521082 0.8487785723951754 0.3813392466681237
381 4 0.3689885448722855 0.0575450817969666 0.1602748051940942
382 4 0.5082866822394894 0.10172563421060843 0.6111425118229452
383 4 0.4173032429236194 0.8535087361224432 0.5566897555358638
384 4 0.09117953937241474 0.47798199073184877 0.9320124300220984
385 4 0.03099896668563762 0.43186388373698614 0.2114178154125892
386 4 0.29687516697293603 0.3530020238877426 0.6614024957025337
387 4 0.37783040255736 0.7652580613459075 0.880303248649836
388 4 0.4387150387360501 0.9886239778547573 0.5180618914391343
389 4 0.3523190766480785 0.6904223506130587 0.5980820793795175
390 4 0.5942367003320995 0.7236573734062762 0.5713829561704851
391 4 0.8621685338971269 0.2926822622293571 0.39704154478827025
392 4 0.09628157423185646 0.47971300467981093 0.5210620003802443
393 4 0.5521038568749284 0.4993712148004166 0.22216709609307206
394 4 0.6175007771965553 0.32966792938004263 0.8889542634991354
395 4 0.1911676153483698 0.19248090393804673 0.10110846984612343
396 4 0.0025058382313263294 0.7714871468287322 0.07652408048812853
397 4 0.6439702226766008 0.9219693856674263 0.038040711160043816
398 4 0.7306840063844855 0.5289142872246989 0.5723507855893922
399 4 0.7016259743039769 0.20990060472510474 0.9637646062666035
400 4 0.9770852676471666 0.01579931890170727 0.6114106455594929
401 4 0.25686119352198356 0.9604276963847865 0.26139713283327126
402 4 0.224244608652459 0.39490950390559365 0.8117503043836106
403 4 0.5790754758568265 0.6676726864253252 0.8275763440510884
404 4 0.7889805183629703 0.9280145403008587 0.7503066155385714
405 4 0.49701084305027654 0.9508741465503745 0.011002530410513689
406 4 0.505746991159249 0.054355714818486334 0.39604925177088535
407 4 0.47452192614517985 0.5063006488428612 0.1064118453029329
408 4 0.3498733754442399 0.018568965203665133 0.10482649499760632
409 4 0.9282656332431096 0.10379546135505768 0.12376081165468011
410 4 0.33393620873535235 0.2590011155117271 0.037610501443177236
411 4 0.9704117237495988 0.7370534830625682 0.5202386393863891
412 4 0.9335967514436356 0.10996515833534715 0.0231924770283235
413 4 0.23662256718372188 0.685428884862125 0.7720803616343586
414 4 0.40132558771981164 0.6336919806094397 0.7965674689847092
415 4 0.33613040835566055 0.7686159253759108 0.896437598561679
416 4 0.9178628450467196 0.8981041439188012 0.9066578846677209
417 4 0.18090900821847078 0.6445985097117386 0.9992962187153938
418 4 0.8991904325374948 0.3461165111015544 0.6772970021386694
419 4 0.643969351285761 0.19092366302752917 0.44419892220919677
420 4 0.16954706443721712 0.17250514664546024 0.5117462490693385
421 4 0.8115669609397823 0.6337845015189576 0.053496608647942034
422 4 0.3526095520460445 0.1362626801120279 0.17501172240313734
423 4 0.04568308905576257 0.43144977488909486 0.362226297384426
424 4 0.46098567254802125 0.07776123220853848 0.9173718142601659
425 4 0.60063357542739 0.99089260943791 0.751974364216163
426 4 0.9927403354105511 0.9310422888471255 0.9806291261331579
427 4 0.07988159190754296 0.6117269390354074 0.48197597094582534
428 4 0.7706026091145175 0.8959177569960254 0.5399409549957724
429 4 0.4126330848509904 0.5186533421199896 0.09179461356364538
430 4 0.04752863555110953 0.8631119939319083 0.25644320989080804
431 4 0.42117952732826236 0.05444590499122681 0.9958637861639599
432 4 0.3882048503629071 0.16744994033042082 0.351229845322958
433 4 0.052673061194844384 0.7789524322268196 0.846297813341044
434 4 0.9888539297522532 0.7042485534568036 0.5520784702835766
435 4 0.6048669981560018 0.12638819737929496 0.4354545467859967
436 4 0.6556459408425278 0.41056536712579206 0.4542339463938845
437 4 0.6055308881498452 0.022022759813082993 0.3882478964874363
438 4 0.8782816421535751 0.5107893144509909 0.028144433125272705
439 4 0.5447084062736367 0.6361944406724879 0.20618509442188593
440 4 0.7378689062795706 0.7642727378380655 0.611809101286546
441 4 0.334531373696909 0.53873908670328 0.5470107765788976
442 4 0.45514634587026226 0.011830218711841978 0.5252751048094839
443 4 0.361409004119837 0.09276824336032297 0.7370625541470602
444 4 0.8477200012276201 0.0533004986849267 0.7557441904207745
445 4 0.21728658999707662 0.35476845960759884 0.5854471779361883
446 4 0.2334149682448472 0.7668657639769161 0.8926394790996207
447 4 0.9818509471127459 0.20850312625206502 0.287625413638688
448 4 0.8116038380729272 0.2845449831150585 0.08694288582262188
449 4 0.2118800286796365 0.9868318207136288 0.028635766637850835
450 4 0.24501025871740212 0.30781744697291247 0.8730859019726492
451 4 0.5523593905582784 0.16213006626997795 0.363866867334523
452 4 0.4122951248031267 0.5237688931129681 0.1689994610032004
453 4 0.42310897886641485 0.6202454232404891 0.36536445430215037
454 4 0.5299621625962335 0.05707182616261708 0.4645578077593865
455 4 0.06255325335855144 0.9747555532405549 0.13898264703616336
456 4 0.9394310909717876 0.3191755660581894 0.5082879332137835
457 4 0.5226018660052282 0.0646851505449757 0.33681083342739204
458 4 0.10468750987854036 0.8537845754131137 0.7361494899444326
459 4 0.9881428071775633 0.33698102692593146 0.18094474966279928
460 4 0.967434963250797 0.9804668247585999 0.8911656779827108
461 4 0.5394038511698119 0.9603913479326898 0.554656451913303
462 4 0.6488016836556054 0.44241422798448005 0.8794924718275603
463 4 0.2640843641129139 0.2102087937710746 0.04629249074741448
464 4 0.17389157837737979 0.7690353873187659 0.5216340999930679
465 4 0.48722283357924445 0.31856710565929913 0.7175053836858937
466 4 0.11163511695290906 0.7435899946428789 0.7784093435668175
467 4 0.9938066185711893 0.9196143604616078 0.28635748063984734
468 4 0.8770466339488328 0.26242977675973267 0.43429106022082076
469 4 0.3448723271875893 0.8689943242824227 0.7074777346129215
470 4 0.9334668630952748 0.09065941223355356 0.7023634855818351