ITEM: TIMESTEP
0
ITEM: NUMBER OF ATOMS
16384
ITEM: BOX BOUNDS pp pp pp
0.0000000000000000e+00 6.3871018705177100e+01
0.0000000000000000e+00 6.3871018705177100e+01
0.0000000000000000e+00 6.3871018705177100e+01
ITEM: ATOMS id type x y z
1 4 0 0 0
2 4 2.01181 2.01181 0
8193 2 0 0 0
8194 2 2.01181 2.01181 0
8195 2 2.01181 0 2.01181
8196 2 0 2.01181 2.01181
3 4 6.03543 2.01181 0
4 4 6.03543 0 2.01181
5 4 4.02362 2.01181 2.01181
8197 2 6.03543 0 2.01181
6 4 10.0591 0 2.01181
7 4 8.04724 2.01181 2.01181
8198 2 8.04724 0 0
8199 2 10.0591 2.01181 0
10 4 12.0709 2.01181 2.01181
8 4 14.0827 2.01181 0
9 4 14.0827 0 2.01181
11 4 16.0945 0 0
12 4 16.0945 2.01181 2.01181
8200 2 14.0827 2.01181 0
8201 2 18.1063 0 2.01181
8203 2 20.1181 2.01181 2.01181
8202 2 22.1299 0 2.01181
13 4 24.1417 0 0
8204 2 24.1417 0 0
8205 2 26.1535 2.01181 0
8206 2 24.1417 2.01181 2.01181
14 4 28.1654 0 0
15 4 30.1772 0 2.01181
16 4 28.1654 2.01181 2.01181
8207 2 28.1654 0 0
8208 2 30.1772 0 2.01181
17 4 32.189 0 0
18 4 34.2008 2.01181 0
19 4 34.2008 0 2.01181
8209 2 34.2008 2.01181 0
8212 2 36.2126 2.01181 2.01181
20 4 38.2244 2.01181 0
21 4 38.2244 0 2.01181
8210 2 38.2244 2.01181 0
8211 2 38.2244 0 2.01181
8213 2 40.2362 0 0
8215 2 40.2362 2.01181 2.01181
22 4 42.248 2.01181 0
8214 2 42.248 0 2.01181
23 4 44.2598 0 0
24 4 46.2717 2.01181 0
8216 2 46.2717 2.01181 0
8217 2 44.2598 2.01181 2.01181
25 4 50.2953 2.01181 0
8218 2 48.2835 0 0
8219 2 50.2953 2.01181 0
8220 2 48.2835 2.01181 2.01181
8221 2 52.3071 0 0
8223 2 52.3071 2.01181 2.01181
26 4 54.3189 2.01181 0
27 4 56.3307 0 0
29 4 56.3307 2.01181 2.01181
8222 2 54.3189 0 2.01181
28 4 58.3425 0 2.01181
30 4 60.3543 0 0
8224 2 58.3425 0 2.01181
8225 2 60.3543 0 0
31 4 62.3661 2.01181 0
32 4 2.01181 4.02362 2.01181
33 4 0 6.03543 2.01181
8226 2 0 4.02362 0
8227 2 2.01181 6.03543 0
34 4 6.03543 4.02362 2.01181
35 4 4.02362 6.03543 2.01181
8228 2 6.03543 4.02362 2.01181
36 4 8.04724 4.02362 0
37 4 10.0591 6.03543 0
38 4 10.0591 4.02362 2.01181
39 4 8.04724 6.03543 2.01181
8229 2 8.04724 4.02362 0
8230 2 10.0591 6.03543 0
42 4 12.0709 6.03543 2.01181
40 4 14.0827 6.03543 0
41 4 14.0827 4.02362 2.01181
43 4 16.0945 4.02362 0
45 4 16.0945 6.03543 2.01181
8231 2 16.0945 4.02362 0
44 4 18.1063 6.03543 0
47 4 20.1181 6.03543 2.01181
8232 2 18.1063 4.02362 2.01181
46 4 22.1299 4.02362 2.01181
8233 2 22.1299 6.03543 0
48 4 24.1417 4.02362 0
49 4 26.1535 6.03543 0
50 4 26.1535 4.02362 2.01181
51 4 24.1417 6.03543 2.01181
8234 2 26.1535 6.03543 0
8235 2 26.1535 4.02362 2.01181
52 4 28.1654 6.03543 2.01181
8236 2 28.1654 4.02362 0
8237 2 28.1654 6.03543 2.01181
53 4 32.189 4.02362 0
56 4 32.189 6.03543 2.01181
8238 2 32.189 4.02362 0
54 4 34.2008 6.03543 0
55 4 34.2008 4.02362 2.01181
57 4 36.2126 4.02362 0
59 4 36.2126 6.03543 2.01181
8239 2 34.2008 6.03543 0
8241 2 36.2126 6.03543 2.01181
58 4 38.2244 6.03543 0
61 4 40.2362 6.03543 2.01181
8240 2 38.2244 4.02362 2.01181
60 4 42.248 4.02362 2.01181
8242 2 42.248 4.02362 2.01181
62 4 46.2717 4.02362 2.01181
8243 2 44.2598 4.02362 0
8244 2 46.2717 6.03543 0
63 4 48.2835 4.02362 0
64 4 50.2953 6.03543 0
65 4 50.2953 4.02362 2.01181
8245 2 48.2835 4.02362 0
8246 2 50.2953 4.02362 2.01181
8247 2 52.3071 4.02362 0
8250 2 52.3071 6.03543 2.01181
66 4 54.3189 6.03543 0
67 4 54.3189 4.02362 2.01181
68 4 56.3307 4.02362 0
8248 2 54.3189 6.03543 0
8249 2 54.3189 4.02362 2.01181
8251 2 56.3307 4.02362 0
69 4 58.3425 6.03543 0
70 4 60.3543 4.02362 0
72 4 60.3543 6.03543 2.01181
8252 2 60.3543 4.02362 0
8255 2 60.3543 6.03543 2.01181
71 4 62.3661 6.03543 0
8253 2 62.3661 6.03543 0
8254 2 62.3661 4.02362 2.01181
73 4 2.01181 8.04724 2.01181
8256 2 2.01181 8.04724 2.01181
8257 2 0 10.0591 2.01181
74 4 6.03543 8.04724 2.01181
75 4 4.02362 10.0591 2.01181
8258 2 4.02362 8.04724 0
8259 2 6.03543 10.0591 0
8260 2 8.04724 8.04724 0
8261 2 10.0591 8.04724 2.01181
8262 2 8.04724 10.0591 2.01181
76 4 12.0709 8.04724 0
8263 2 12.0709 8.04724 0
8264 2 12.0709 10.0591 2.01181
77 4 14.0827 8.04724 2.01181
8265 2 16.0945 8.04724 0
78 4 18.1063 8.04724 2.01181
8266 2 18.1063 10.0591 0
8267 2 18.1063 8.04724 2.01181
8268 2 20.1181 8.04724 0
79 4 22.1299 10.0591 0
80 4 22.1299 8.04724 2.01181
8269 2 22.1299 10.0591 0
8270 2 22.1299 8.04724 2.01181
81 4 24.1417 8.04724 0
82 4 26.1535 8.04724 2.01181
8271 2 26.1535 10.0591 0
8272 2 24.1417 10.0591 2.01181
83 4 28.1654 10.0591 2.01181
8273 2 28.1654 10.0591 2.01181
8274 2 32.189 8.04724 0
8276 2 32.189 10.0591 2.01181
84 4 34.2008 8.04724 2.01181
86 4 36.2126 10.0591 2.01181
8275 2 34.2008 10.0591 0
8277 2 36.2126 8.04724 0
8280 2 36.2126 10.0591 2.01181
85 4 38.2244 10.0591 0
88 4 40.2362 10.0591 2.01181
8278 2 38.2244 10.0591 0
8279 2 38.2244 8.04724 2.01181
8281 2 40.2362 8.04724 0
87 4 42.248 8.04724 2.01181
8282 2 42.248 10.0591 0
8283 2 42.248 8.04724 2.01181
89 4 46.2717 8.04724 2.01181
90 4 44.2598 10.0591 2.01181
8284 2 46.2717 10.0591 0
91 4 50.2953 10.0591 0
92 4 48.2835 10.0591 2.01181
8285 2 48.2835 8.04724 0
93 4 52.3071 10.0591 2.01181
8288 2 52.3071 10.0591 2.01181
94 4 56.3307 8.04724 0
8286 2 54.3189 10.0591 0
8287 2 54.3189 8.04724 2.01181
8289 2 56.3307 8.04724 0
8291 2 56.3307 10.0591 2.01181
95 4 60.3543 8.04724 0
97 4 60.3543 10.0591 2.01181
8290 2 58.3425 10.0591 0
8292 2 60.3543 8.04724 0
8294 2 60.3543 10.0591 2.01181
96 4 62.3661 10.0591 0
8293 2 62.3661 10.0591 0
99 4 2.01181 12.0709 2.01181
8295 2 0 12.0709 0
101 4 4.02362 12.0709 0
103 4 6.03543 12.0709 2.01181
8296 2 4.02362 12.0709 0
8298 2 6.03543 12.0709 2.01181
104 4 8.04724 12.0709 0
105 4 10.0591 12.0709 2.01181
8299 2 8.04724 12.0709 0
8301 2 12.0709 12.0709 0
107 4 14.0827 12.0709 2.01181
108 4 20.1181 12.0709 0
8305 2 18.1063 12.0709 2.01181
110 4 22.1299 12.0709 2.01181
111 4 24.1417 12.0709 0
112 4 26.1535 12.0709 2.01181
114 4 28.1654 12.0709 0
116 4 30.1772 12.0709 2.01181
8309 2 28.1654 12.0709 0
8310 2 30.1772 12.0709 2.01181
8312 2 32.189 12.0709 0
119 4 36.2126 12.0709 0
8314 2 36.2126 12.0709 0
121 4 38.2244 12.0709 2.01181
123 4 40.2362 12.0709 0
8315 2 38.2244 12.0709 2.01181
8316 2 40.2362 12.0709 0
124 4 42.248 12.0709 2.01181
8317 2 44.2598 12.0709 0
126 4 50.2953 12.0709 2.01181
128 4 52.3071 12.0709 0
129 4 54.3189 12.0709 2.01181
130 4 56.3307 12.0709 0
8319 2 54.3189 12.0709 2.01181
8321 2 56.3307 12.0709 0
8323 2 60.3543 12.0709 0
98 4 2.01181 14.0827 0
100 4 0 14.0827 2.01181
8327 2 2.01181 16.0945 2.01181
102 4 6.03543 14.0827 0
8297 2 6.03543 14.0827 0
8329 2 4.02362 16.0945 0
8331 2 6.03543 16.0945 2.01181
134 4 10.0591 16.0945 2.01181
8300 2 10.0591 14.0827 0
8333 2 8.04724 16.0945 0
8303 2 12.0709 14.0827 2.01181
106 4 14.0827 14.0827 0
8302 2 14.0827 14.0827 0
137 4 20.1181 16.0945 0
8304 2 18.1063 14.0827 0
8338 2 18.1063 16.0945 2.01181
8340 2 20.1181 16.0945 0
109 4 22.1299 14.0827 0
8306 2 22.1299 14.0827 0
8341 2 22.1299 16.0945 2.01181
113 4 24.1417 14.0827 2.01181
139 4 24.1417 16.0945 0
8307 2 26.1535 14.0827 0
8308 2 24.1417 14.0827 2.01181
8344 2 26.1535 16.0945 2.01181
115 4 30.1772 14.0827 0
117 4 28.1654 14.0827 2.01181
8311 2 28.1654 14.0827 2.01181
118 4 32.189 14.0827 2.01181
122 4 36.2126 14.0827 2.01181
143 4 34.2008 16.0945 2.01181
8313 2 34.2008 14.0827 0
120 4 38.2244 14.0827 0
146 4 38.2244 16.0945 2.01181
148 4 40.2362 16.0945 0
8349 2 38.2244 16.0945 2.01181
8318 2 44.2598 14.0827 2.01181
8353 2 44.2598 16.0945 0
8354 2 46.2717 16.0945 2.01181
125 4 50.2953 14.0827 0
127 4 48.2835 14.0827 2.01181
152 4 48.2835 16.0945 0
8356 2 48.2835 16.0945 0
8357 2 50.2953 16.0945 2.01181
155 4 52.3071 16.0945 0
8320 2 52.3071 14.0827 2.01181
156 4 54.3189 16.0945 2.01181
158 4 56.3307 16.0945 0
8322 2 56.3307 14.0827 2.01181
8359 2 54.3189 16.0945 2.01181
8325 2 60.3543 14.0827 2.01181
8362 2 60.3543 16.0945 0
131 4 62.3661 14.0827 0
8324 2 62.3661 14.0827 0
8364 2 62.3661 16.0945 2.01181
132 4 2.01181 18.1063 0
160 4 0 20.1181 0
162 4 2.01181 20.1181 2.01181
8326 2 2.01181 18.1063 0
8328 2 0 18.1063 2.01181
8366 2 0 20.1181 0
8368 2 2.01181 20.1181 2.01181
133 4 6.03543 18.1063 0
164 4 4.02362 20.1181 0
165 4 6.03543 20.1181 2.01181
8330 2 6.03543 18.1063 0
8332 2 4.02362 18.1063 2.01181
8370 2 4.02362 20.1181 0
8372 2 6.03543 20.1181 2.01181
167 4 10.0591 20.1181 2.01181
8334 2 10.0591 18.1063 0
8335 2 8.04724 18.1063 2.01181
8374 2 8.04724 20.1181 0
135 4 12.0709 18.1063 2.01181
136 4 16.0945 18.1063 2.01181
169 4 14.0827 20.1181 2.01181
171 4 16.0945 20.1181 0
8336 2 14.0827 18.1063 0
8339 2 16.0945 18.1063 2.01181
8377 2 14.0827 20.1181 2.01181
8378 2 16.0945 20.1181 0
173 4 18.1063 20.1181 2.01181
175 4 20.1181 20.1181 0
8337 2 18.1063 18.1063 0
8342 2 20.1181 18.1063 2.01181
8380 2 18.1063 20.1181 2.01181
138 4 22.1299 18.1063 0
8383 2 22.1299 20.1181 2.01181
140 4 26.1535 18.1063 0
177 4 24.1417 20.1181 0
8343 2 26.1535 18.1063 0
8345 2 24.1417 18.1063 2.01181
8385 2 26.1535 20.1181 2.01181
141 4 30.1772 18.1063 0
142 4 28.1654 18.1063 2.01181
8346 2 28.1654 18.1063 2.01181
8386 2 28.1654 20.1181 0
144 4 32.189 18.1063 2.01181
8348 2 32.189 18.1063 2.01181
147 4 36.2126 18.1063 2.01181
180 4 36.2126 20.1181 0
8347 2 34.2008 18.1063 0
8350 2 36.2126 18.1063 2.01181
145 4 38.2244 18.1063 0
150 4 40.2362 18.1063 2.01181
183 4 40.2362 20.1181 0
8352 2 40.2362 18.1063 2.01181
8390 2 38.2244 20.1181 2.01181
8391 2 40.2362 20.1181 0
149 4 42.248 18.1063 0
8351 2 42.248 18.1063 0
8393 2 42.248 20.1181 2.01181
151 4 46.2717 18.1063 0
184 4 44.2598 20.1181 0
8355 2 44.2598 18.1063 2.01181
153 4 50.2953 18.1063 0
154 4 48.2835 18.1063 2.01181
186 4 50.2953 20.1181 2.01181
8358 2 48.2835 18.1063 2.01181
8395 2 48.2835 20.1181 0
8396 2 50.2953 20.1181 2.01181
157 4 52.3071 18.1063 2.01181
8360 2 52.3071 18.1063 2.01181
8398 2 52.3071 20.1181 0
188 4 54.3189 20.1181 2.01181
8399 2 54.3189 20.1181 2.01181
8401 2 56.3307 20.1181 0
159 4 60.3543 18.1063 2.01181
8361 2 58.3425 18.1063 0
8365 2 60.3543 18.1063 2.01181
192 4 62.3661 20.1181 2.01181
8363 2 62.3661 18.1063 0
161 4 2.01181 22.1299 0
163 4 0 22.1299 2.01181
8367 2 2.01181 22.1299 0
8369 2 0 22.1299 2.01181
8371 2 6.03543 22.1299 0
8373 2 4.02362 22.1299 2.01181
166 4 10.0591 22.1299 0
168 4 8.04724 22.1299 2.01181
8375 2 10.0591 22.1299 0
170 4 12.0709 22.1299 2.01181
174 4 16.0945 22.1299 2.01181
8376 2 14.0827 22.1299 0
8381 2 16.0945 22.1299 2.01181
172 4 18.1063 22.1299 0
176 4 20.1181 22.1299 2.01181
8379 2 18.1063 22.1299 0
8382 2 22.1299 22.1299 0
178 4 26.1535 22.1299 0
8384 2 26.1535 22.1299 0
179 4 30.1772 22.1299 0
8387 2 30.1772 22.1299 0
8388 2 32.189 22.1299 2.01181
182 4 36.2126 22.1299 2.01181
181 4 38.2244 22.1299 0
8389 2 38.2244 22.1299 0
8392 2 42.248 22.1299 0
185 4 44.2598 22.1299 2.01181
8394 2 44.2598 22.1299 2.01181
8397 2 48.2835 22.1299 2.01181
189 4 52.3071 22.1299 2.01181
8400 2 52.3071 22.1299 2.01181
187 4 54.3189 22.1299 0
190 4 58.3425 22.1299 0
8402 2 58.3425 22.1299 0
191 4 62.3661 22.1299 0
8403 2 62.3661 22.1299 0
193 4 2.01181 26.1535 0
194 4 2.01181 24.1417 2.01181
195 4 0 26.1535 2.01181
196 4 4.02362 24.1417 0
197 4 6.03543 26.1535 0
8404 2 4.02362 24.1417 0
8405 2 4.02362 26.1535 2.01181
198 4 8.04724 24.1417 0
199 4 10.0591 26.1535 0
200 4 10.0591 24.1417 2.01181
201 4 8.04724 26.1535 2.01181
8406 2 8.04724 24.1417 0
8407 2 10.0591 26.1535 0
202 4 12.0709 24.1417 0
8408 2 12.0709 24.1417 0
8409 2 12.0709 26.1535 2.01181
203 4 14.0827 26.1535 0
204 4 14.0827 24.1417 2.01181
8410 2 16.0945 24.1417 0
8412 2 16.0945 26.1535 2.01181
205 4 18.1063 26.1535 0
206 4 18.1063 24.1417 2.01181
208 4 20.1181 26.1535 2.01181
8411 2 18.1063 26.1535 0
8413 2 20.1181 24.1417 0
207 4 22.1299 26.1535 0
8414 2 22.1299 24.1417 2.01181
209 4 24.1417 24.1417 0
210 4 26.1535 26.1535 0
8415 2 26.1535 26.1535 0
8416 2 26.1535 24.1417 2.01181
211 4 30.1772 26.1535 0
8417 2 28.1654 24.1417 0
8418 2 30.1772 24.1417 2.01181
212 4 32.189 24.1417 0
215 4 32.189 26.1535 2.01181
8419 2 32.189 24.1417 0
213 4 34.2008 26.1535 0
214 4 34.2008 24.1417 2.01181
8420 2 34.2008 24.1417 2.01181
8421 2 36.2126 24.1417 0
216 4 38.2244 26.1535 0
217 4 38.2244 24.1417 2.01181
218 4 40.2362 24.1417 0
8422 2 38.2244 26.1535 0
8423 2 38.2244 24.1417 2.01181
8424 2 40.2362 24.1417 0
219 4 42.248 24.1417 2.01181
8425 2 42.248 26.1535 0
220 4 44.2598 24.1417 0
221 4 46.2717 26.1535 0
8426 2 46.2717 26.1535 0
8427 2 44.2598 26.1535 2.01181
222 4 50.2953 26.1535 0
223 4 50.2953 24.1417 2.01181
8428 2 48.2835 26.1535 2.01181
224 4 52.3071 24.1417 0
225 4 52.3071 26.1535 2.01181
226 4 56.3307 24.1417 0
228 4 56.3307 26.1535 2.01181
8429 2 54.3189 24.1417 2.01181
227 4 58.3425 26.1535 0
8430 2 58.3425 26.1535 0
229 4 62.3661 26.1535 0
230 4 0 28.1654 0
231 4 2.01181 30.1772 0
232 4 2.01181 28.1654 2.01181
233 4 0 30.1772 2.01181
8431 2 0 28.1654 0
8432 2 2.01181 30.1772 0
8433 2 2.01181 28.1654 2.01181
8434 2 0 30.1772 2.01181
234 4 6.03543 30.1772 0
235 4 6.03543 28.1654 2.01181
236 4 4.02362 30.1772 2.01181
8435 2 6.03543 30.1772 0
8436 2 6.03543 28.1654 2.01181
237 4 10.0591 28.1654 2.01181
238 4 8.04724 30.1772 2.01181
8437 2 8.04724 28.1654 0
8438 2 10.0591 30.1772 0
8439 2 10.0591 28.1654 2.01181
8440 2 8.04724 30.1772 2.01181
239 4 12.0709 28.1654 0
241 4 12.0709 30.1772 2.01181
240 4 14.0827 28.1654 2.01181
244 4 16.0945 30.1772 2.01181
242 4 18.1063 30.1772 0
243 4 18.1063 28.1654 2.01181
8441 2 18.1063 28.1654 2.01181
8442 2 22.1299 30.1772 0
8443 2 22.1299 28.1654 2.01181
245 4 24.1417 28.1654 0
246 4 26.1535 28.1654 2.01181
8444 2 26.1535 30.1772 0
8445 2 26.1535 28.1654 2.01181
247 4 30.1772 30.1772 0
248 4 30.1772 28.1654 2.01181
249 4 28.1654 30.1772 2.01181
8446 2 28.1654 28.1654 0
250 4 32.189 30.1772 2.01181
8447 2 32.189 28.1654 0
251 4 36.2126 28.1654 0
8448 2 34.2008 30.1772 0
8449 2 36.2126 28.1654 0
252 4 40.2362 28.1654 0
8450 2 38.2244 28.1654 2.01181
8451 2 40.2362 28.1654 0
253 4 42.248 28.1654 2.01181
8452 2 42.248 30.1772 0
8453 2 42.248 28.1654 2.01181
254 4 46.2717 30.1772 0
8454 2 44.2598 28.1654 0
8455 2 44.2598 30.1772 2.01181
255 4 50.2953 30.1772 0
256 4 50.2953 28.1654 2.01181
8456 2 48.2835 28.1654 0
8457 2 50.2953 30.1772 0
8458 2 48.2835 30.1772 2.01181
257 4 52.3071 30.1772 2.01181
8459 2 54.3189 30.1772 0
8461 2 56.3307 30.1772 2.01181
258 4 58.3425 30.1772 0
8460 2 58.3425 30.1772 0
259 4 62.3661 28.1654 2.01181
8462 2 62.3661 30.1772 0
260 4 0 32.189 0
8464 2 2.01181 32.189 2.01181
263 4 4.02362 32.189 0
265 4 6.03543 32.189 2.01181
8466 2 4.02362 32.189 0
267 4 8.04724 32.189 0
268 4 10.0591 32.189 2.01181
8467 2 8.04724 32.189 0
8469 2 10.0591 32.189 2.01181
269 4 12.0709 32.189 0
8470 2 12.0709 32.189 0
8471 2 18.1063 32.189 2.01181
274 4 22.1299 32.189 2.01181
276 4 26.1535 32.189 2.01181
8474 2 24.1417 32.189 0
278 4 28.1654 32.189 0
280 4 32.189 32.189 0
8475 2 32.189 32.189 0
281 4 34.2008 32.189 2.01181
282 4 36.2126 32.189 0
8477 2 34.2008 32.189 2.01181
8478 2 36.2126 32.189 0
284 4 38.2244 32.189 2.01181
8480 2 40.2362 32.189 0
8482 2 42.248 32.189 2.01181
286 4 44.2598 32.189 0
8484 2 46.2717 32.189 2.01181
289 4 50.2953 32.189 2.01181
8487 2 50.2953 32.189 2.01181
8489 2 54.3189 32.189 2.01181
8491 2 56.3307 32.189 0
291 4 58.3425 32.189 2.01181
292 4 62.3661 32.189 2.01181
8493 2 62.3661 32.189 2.01181
261 4 2.01181 34.2008 0
262 4 0 34.2008 2.01181
8463 2 2.01181 34.2008 0
8465 2 0 34.2008 2.01181
8495 2 0 36.2126 0
264 4 6.03543 34.2008 0
266 4 4.02362 34.2008 2.01181
295 4 4.02362 36.2126 0
8498 2 6.03543 36.2126 2.01181
297 4 10.0591 36.2126 2.01181
8468 2 10.0591 34.2008 0
8499 2 8.04724 36.2126 0
271 4 12.0709 34.2008 2.01181
270 4 14.0827 34.2008 0
272 4 16.0945 34.2008 2.01181
299 4 14.0827 36.2126 2.01181
301 4 16.0945 36.2126 0
8472 2 16.0945 34.2008 2.01181
8502 2 14.0827 36.2126 2.01181
8504 2 16.0945 36.2126 0
275 4 20.1181 34.2008 2.01181
302 4 18.1063 36.2126 2.01181
8506 2 18.1063 36.2126 2.01181
8508 2 20.1181 36.2126 0
273 4 22.1299 34.2008 0
8473 2 22.1299 34.2008 0
277 4 24.1417 34.2008 2.01181
306 4 26.1535 36.2126 2.01181
8510 2 24.1417 36.2126 0
279 4 28.1654 34.2008 2.01181
8513 2 28.1654 36.2126 0
308 4 32.189 36.2126 0
8476 2 34.2008 34.2008 0
8515 2 34.2008 36.2126 2.01181
283 4 38.2244 34.2008 0
285 4 40.2362 34.2008 2.01181
8479 2 38.2244 34.2008 0
8483 2 40.2362 34.2008 2.01181
8519 2 40.2362 36.2126 0
311 4 42.248 36.2126 2.01181
8481 2 42.248 34.2008 0
8520 2 42.248 36.2126 2.01181
287 4 46.2717 34.2008 0
8485 2 44.2598 34.2008 2.01181
288 4 50.2953 34.2008 0
290 4 48.2835 34.2008 2.01181
314 4 48.2835 36.2126 0
8486 2 50.2953 34.2008 0
8523 2 48.2835 36.2126 0
316 4 52.3071 36.2126 0
8490 2 52.3071 34.2008 2.01181
318 4 54.3189 36.2126 2.01181
320 4 56.3307 36.2126 0
8488 2 54.3189 34.2008 0
8525 2 56.3307 36.2126 0
293 4 60.3543 34.2008 2.01181
8492 2 58.3425 34.2008 0
8494 2 60.3543 34.2008 2.01181
8526 2 58.3425 36.2126 2.01181
294 4 2.01181 38.2244 0
323 4 2.01181 40.2362 2.01181
8496 2 2.01181 38.2244 0
8528 2 0 40.2362 0
296 4 6.03543 38.2244 0
324 4 4.02362 40.2362 0
325 4 6.03543 40.2362 2.01181
8497 2 6.03543 38.2244 0
326 4 10.0591 40.2362 2.01181
8500 2 8.04724 38.2244 2.01181
8532 2 8.04724 40.2362 0
300 4 12.0709 38.2244 2.01181
8503 2 12.0709 38.2244 2.01181
298 4 14.0827 38.2244 0
328 4 14.0827 40.2362 2.01181
329 4 16.0945 40.2362 0
8501 2 14.0827 38.2244 0
8507 2 16.0945 38.2244 2.01181
304 4 20.1181 38.2244 2.01181
332 4 20.1181 40.2362 0
8505 2 18.1063 38.2244 0
8536 2 18.1063 40.2362 2.01181
8537 2 20.1181 40.2362 0
303 4 22.1299 38.2244 0
8509 2 22.1299 38.2244 0
8538 2 22.1299 40.2362 2.01181
305 4 26.1535 38.2244 0
334 4 24.1417 40.2362 0
8511 2 26.1535 38.2244 0
8512 2 24.1417 38.2244 2.01181
8540 2 24.1417 40.2362 0
8542 2 26.1535 40.2362 2.01181
307 4 30.1772 38.2244 0
338 4 30.1772 40.2362 2.01181
8545 2 30.1772 40.2362 2.01181
339 4 32.189 40.2362 0
8516 2 32.189 38.2244 2.01181
8546 2 32.189 40.2362 0
309 4 34.2008 38.2244 0
341 4 34.2008 40.2362 2.01181
343 4 36.2126 40.2362 0
8514 2 34.2008 38.2244 0
8518 2 36.2126 38.2244 2.01181
8548 2 34.2008 40.2362 2.01181
312 4 40.2362 38.2244 2.01181
345 4 38.2244 40.2362 2.01181
346 4 40.2362 40.2362 0
8517 2 38.2244 38.2244 0
8521 2 40.2362 38.2244 2.01181
8550 2 38.2244 40.2362 2.01181
310 4 42.248 38.2244 0
8552 2 42.248 40.2362 2.01181
313 4 46.2717 38.2244 0
347 4 44.2598 40.2362 0
8522 2 46.2717 38.2244 0
315 4 50.2953 38.2244 0
348 4 48.2835 40.2362 0
349 4 50.2953 40.2362 2.01181
319 4 52.3071 38.2244 2.01181
8556 2 52.3071 40.2362 0
317 4 54.3189 38.2244 0
352 4 56.3307 40.2362 0
8524 2 54.3189 38.2244 0
8557 2 54.3189 40.2362 2.01181
354 4 58.3425 40.2362 2.01181
321 4 62.3661 38.2244 0
8527 2 62.3661 38.2244 0
322 4 2.01181 42.248 0
8529 2 0 42.248 2.01181
8530 2 6.03543 42.248 0
8531 2 4.02362 42.248 2.01181
327 4 8.04724 42.248 2.01181
8533 2 10.0591 42.248 0
331 4 16.0945 42.248 2.01181
8534 2 14.0827 42.248 0
330 4 18.1063 42.248 0
8535 2 18.1063 42.248 0
8539 2 20.1181 42.248 2.01181
333 4 22.1299 42.248 0
335 4 26.1535 42.248 0
336 4 24.1417 42.248 2.01181
8541 2 26.1535 42.248 0
8543 2 24.1417 42.248 2.01181
337 4 30.1772 42.248 0
8544 2 30.1772 42.248 0
342 4 32.189 42.248 2.01181
8549 2 32.189 42.248 2.01181
340 4 34.2008 42.248 0
8547 2 34.2008 42.248 0
8551 2 36.2126 42.248 2.01181
344 4 38.2244 42.248 0
8553 2 40.2362 42.248 2.01181
350 4 48.2835 42.248 2.01181
8554 2 50.2953 42.248 0
8555 2 48.2835 42.248 2.01181
351 4 54.3189 42.248 0
353 4 58.3425 42.248 0
356 4 60.3543 42.248 2.01181
8558 2 58.3425 42.248 0
8560 2 60.3543 42.248 2.01181
355 4 62.3661 42.248 0
8559 2 62.3661 42.248 0
357 4 0 44.2598 0
358 4 2.01181 46.2717 0
359 4 2.01181 44.2598 2.01181
360 4 0 46.2717 2.01181
8561 2 0 44.2598 0
8562 2 2.01181 44.2598 2.01181
361 4 4.02362 44.2598 0
362 4 4.02362 46.2717 2.01181
8563 2 4.02362 44.2598 0
8564 2 6.03543 44.2598 2.01181
363 4 8.04724 44.2598 0
364 4 10.0591 44.2598 2.01181
8565 2 8.04724 44.2598 0
8566 2 10.0591 44.2598 2.01181
8567 2 8.04724 46.2717 2.01181
365 4 12.0709 44.2598 0
367 4 12.0709 46.2717 2.01181
366 4 14.0827 44.2598 2.01181
8568 2 14.0827 46.2717 0
8569 2 14.0827 44.2598 2.01181
368 4 18.1063 44.2598 2.01181
371 4 20.1181 46.2717 2.01181
8570 2 18.1063 44.2598 2.01181
8572 2 20.1181 46.2717 2.01181
369 4 22.1299 46.2717 0
370 4 22.1299 44.2598 2.01181
8571 2 22.1299 46.2717 0
372 4 26.1535 44.2598 2.01181
373 4 24.1417 46.2717 2.01181
8573 2 26.1535 44.2598 2.01181
8574 2 24.1417 46.2717 2.01181
374 4 28.1654 44.2598 0
375 4 30.1772 46.2717 0
376 4 30.1772 44.2598 2.01181
377 4 28.1654 46.2717 2.01181
8575 2 28.1654 44.2598 0
8576 2 30.1772 44.2598 2.01181
8577 2 28.1654 46.2717 2.01181
378 4 32.189 44.2598 0
379 4 34.2008 44.2598 2.01181
380 4 36.2126 44.2598 0
8578 2 36.2126 44.2598 0
8579 2 36.2126 46.2717 2.01181
381 4 38.2244 44.2598 2.01181
382 4 42.248 46.2717 0
383 4 42.248 44.2598 2.01181
8580 2 42.248 46.2717 0
384 4 46.2717 46.2717 0
385 4 46.2717 44.2598 2.01181
8581 2 46.2717 44.2598 2.01181
386 4 48.2835 46.2717 2.01181
387 4 52.3071 44.2598 0
389 4 52.3071 46.2717 2.01181
388 4 54.3189 46.2717 0
390 4 56.3307 44.2598 0
8582 2 54.3189 44.2598 2.01181
8585 2 56.3307 46.2717 2.01181
391 4 58.3425 44.2598 2.01181
393 4 60.3543 46.2717 2.01181
8583 2 58.3425 46.2717 0
8584 2 58.3425 44.2598 2.01181
8587 2 60.3543 46.2717 2.01181
392 4 62.3661 46.2717 0
8586 2 62.3661 44.2598 2.01181
394 4 0 50.2953 2.01181
8588 2 2.01181 50.2953 0
8589 2 0 50.2953 2.01181
395 4 4.02362 48.2835 0
396 4 4.02362 50.2953 2.01181
8590 2 6.03543 50.2953 0
8591 2 6.03543 48.2835 2.01181
8592 2 4.02362 50.2953 2.01181
397 4 8.04724 48.2835 0
398 4 10.0591 50.2953 0
399 4 10.0591 48.2835 2.01181
400 4 8.04724 50.2953 2.01181
8593 2 8.04724 48.2835 0
8594 2 10.0591 50.2953 0
8595 2 10.0591 48.2835 2.01181
401 4 14.0827 48.2835 2.01181
402 4 16.0945 48.2835 0
404 4 16.0945 50.2953 2.01181
8596 2 14.0827 50.2953 0
403 4 18.1063 50.2953 0
405 4 20.1181 50.2953 2.01181
8597 2 18.1063 48.2835 2.01181
8598 2 20.1181 48.2835 0
8599 2 22.1299 48.2835 2.01181
406 4 24.1417 48.2835 0
8600 2 24.1417 48.2835 0
8601 2 26.1535 48.2835 2.01181
407 4 28.1654 48.2835 0
8602 2 28.1654 48.2835 0
8603 2 28.1654 50.2953 2.01181
8606 2 32.189 50.2953 2.01181
409 4 36.2126 50.2953 2.01181
8604 2 34.2008 50.2953 0
8605 2 34.2008 48.2835 2.01181
8607 2 36.2126 48.2835 0
8609 2 36.2126 50.2953 2.01181
408 4 38.2244 48.2835 2.01181
410 4 40.2362 48.2835 0
8608 2 38.2244 48.2835 2.01181
8610 2 40.2362 48.2835 0
8613 2 40.2362 50.2953 2.01181
411 4 42.248 50.2953 0
412 4 42.248 48.2835 2.01181
8611 2 42.248 50.2953 0
8612 2 42.248 48.2835 2.01181
413 4 44.2598 48.2835 0
414 4 46.2717 50.2953 0
415 4 46.2717 48.2835 2.01181
8614 2 44.2598 48.2835 0
8615 2 46.2717 48.2835 2.01181
416 4 50.2953 50.2953 0
417 4 48.2835 50.2953 2.01181
8616 2 48.2835 48.2835 0
8617 2 50.2953 48.2835 2.01181
418 4 52.3071 48.2835 0
8618 2 52.3071 48.2835 0
8620 2 52.3071 50.2953 2.01181
419 4 54.3189 48.2835 2.01181
420 4 56.3307 48.2835 0
8619 2 54.3189 50.2953 0
8621 2 56.3307 50.2953 2.01181
421 4 58.3425 50.2953 0
422 4 60.3543 48.2835 0
424 4 60.3543 50.2953 2.01181
8622 2 60.3543 48.2835 0
423 4 62.3661 50.2953 0
8623 2 0 52.3071 0
8624 2 2.01181 52.3071 2.01181
426 4 4.02362 52.3071 0
8625 2 6.03543 52.3071 2.01181
8627 2 8.04724 52.3071 0
8628 2 10.0591 52.3071 2.01181
429 4 12.0709 52.3071 0
432 4 16.0945 52.3071 0
8631 2 14.0827 52.3071 2.01181
435 4 20.1181 52.3071 0
8635 2 22.1299 52.3071 2.01181
436 4 24.1417 52.3071 0
438 4 26.1535 52.3071 2.01181
8636 2 24.1417 52.3071 0
440 4 30.1772 52.3071 2.01181
8638 2 30.1772 52.3071 2.01181
441 4 32.189 52.3071 0
443 4 38.2244 52.3071 2.01181
445 4 40.2362 52.3071 0
8641 2 38.2244 52.3071 2.01181
448 4 44.2598 52.3071 0
449 4 46.2717 52.3071 2.01181
8644 2 44.2598 52.3071 0
450 4 48.2835 52.3071 0
452 4 50.2953 52.3071 2.01181
8647 2 50.2953 52.3071 2.01181
454 4 52.3071 52.3071 0
8649 2 52.3071 52.3071 0
456 4 54.3189 52.3071 2.01181
8651 2 54.3189 52.3071 2.01181
8652 2 56.3307 52.3071 0
457 4 58.3425 52.3071 2.01181
459 4 60.3543 52.3071 0
8655 2 60.3543 52.3071 0
460 4 62.3661 52.3071 2.01181
8657 2 62.3661 52.3071 2.01181
425 4 0 54.3189 2.01181
8658 2 0 56.3307 0
8660 2 2.01181 56.3307 2.01181
427 4 4.02362 54.3189 2.01181
8626 2 4.02362 54.3189 2.01181
428 4 10.0591 54.3189 0
463 4 10.0591 56.3307 2.01181
8629 2 8.04724 54.3189 2.01181
8662 2 8.04724 56.3307 0
431 4 12.0709 54.3189 2.01181
464 4 12.0709 56.3307 0
8632 2 12.0709 54.3189 2.01181
8665 2 12.0709 56.3307 0
430 4 14.0827 54.3189 0
434 4 16.0945 54.3189 2.01181
465 4 16.0945 56.3307 0
8630 2 14.0827 54.3189 0
8634 2 16.0945 54.3189 2.01181
8667 2 14.0827 56.3307 2.01181
8668 2 16.0945 56.3307 0
433 4 18.1063 54.3189 0
467 4 20.1181 56.3307 0
8633 2 18.1063 54.3189 0
8669 2 20.1181 56.3307 0
468 4 22.1299 56.3307 2.01181
437 4 26.1535 54.3189 0
470 4 26.1535 56.3307 2.01181
8637 2 26.1535 54.3189 0
8671 2 24.1417 56.3307 0
439 4 30.1772 54.3189 0
471 4 28.1654 56.3307 0
473 4 30.1772 56.3307 2.01181
8639 2 28.1654 54.3189 2.01181
8673 2 30.1772 56.3307 2.01181
8640 2 32.189 54.3189 2.01181
8674 2 32.189 56.3307 0
444 4 36.2126 54.3189 2.01181
475 4 34.2008 56.3307 2.01181
8676 2 36.2126 56.3307 0
442 4 38.2244 54.3189 0
447 4 40.2362 54.3189 2.01181
477 4 38.2244 56.3307 2.01181
478 4 40.2362 56.3307 0
8643 2 40.2362 54.3189 2.01181
8677 2 38.2244 56.3307 2.01181
446 4 42.248 54.3189 0
479 4 42.248 56.3307 2.01181
8642 2 42.248 54.3189 0
8680 2 42.248 56.3307 2.01181
481 4 46.2717 56.3307 2.01181
8645 2 46.2717 54.3189 0
8646 2 44.2598 54.3189 2.01181
451 4 50.2953 54.3189 0
453 4 48.2835 54.3189 2.01181
483 4 48.2835 56.3307 0
484 4 50.2953 56.3307 2.01181
8648 2 48.2835 54.3189 2.01181
8684 2 52.3071 56.3307 0
455 4 54.3189 54.3189 0
458 4 56.3307 54.3189 2.01181
8650 2 54.3189 54.3189 0
8654 2 56.3307 54.3189 2.01181
8687 2 56.3307 56.3307 0
488 4 58.3425 56.3307 2.01181
489 4 60.3543 56.3307 0
8653 2 58.3425 54.3189 0
491 4 62.3661 56.3307 2.01181
8656 2 62.3661 54.3189 0
8659 2 2.01181 58.3425 0
8689 2 0 60.3543 0
461 4 6.03543 58.3425 0
493 4 4.02362 60.3543 0
8661 2 4.02362 58.3425 2.01181
8692 2 4.02362 60.3543 0
8693 2 6.03543 60.3543 2.01181
462 4 10.0591 58.3425 0
496 4 8.04724 60.3543 0
497 4 10.0591 60.3543 2.01181
8663 2 10.0591 58.3425 0
8664 2 8.04724 58.3425 2.01181
8697 2 12.0709 60.3543 0
466 4 16.0945 58.3425 2.01181
8666 2 14.0827 58.3425 0
8698 2 14.0827 60.3543 2.01181
8699 2 16.0945 60.3543 0
469 4 20.1181 58.3425 2.01181
8701 2 18.1063 60.3543 2.01181
8703 2 20.1181 60.3543 0
500 4 22.1299 60.3543 2.01181
8670 2 22.1299 58.3425 0
502 4 24.1417 60.3543 0
8672 2 24.1417 58.3425 2.01181
8705 2 26.1535 60.3543 2.01181
472 4 30.1772 58.3425 0
474 4 28.1654 58.3425 2.01181
503 4 28.1654 60.3543 0
505 4 30.1772 60.3543 2.01181
8707 2 28.1654 60.3543 0
8708 2 30.1772 60.3543 2.01181
507 4 34.2008 60.3543 2.01181
509 4 36.2126 60.3543 0
8675 2 34.2008 58.3425 0
8678 2 36.2126 58.3425 2.01181
8712 2 36.2126 60.3543 0
476 4 38.2244 58.3425 0
511 4 38.2244 60.3543 2.01181
512 4 40.2362 60.3543 0
8681 2 40.2362 58.3425 2.01181
8713 2 38.2244 60.3543 2.01181
8715 2 40.2362 60.3543 0
8679 2 42.248 58.3425 0
8717 2 42.248 60.3543 2.01181
480 4 46.2717 58.3425 0
482 4 44.2598 58.3425 2.01181
513 4 44.2598 60.3543 0
514 4 46.2717 60.3543 2.01181
8682 2 44.2598 58.3425 2.01181
8719 2 44.2598 60.3543 0
515 4 50.2953 60.3543 2.01181
8683 2 48.2835 58.3425 2.01181
8721 2 50.2953 60.3543 2.01181
486 4 52.3071 58.3425 2.01181
517 4 52.3071 60.3543 0
8686 2 52.3071 58.3425 2.01181
8722 2 52.3071 60.3543 0
485 4 54.3189 58.3425 0
518 4 54.3189 60.3543 2.01181
8685 2 54.3189 58.3425 0
8724 2 54.3189 60.3543 2.01181
487 4 58.3425 58.3425 0
8688 2 58.3425 58.3425 0
8727 2 58.3425 60.3543 2.01181
490 4 62.3661 58.3425 0
521 4 62.3661 60.3543 2.01181
8729 2 62.3661 60.3543 2.01181
492 4 2.01181 62.3661 0
8690 2 2.01181 62.3661 0
8691 2 0 62.3661 2.01181
494 4 6.03543 62.3661 0
495 4 4.02362 62.3661 2.01181
8694 2 4.02362 62.3661 2.01181
8695 2 10.0591 62.3661 0
8696 2 8.04724 62.3661 2.01181
498 4 14.0827 62.3661 0
8702 2 16.0945 62.3661 2.01181
501 4 20.1181 62.3661 2.01181
8700 2 18.1063 62.3661 0
499 4 22.1299 62.3661 0
8704 2 26.1535 62.3661 0
8706 2 24.1417 62.3661 2.01181
504 4 30.1772 62.3661 0
8709 2 28.1654 62.3661 2.01181
508 4 32.189 62.3661 2.01181
8711 2 32.189 62.3661 2.01181
506 4 34.2008 62.3661 0
8710 2 34.2008 62.3661 0
8714 2 36.2126 62.3661 2.01181
510 4 38.2244 62.3661 0
8718 2 40.2362 62.3661 2.01181
8716 2 42.248 62.3661 0
8720 2 46.2717 62.3661 0
516 4 48.2835 62.3661 2.01181
519 4 52.3071 62.3661 2.01181
8725 2 52.3071 62.3661 2.01181
8723 2 54.3189 62.3661 0
8726 2 58.3425 62.3661 0
520 4 62.3661 62.3661 0
8728 2 62.3661 62.3661 0
8730 2 2.01181 2.01181 4.02362
8731 2 0 2.01181 6.03543
522 4 6.03543 0 6.03543
523 4 4.02362 2.01181 6.03543
8732 2 6.03543 2.01181 4.02362
8733 2 6.03543 0 6.03543
8734 2 4.02362 2.01181 6.03543
524 4 10.0591 0 6.03543
8735 2 8.04724 0 4.02362
8736 2 10.0591 0 6.03543
8737 2 8.04724 2.01181 6.03543
527 4 12.0709 2.01181 6.03543
8739 2 12.0709 2.01181 6.03543
525 4 14.0827 2.01181 4.02362
526 4 14.0827 0 6.03543
528 4 16.0945 0 4.02362
8738 2 14.0827 0 6.03543
8740 2 16.0945 0 4.02362
8741 2 16.0945 2.01181 6.03543
529 4 18.1063 0 6.03543
531 4 20.1181 2.01181 6.03543
8742 2 20.1181 2.01181 6.03543
530 4 22.1299 0 6.03543
532 4 26.1535 2.01181 4.02362
533 4 26.1535 0 6.03543
8743 2 24.1417 0 4.02362
8744 2 26.1535 2.01181 4.02362
8745 2 24.1417 2.01181 6.03543
534 4 28.1654 0 4.02362
535 4 28.1654 2.01181 6.03543
8746 2 28.1654 0 4.02362
8747 2 30.1772 0 6.03543
536 4 32.189 0 4.02362
539 4 32.189 2.01181 6.03543
8748 2 32.189 0 4.02362
8749 2 32.189 2.01181 6.03543
537 4 34.2008 2.01181 4.02362
538 4 34.2008 0 6.03543
8752 2 36.2126 2.01181 6.03543
540 4 40.2362 0 4.02362
8750 2 38.2244 2.01181 4.02362
8751 2 38.2244 0 6.03543
8753 2 40.2362 2.01181 6.03543
541 4 44.2598 0 4.02362
542 4 46.2717 2.01181 4.02362
8754 2 46.2717 2.01181 4.02362
8755 2 46.2717 0 6.03543
543 4 50.2953 2.01181 4.02362
544 4 50.2953 0 6.03543
545 4 48.2835 2.01181 6.03543