ITEM: TIMESTEP
0
ITEM: NUMBER OF ATOMS
16384
ITEM: BOX BOUNDS pp pp pp
0.0000000000000000e+00 4.1472414885279399e+01
0.0000000000000000e+00 4.1472414885279399e+01
0.0000000000000000e+00 4.1472414885279399e+01
ITEM: ATOMS id type x y z
1 4 0 0 0
2 4 1.3063 1.3063 0
5 4 2.6126 1.3063 1.3063
32 4 1.3063 2.6126 1.3063
8193 2 0 0 0
8194 2 1.3063 1.3063 0
8195 2 1.3063 0 1.3063
8196 2 0 1.3063 1.3063
8226 2 0 2.6126 0
8730 2 1.3063 1.3063 2.6126
8760 2 2.6126 2.6126 2.6126
3 4 3.9189 1.3063 0
4 4 3.9189 0 1.3063
6 4 6.5315 0 1.3063
7 4 5.2252 1.3063 1.3063
34 4 3.9189 2.6126 1.3063
36 4 5.2252 2.6126 0
38 4 6.5315 2.6126 1.3063
558 4 5.2252 2.6126 2.6126
8197 2 3.9189 0 1.3063
8198 2 5.2252 0 0
8199 2 6.5315 1.3063 0
8228 2 3.9189 2.6126 1.3063
8229 2 5.2252 2.6126 0
8732 2 3.9189 1.3063 2.6126
8735 2 5.2252 0 2.6126
8 4 9.14409 1.3063 0
9 4 9.14409 0 1.3063
10 4 7.8378 1.3063 1.3063
41 4 9.14409 2.6126 1.3063
525 4 9.14409 1.3063 2.6126
561 4 7.8378 2.6126 2.6126
8200 2 9.14409 1.3063 0
11 4 10.4504 0 0
12 4 10.4504 1.3063 1.3063
43 4 10.4504 2.6126 0
528 4 10.4504 0 2.6126
565 4 13.063 2.6126 2.6126
8201 2 11.7567 0 1.3063
8203 2 13.063 1.3063 1.3063
8231 2 10.4504 2.6126 0
8232 2 11.7567 2.6126 1.3063
8740 2 10.4504 0 2.6126
13 4 15.6756 0 0
46 4 14.3693 2.6126 1.3063
48 4 15.6756 2.6126 0
50 4 16.9819 2.6126 1.3063
532 4 16.9819 1.3063 2.6126
568 4 15.6756 2.6126 2.6126
8202 2 14.3693 0 1.3063
8204 2 15.6756 0 0
8205 2 16.9819 1.3063 0
8206 2 15.6756 1.3063 1.3063
8235 2 16.9819 2.6126 1.3063
8743 2 15.6756 0 2.6126
8744 2 16.9819 1.3063 2.6126
8770 2 15.6756 2.6126 2.6126
14 4 18.2882 0 0
15 4 19.5945 0 1.3063
16 4 18.2882 1.3063 1.3063
534 4 18.2882 0 2.6126
8207 2 18.2882 0 0
8208 2 19.5945 0 1.3063
8236 2 18.2882 2.6126 0
8746 2 18.2882 0 2.6126
8773 2 18.2882 2.6126 2.6126
17 4 20.9008 0 0
18 4 22.2071 1.3063 0
19 4 22.2071 0 1.3063
53 4 20.9008 2.6126 0
55 4 22.2071 2.6126 1.3063
57 4 23.5134 2.6126 0
536 4 20.9008 0 2.6126
537 4 22.2071 1.3063 2.6126
571 4 20.9008 2.6126 2.6126
575 4 23.5134 2.6126 2.6126
8209 2 22.2071 1.3063 0
8212 2 23.5134 1.3063 1.3063
8238 2 20.9008 2.6126 0
8748 2 20.9008 0 2.6126
8778 2 23.5134 2.6126 2.6126
20 4 24.8197 1.3063 0
21 4 24.8197 0 1.3063
22 4 27.4323 1.3063 0
60 4 27.4323 2.6126 1.3063
540 4 26.126 0 2.6126
8210 2 24.8197 1.3063 0
8211 2 24.8197 0 1.3063
8213 2 26.126 0 0
8214 2 27.4323 0 1.3063
8215 2 26.126 1.3063 1.3063
8240 2 24.8197 2.6126 1.3063
8242 2 27.4323 2.6126 1.3063
8750 2 24.8197 1.3063 2.6126
23 4 28.7386 0 0
24 4 30.0449 1.3063 0
62 4 30.0449 2.6126 1.3063
541 4 28.7386 0 2.6126
542 4 30.0449 1.3063 2.6126
8216 2 30.0449 1.3063 0
8217 2 28.7386 1.3063 1.3063
8243 2 28.7386 2.6126 0
8754 2 30.0449 1.3063 2.6126
25 4 32.6575 1.3063 0
63 4 31.3512 2.6126 0
65 4 32.6575 2.6126 1.3063
543 4 32.6575 1.3063 2.6126
546 4 33.9638 0 2.6126
583 4 33.9638 2.6126 2.6126
8218 2 31.3512 0 0
8219 2 32.6575 1.3063 0
8220 2 31.3512 1.3063 1.3063
8221 2 33.9638 0 0
8223 2 33.9638 1.3063 1.3063
8245 2 31.3512 2.6126 0
8246 2 32.6575 2.6126 1.3063
8247 2 33.9638 2.6126 0
8757 2 33.9638 0 2.6126
8783 2 31.3512 2.6126 2.6126
26 4 35.2701 1.3063 0
27 4 36.5764 0 0
28 4 37.8827 0 1.3063
29 4 36.5764 1.3063 1.3063
67 4 35.2701 2.6126 1.3063
68 4 36.5764 2.6126 0
547 4 35.2701 1.3063 2.6126
8222 2 35.2701 0 1.3063
8224 2 37.8827 0 1.3063
8249 2 35.2701 2.6126 1.3063
8251 2 36.5764 2.6126 0
8787 2 36.5764 2.6126 2.6126
30 4 39.189 0 0
31 4 40.4953 1.3063 0
70 4 39.189 2.6126 0
551 4 39.189 0 2.6126
8225 2 39.189 0 0
8252 2 39.189 2.6126 0
8254 2 40.4953 2.6126 1.3063
8759 2 40.4953 1.3063 2.6126
33 4 0 3.9189 1.3063
35 4 2.6126 3.9189 1.3063
73 4 1.3063 5.2252 1.3063
75 4 2.6126 6.5315 1.3063
553 4 1.3063 3.9189 2.6126
587 4 0 5.2252 2.6126
588 4 1.3063 6.5315 2.6126
8227 2 1.3063 3.9189 0
8256 2 1.3063 5.2252 1.3063
8257 2 0 6.5315 1.3063
8258 2 2.6126 5.2252 0
8790 2 0 5.2252 2.6126
8793 2 2.6126 5.2252 2.6126
37 4 6.5315 3.9189 0
39 4 5.2252 3.9189 1.3063
74 4 3.9189 5.2252 1.3063
555 4 3.9189 3.9189 2.6126
590 4 3.9189 6.5315 2.6126
8230 2 6.5315 3.9189 0
8259 2 3.9189 6.5315 0
8260 2 5.2252 5.2252 0
8261 2 6.5315 5.2252 1.3063
8262 2 5.2252 6.5315 1.3063
8761 2 3.9189 3.9189 2.6126
8762 2 6.5315 3.9189 2.6126
8794 2 3.9189 6.5315 2.6126
40 4 9.14409 3.9189 0
42 4 7.8378 3.9189 1.3063
76 4 7.8378 5.2252 0
77 4 9.14409 5.2252 1.3063
562 4 9.14409 3.9189 2.6126
8263 2 7.8378 5.2252 0
8264 2 7.8378 6.5315 1.3063
8798 2 9.14409 6.5315 2.6126
44 4 11.7567 3.9189 0
45 4 10.4504 3.9189 1.3063
47 4 13.063 3.9189 1.3063
78 4 11.7567 5.2252 1.3063
563 4 11.7567 3.9189 2.6126
592 4 10.4504 5.2252 2.6126
594 4 13.063 5.2252 2.6126
8265 2 10.4504 5.2252 0
8266 2 11.7567 6.5315 0
8267 2 11.7567 5.2252 1.3063
8268 2 13.063 5.2252 0
8765 2 11.7567 3.9189 2.6126
49 4 16.9819 3.9189 0
51 4 15.6756 3.9189 1.3063
79 4 14.3693 6.5315 0
80 4 14.3693 5.2252 1.3063
81 4 15.6756 5.2252 0
82 4 16.9819 5.2252 1.3063
566 4 14.3693 3.9189 2.6126
569 4 16.9819 3.9189 2.6126
595 4 14.3693 6.5315 2.6126
596 4 15.6756 5.2252 2.6126
8233 2 14.3693 3.9189 0
8234 2 16.9819 3.9189 0
8269 2 14.3693 6.5315 0
8270 2 14.3693 5.2252 1.3063
8271 2 16.9819 6.5315 0
8272 2 15.6756 6.5315 1.3063
8768 2 14.3693 3.9189 2.6126
8771 2 16.9819 3.9189 2.6126
8801 2 14.3693 6.5315 2.6126
52 4 18.2882 3.9189 1.3063
83 4 18.2882 6.5315 1.3063
598 4 18.2882 5.2252 2.6126
599 4 19.5945 6.5315 2.6126
8237 2 18.2882 3.9189 1.3063
8273 2 18.2882 6.5315 1.3063
8804 2 18.2882 5.2252 2.6126
54 4 22.2071 3.9189 0
56 4 20.9008 3.9189 1.3063
59 4 23.5134 3.9189 1.3063
84 4 22.2071 5.2252 1.3063
86 4 23.5134 6.5315 1.3063
572 4 22.2071 3.9189 2.6126
601 4 22.2071 6.5315 2.6126
603 4 23.5134 5.2252 2.6126
8239 2 22.2071 3.9189 0
8241 2 23.5134 3.9189 1.3063
8274 2 20.9008 5.2252 0
8275 2 22.2071 6.5315 0
8276 2 20.9008 6.5315 1.3063
8277 2 23.5134 5.2252 0
8280 2 23.5134 6.5315 1.3063
8776 2 22.2071 3.9189 2.6126
8805 2 22.2071 6.5315 2.6126
58 4 24.8197 3.9189 0
61 4 26.126 3.9189 1.3063
85 4 24.8197 6.5315 0
87 4 27.4323 5.2252 1.3063
88 4 26.126 6.5315 1.3063
576 4 24.8197 3.9189 2.6126
8278 2 24.8197 6.5315 0
8279 2 24.8197 5.2252 1.3063
8281 2 26.126 5.2252 0
8282 2 27.4323 6.5315 0
8283 2 27.4323 5.2252 1.3063
8809 2 27.4323 6.5315 2.6126
89 4 30.0449 5.2252 1.3063
90 4 28.7386 6.5315 1.3063
579 4 30.0449 3.9189 2.6126
604 4 28.7386 5.2252 2.6126
8244 2 30.0449 3.9189 0
8284 2 30.0449 6.5315 0
8812 2 28.7386 5.2252 2.6126
8813 2 30.0449 6.5315 2.6126
64 4 32.6575 3.9189 0
91 4 32.6575 6.5315 0
92 4 31.3512 6.5315 1.3063
93 4 33.9638 6.5315 1.3063
582 4 32.6575 3.9189 2.6126
8250 2 33.9638 3.9189 1.3063
8285 2 31.3512 5.2252 0
8288 2 33.9638 6.5315 1.3063
8784 2 32.6575 3.9189 2.6126
8816 2 31.3512 5.2252 2.6126
8817 2 32.6575 6.5315 2.6126
66 4 35.2701 3.9189 0
69 4 37.8827 3.9189 0
94 4 36.5764 5.2252 0
584 4 35.2701 3.9189 2.6126
8248 2 35.2701 3.9189 0
8286 2 35.2701 6.5315 0
8287 2 35.2701 5.2252 1.3063
8289 2 36.5764 5.2252 0
8290 2 37.8827 6.5315 0
8291 2 36.5764 6.5315 1.3063
71 4 40.4953 3.9189 0
72 4 39.189 3.9189 1.3063
95 4 39.189 5.2252 0
96 4 40.4953 6.5315 0
97 4 39.189 6.5315 1.3063
586 4 40.4953 3.9189 2.6126
609 4 39.189 5.2252 2.6126
610 4 40.4953 6.5315 2.6126
8253 2 40.4953 3.9189 0
8255 2 39.189 3.9189 1.3063
8292 2 39.189 5.2252 0
8293 2 40.4953 6.5315 0
8294 2 39.189 6.5315 1.3063
8789 2 40.4953 3.9189 2.6126
8822 2 40.4953 6.5315 2.6126
98 4 1.3063 9.14409 0
99 4 1.3063 7.8378 1.3063
100 4 0 9.14409 1.3063
101 4 2.6126 7.8378 0
8295 2 0 7.8378 0
8296 2 2.6126 7.8378 0
8824 2 0 7.8378 2.6126
8825 2 1.3063 9.14409 2.6126
8826 2 2.6126 7.8378 2.6126
102 4 3.9189 9.14409 0
103 4 3.9189 7.8378 1.3063
104 4 5.2252 7.8378 0
105 4 6.5315 7.8378 1.3063
612 4 3.9189 9.14409 2.6126
613 4 5.2252 7.8378 2.6126
614 4 6.5315 9.14409 2.6126
8297 2 3.9189 9.14409 0
8298 2 3.9189 7.8378 1.3063
8299 2 5.2252 7.8378 0
8300 2 6.5315 9.14409 0
8827 2 5.2252 7.8378 2.6126
8828 2 6.5315 9.14409 2.6126
106 4 9.14409 9.14409 0
107 4 9.14409 7.8378 1.3063
616 4 9.14409 9.14409 2.6126
8301 2 7.8378 7.8378 0
8302 2 9.14409 9.14409 0
8303 2 7.8378 9.14409 1.3063
8829 2 9.14409 9.14409 2.6126
108 4 13.063 7.8378 0
618 4 13.063 7.8378 2.6126
8304 2 11.7567 9.14409 0
8305 2 11.7567 7.8378 1.3063
8831 2 10.4504 7.8378 2.6126
109 4 14.3693 9.14409 0
110 4 14.3693 7.8378 1.3063
111 4 15.6756 7.8378 0
112 4 16.9819 7.8378 1.3063
113 4 15.6756 9.14409 1.3063
620 4 16.9819 9.14409 2.6126
8306 2 14.3693 9.14409 0
8307 2 16.9819 9.14409 0
8308 2 15.6756 9.14409 1.3063
8833 2 16.9819 9.14409 2.6126
114 4 18.2882 7.8378 0
115 4 19.5945 9.14409 0
116 4 19.5945 7.8378 1.3063
117 4 18.2882 9.14409 1.3063
621 4 19.5945 9.14409 2.6126
8309 2 18.2882 7.8378 0
8310 2 19.5945 7.8378 1.3063
8311 2 18.2882 9.14409 1.3063
8834 2 19.5945 9.14409 2.6126
118 4 20.9008 9.14409 1.3063
119 4 23.5134 7.8378 0
122 4 23.5134 9.14409 1.3063
623 4 20.9008 7.8378 2.6126
624 4 22.2071 9.14409 2.6126
626 4 23.5134 7.8378 2.6126
8312 2 20.9008 7.8378 0
8313 2 22.2071 9.14409 0
8314 2 23.5134 7.8378 0
8835 2 20.9008 7.8378 2.6126
8836 2 22.2071 9.14409 2.6126
120 4 24.8197 9.14409 0
121 4 24.8197 7.8378 1.3063
123 4 26.126 7.8378 0
124 4 27.4323 7.8378 1.3063
628 4 26.126 7.8378 2.6126
629 4 27.4323 9.14409 2.6126
8315 2 24.8197 7.8378 1.3063
8316 2 26.126 7.8378 0
8838 2 24.8197 9.14409 2.6126
8839 2 26.126 7.8378 2.6126
8840 2 27.4323 9.14409 2.6126
8317 2 28.7386 7.8378 0
8318 2 28.7386 9.14409 1.3063
8843 2 30.0449 9.14409 2.6126
125 4 32.6575 9.14409 0
126 4 32.6575 7.8378 1.3063
127 4 31.3512 9.14409 1.3063
128 4 33.9638 7.8378 0
633 4 31.3512 7.8378 2.6126
8320 2 33.9638 9.14409 1.3063
129 4 35.2701 7.8378 1.3063
130 4 36.5764 7.8378 0
635 4 37.8827 9.14409 2.6126
8319 2 35.2701 7.8378 1.3063
8321 2 36.5764 7.8378 0
8322 2 36.5764 9.14409 1.3063
8847 2 36.5764 7.8378 2.6126
8848 2 37.8827 9.14409 2.6126
131 4 40.4953 9.14409 0
637 4 39.189 7.8378 2.6126
8323 2 39.189 7.8378 0
8324 2 40.4953 9.14409 0
8325 2 39.189 9.14409 1.3063
8851 2 40.4953 9.14409 2.6126
132 4 1.3063 11.7567 0
160 4 0 13.063 0
162 4 1.3063 13.063 1.3063
164 4 2.6126 13.063 0
640 4 1.3063 11.7567 2.6126
672 4 0 13.063 2.6126
675 4 2.6126 13.063 2.6126
8326 2 1.3063 11.7567 0
8327 2 1.3063 10.4504 1.3063
8328 2 0 11.7567 1.3063
8329 2 2.6126 10.4504 0
8332 2 2.6126 11.7567 1.3063
8366 2 0 13.063 0
8368 2 1.3063 13.063 1.3063
8370 2 2.6126 13.063 0
8852 2 0 10.4504 2.6126
8853 2 1.3063 11.7567 2.6126
8856 2 2.6126 10.4504 2.6126
8880 2 0 13.063 2.6126
8883 2 2.6126 13.063 2.6126
133 4 3.9189 11.7567 0
134 4 6.5315 10.4504 1.3063
165 4 3.9189 13.063 1.3063
167 4 6.5315 13.063 1.3063
679 4 5.2252 13.063 2.6126
8330 2 3.9189 11.7567 0
8331 2 3.9189 10.4504 1.3063
8333 2 5.2252 10.4504 0
8334 2 6.5315 11.7567 0
8335 2 5.2252 11.7567 1.3063
8372 2 3.9189 13.063 1.3063
8374 2 5.2252 13.063 0
8857 2 3.9189 11.7567 2.6126
8860 2 6.5315 11.7567 2.6126
8886 2 5.2252 13.063 2.6126
135 4 7.8378 11.7567 1.3063
169 4 9.14409 13.063 1.3063
682 4 7.8378 13.063 2.6126
8336 2 9.14409 11.7567 0
8377 2 9.14409 13.063 1.3063
136 4 10.4504 11.7567 1.3063
137 4 13.063 10.4504 0
171 4 10.4504 13.063 0
173 4 11.7567 13.063 1.3063
175 4 13.063 13.063 0
685 4 10.4504 13.063 2.6126
688 4 13.063 13.063 2.6126
8337 2 11.7567 11.7567 0
8338 2 11.7567 10.4504 1.3063
8339 2 10.4504 11.7567 1.3063
8340 2 13.063 10.4504 0
8342 2 13.063 11.7567 1.3063
8378 2 10.4504 13.063 0
8380 2 11.7567 13.063 1.3063
8863 2 11.7567 11.7567 2.6126
8864 2 13.063 10.4504 2.6126
8890 2 10.4504 13.063 2.6126
138 4 14.3693 11.7567 0
139 4 15.6756 10.4504 0
140 4 16.9819 11.7567 0
177 4 15.6756 13.063 0
8341 2 14.3693 10.4504 1.3063
8343 2 16.9819 11.7567 0
8344 2 16.9819 10.4504 1.3063
8345 2 15.6756 11.7567 1.3063
8383 2 14.3693 13.063 1.3063
8385 2 16.9819 13.063 1.3063
8866 2 15.6756 10.4504 2.6126
8867 2 16.9819 11.7567 2.6126
8894 2 15.6756 13.063 2.6126
141 4 19.5945 11.7567 0
142 4 18.2882 11.7567 1.3063
652 4 19.5945 11.7567 2.6126
8346 2 18.2882 11.7567 1.3063
8386 2 18.2882 13.063 0
8868 2 18.2882 10.4504 2.6126
8869 2 19.5945 11.7567 2.6126
8897 2 18.2882 13.063 2.6126
143 4 22.2071 10.4504 1.3063
144 4 20.9008 11.7567 1.3063
147 4 23.5134 11.7567 1.3063
180 4 23.5134 13.063 0
654 4 20.9008 10.4504 2.6126
655 4 22.2071 11.7567 2.6126
657 4 23.5134 10.4504 2.6126
8347 2 22.2071 11.7567 0
8348 2 20.9008 11.7567 1.3063
8350 2 23.5134 11.7567 1.3063
8870 2 22.2071 11.7567 2.6126
145 4 24.8197 11.7567 0
146 4 24.8197 10.4504 1.3063
148 4 26.126 10.4504 0
149 4 27.4323 11.7567 0
150 4 26.126 11.7567 1.3063
183 4 26.126 13.063 0
658 4 24.8197 11.7567 2.6126
659 4 27.4323 11.7567 2.6126
8349 2 24.8197 10.4504 1.3063
8351 2 27.4323 11.7567 0
8352 2 26.126 11.7567 1.3063
8390 2 24.8197 13.063 1.3063
8391 2 26.126 13.063 0
8393 2 27.4323 13.063 1.3063
8871 2 24.8197 11.7567 2.6126
8874 2 27.4323 11.7567 2.6126
8902 2 26.126 13.063 2.6126
151 4 30.0449 11.7567 0
184 4 28.7386 13.063 0
660 4 28.7386 10.4504 2.6126
661 4 30.0449 11.7567 2.6126
698 4 28.7386 13.063 2.6126
8353 2 28.7386 10.4504 0
8354 2 30.0449 10.4504 1.3063
8355 2 28.7386 11.7567 1.3063
152 4 31.3512 10.4504 0
153 4 32.6575 11.7567 0
154 4 31.3512 11.7567 1.3063
155 4 33.9638 10.4504 0
157 4 33.9638 11.7567 1.3063
186 4 32.6575 13.063 1.3063
662 4 31.3512 10.4504 2.6126
663 4 32.6575 11.7567 2.6126
664 4 33.9638 10.4504 2.6126
701 4 31.3512 13.063 2.6126
702 4 33.9638 13.063 2.6126
8356 2 31.3512 10.4504 0
8357 2 32.6575 10.4504 1.3063
8358 2 31.3512 11.7567 1.3063
8360 2 33.9638 11.7567 1.3063
8395 2 31.3512 13.063 0
8396 2 32.6575 13.063 1.3063
8398 2 33.9638 13.063 0
8878 2 33.9638 10.4504 2.6126
8906 2 31.3512 13.063 2.6126
8909 2 33.9638 13.063 2.6126
156 4 35.2701 10.4504 1.3063
158 4 36.5764 10.4504 0
188 4 35.2701 13.063 1.3063
667 4 36.5764 10.4504 2.6126
668 4 37.8827 11.7567 2.6126
705 4 36.5764 13.063 2.6126
8359 2 35.2701 10.4504 1.3063
8361 2 37.8827 11.7567 0
8399 2 35.2701 13.063 1.3063
8401 2 36.5764 13.063 0
159 4 39.189 11.7567 1.3063
192 4 40.4953 13.063 1.3063
709 4 39.189 13.063 2.6126
8362 2 39.189 10.4504 0
8363 2 40.4953 11.7567 0
8364 2 40.4953 10.4504 1.3063
8365 2 39.189 11.7567 1.3063
8916 2 39.189 13.063 2.6126
161 4 1.3063 14.3693 0
163 4 0 14.3693 1.3063
193 4 1.3063 16.9819 0
194 4 1.3063 15.6756 1.3063
195 4 0 16.9819 1.3063
196 4 2.6126 15.6756 0
711 4 0 15.6756 2.6126
712 4 1.3063 16.9819 2.6126
713 4 2.6126 15.6756 2.6126
8367 2 1.3063 14.3693 0
8369 2 0 14.3693 1.3063
8373 2 2.6126 14.3693 1.3063
8404 2 2.6126 15.6756 0
8405 2 2.6126 16.9819 1.3063
8918 2 0 15.6756 2.6126
8919 2 1.3063 16.9819 2.6126
8920 2 2.6126 15.6756 2.6126
166 4 6.5315 14.3693 0
168 4 5.2252 14.3693 1.3063
197 4 3.9189 16.9819 0
198 4 5.2252 15.6756 0
199 4 6.5315 16.9819 0
200 4 6.5315 15.6756 1.3063
201 4 5.2252 16.9819 1.3063
676 4 3.9189 14.3693 2.6126
680 4 6.5315 14.3693 2.6126
715 4 6.5315 16.9819 2.6126
8371 2 3.9189 14.3693 0
8375 2 6.5315 14.3693 0
8406 2 5.2252 15.6756 0
8407 2 6.5315 16.9819 0
8884 2 3.9189 14.3693 2.6126
8887 2 6.5315 14.3693 2.6126
8921 2 3.9189 16.9819 2.6126
8923 2 5.2252 15.6756 2.6126
8924 2 6.5315 16.9819 2.6126
170 4 7.8378 14.3693 1.3063
202 4 7.8378 15.6756 0
203 4 9.14409 16.9819 0
204 4 9.14409 15.6756 1.3063
683 4 9.14409 14.3693 2.6126
718 4 7.8378 15.6756 2.6126
719 4 9.14409 16.9819 2.6126
8376 2 9.14409 14.3693 0
8408 2 7.8378 15.6756 0
8409 2 7.8378 16.9819 1.3063
8888 2 9.14409 14.3693 2.6126
8926 2 7.8378 15.6756 2.6126
8927 2 9.14409 16.9819 2.6126
172 4 11.7567 14.3693 0
174 4 10.4504 14.3693 1.3063
176 4 13.063 14.3693 1.3063
205 4 11.7567 16.9819 0
206 4 11.7567 15.6756 1.3063
208 4 13.063 16.9819 1.3063
686 4 11.7567 14.3693 2.6126
721 4 10.4504 15.6756 2.6126
8379 2 11.7567 14.3693 0
8381 2 10.4504 14.3693 1.3063
8410 2 10.4504 15.6756 0
8411 2 11.7567 16.9819 0
8412 2 10.4504 16.9819 1.3063
8413 2 13.063 15.6756 0
8891 2 11.7567 14.3693 2.6126
8928 2 10.4504 15.6756 2.6126
178 4 16.9819 14.3693 0
207 4 14.3693 16.9819 0
209 4 15.6756 15.6756 0
210 4 16.9819 16.9819 0
689 4 14.3693 14.3693 2.6126
691 4 16.9819 14.3693 2.6126
723 4 14.3693 16.9819 2.6126
8382 2 14.3693 14.3693 0
8384 2 16.9819 14.3693 0
8414 2 14.3693 15.6756 1.3063
8415 2 16.9819 16.9819 0
8416 2 16.9819 15.6756 1.3063
8892 2 14.3693 14.3693 2.6126
8895 2 16.9819 14.3693 2.6126
8930 2 14.3693 16.9819 2.6126
179 4 19.5945 14.3693 0
211 4 19.5945 16.9819 0
727 4 19.5945 16.9819 2.6126
8387 2 19.5945 14.3693 0
8417 2 18.2882 15.6756 0
8418 2 19.5945 15.6756 1.3063
8933 2 18.2882 15.6756 2.6126
8934 2 19.5945 16.9819 2.6126
182 4 23.5134 14.3693 1.3063
212 4 20.9008 15.6756 0
213 4 22.2071 16.9819 0
214 4 22.2071 15.6756 1.3063
215 4 20.9008 16.9819 1.3063
728 4 20.9008 15.6756 2.6126
729 4 22.2071 16.9819 2.6126
731 4 23.5134 15.6756 2.6126
8388 2 20.9008 14.3693 1.3063
8419 2 20.9008 15.6756 0
8420 2 22.2071 15.6756 1.3063
8421 2 23.5134 15.6756 0
8898 2 22.2071 14.3693 2.6126
8936 2 22.2071 16.9819 2.6126
8937 2 23.5134 15.6756 2.6126
181 4 24.8197 14.3693 0
216 4 24.8197 16.9819 0
217 4 24.8197 15.6756 1.3063
218 4 26.126 15.6756 0
219 4 27.4323 15.6756 1.3063
734 4 26.126 15.6756 2.6126
735 4 27.4323 16.9819 2.6126
8389 2 24.8197 14.3693 0
8392 2 27.4323 14.3693 0
8422 2 24.8197 16.9819 0
8423 2 24.8197 15.6756 1.3063
8424 2 26.126 15.6756 0
8425 2 27.4323 16.9819 0
8899 2 24.8197 14.3693 2.6126
8903 2 27.4323 14.3693 2.6126
8938 2 24.8197 16.9819 2.6126
8941 2 27.4323 16.9819 2.6126
185 4 28.7386 14.3693 1.3063
220 4 28.7386 15.6756 0
221 4 30.0449 16.9819 0
699 4 30.0449 14.3693 2.6126
736 4 30.0449 16.9819 2.6126
8394 2 28.7386 14.3693 1.3063
8426 2 30.0449 16.9819 0
8427 2 28.7386 16.9819 1.3063
8943 2 28.7386 15.6756 2.6126
189 4 33.9638 14.3693 1.3063
222 4 32.6575 16.9819 0
223 4 32.6575 15.6756 1.3063
224 4 33.9638 15.6756 0
225 4 33.9638 16.9819 1.3063
739 4 31.3512 15.6756 2.6126
740 4 32.6575 16.9819 2.6126
8397 2 31.3512 14.3693 1.3063
8400 2 33.9638 14.3693 1.3063
8428 2 31.3512 16.9819 1.3063
8907 2 32.6575 14.3693 2.6126
8944 2 32.6575 16.9819 2.6126
8947 2 33.9638 15.6756 2.6126
187 4 35.2701 14.3693 0
190 4 37.8827 14.3693 0
226 4 36.5764 15.6756 0
227 4 37.8827 16.9819 0
228 4 36.5764 16.9819 1.3063
703 4 35.2701 14.3693 2.6126
706 4 37.8827 14.3693 2.6126
743 4 37.8827 16.9819 2.6126
8402 2 37.8827 14.3693 0
8429 2 35.2701 15.6756 1.3063
8430 2 37.8827 16.9819 0
8910 2 35.2701 14.3693 2.6126
8913 2 37.8827 14.3693 2.6126
8949 2 36.5764 15.6756 2.6126
191 4 40.4953 14.3693 0
229 4 40.4953 16.9819 0
710 4 40.4953 14.3693 2.6126
745 4 40.4953 16.9819 2.6126
8403 2 40.4953 14.3693 0
230 4 0 18.2882 0
231 4 1.3063 19.5945 0
232 4 1.3063 18.2882 1.3063
233 4 0 19.5945 1.3063
236 4 2.6126 19.5945 1.3063
747 4 0 18.2882 2.6126
748 4 1.3063 19.5945 2.6126
750 4 2.6126 18.2882 2.6126
8431 2 0 18.2882 0
8432 2 1.3063 19.5945 0
8433 2 1.3063 18.2882 1.3063
8434 2 0 19.5945 1.3063
8952 2 0 18.2882 2.6126
8953 2 1.3063 19.5945 2.6126
234 4 3.9189 19.5945 0
235 4 3.9189 18.2882 1.3063
237 4 6.5315 18.2882 1.3063
238 4 5.2252 19.5945 1.3063
752 4 6.5315 19.5945 2.6126
8435 2 3.9189 19.5945 0
8436 2 3.9189 18.2882 1.3063
8437 2 5.2252 18.2882 0
8438 2 6.5315 19.5945 0
8439 2 6.5315 18.2882 1.3063
8440 2 5.2252 19.5945 1.3063
8954 2 3.9189 19.5945 2.6126
8956 2 5.2252 18.2882 2.6126
239 4 7.8378 18.2882 0
240 4 9.14409 18.2882 1.3063
241 4 7.8378 19.5945 1.3063
753 4 9.14409 19.5945 2.6126
8958 2 9.14409 19.5945 2.6126
242 4 11.7567 19.5945 0
243 4 11.7567 18.2882 1.3063
244 4 10.4504 19.5945 1.3063
755 4 10.4504 18.2882 2.6126
756 4 11.7567 19.5945 2.6126
8441 2 11.7567 18.2882 1.3063
8962 2 13.063 18.2882 2.6126
245 4 15.6756 18.2882 0
246 4 16.9819 18.2882 1.3063
759 4 15.6756 18.2882 2.6126
8442 2 14.3693 19.5945 0
8443 2 14.3693 18.2882 1.3063
8444 2 16.9819 19.5945 0
8445 2 16.9819 18.2882 1.3063
8963 2 14.3693 19.5945 2.6126
247 4 19.5945 19.5945 0
248 4 19.5945 18.2882 1.3063
249 4 18.2882 19.5945 1.3063
8446 2 18.2882 18.2882 0
8965 2 18.2882 18.2882 2.6126
250 4 20.9008 19.5945 1.3063
251 4 23.5134 18.2882 0
765 4 23.5134 18.2882 2.6126
8447 2 20.9008 18.2882 0
8448 2 22.2071 19.5945 0
8449 2 23.5134 18.2882 0
8966 2 20.9008 18.2882 2.6126
8968 2 23.5134 18.2882 2.6126
252 4 26.126 18.2882 0
253 4 27.4323 18.2882 1.3063
767 4 27.4323 19.5945 2.6126
8450 2 24.8197 18.2882 1.3063
8451 2 26.126 18.2882 0
8452 2 27.4323 19.5945 0
8453 2 27.4323 18.2882 1.3063
8969 2 24.8197 19.5945 2.6126
8971 2 27.4323 19.5945 2.6126
254 4 30.0449 19.5945 0
769 4 28.7386 18.2882 2.6126
8454 2 28.7386 18.2882 0
8455 2 28.7386 19.5945 1.3063
8974 2 30.0449 19.5945 2.6126
255 4 32.6575 19.5945 0
256 4 32.6575 18.2882 1.3063
257 4 33.9638 19.5945 1.3063
772 4 33.9638 18.2882 2.6126
8456 2 31.3512 18.2882 0
8457 2 32.6575 19.5945 0
8458 2 31.3512 19.5945 1.3063
258 4 37.8827 19.5945 0
773 4 35.2701 19.5945 2.6126
8459 2 35.2701 19.5945 0
8460 2 37.8827 19.5945 0
8461 2 36.5764 19.5945 1.3063
8976 2 35.2701 19.5945 2.6126
259 4 40.4953 18.2882 1.3063
776 4 39.189 18.2882 2.6126
777 4 40.4953 19.5945 2.6126
8462 2 40.4953 19.5945 0
8980 2 40.4953 19.5945 2.6126
260 4 0 20.9008 0
261 4 1.3063 22.2071 0
262 4 0 22.2071 1.3063
263 4 2.6126 20.9008 0
266 4 2.6126 22.2071 1.3063
295 4 2.6126 23.5134 0
778 4 0 20.9008 2.6126
779 4 1.3063 22.2071 2.6126
781 4 2.6126 20.9008 2.6126
811 4 2.6126 23.5134 2.6126
8463 2 1.3063 22.2071 0
8464 2 1.3063 20.9008 1.3063
8465 2 0 22.2071 1.3063
8466 2 2.6126 20.9008 0
8495 2 0 23.5134 0
8981 2 0 20.9008 2.6126
8984 2 2.6126 20.9008 2.6126
9014 2 0 23.5134 2.6126
264 4 3.9189 22.2071 0
265 4 3.9189 20.9008 1.3063
267 4 5.2252 20.9008 0
268 4 6.5315 20.9008 1.3063
297 4 6.5315 23.5134 1.3063
814 4 5.2252 23.5134 2.6126
8467 2 5.2252 20.9008 0
8468 2 6.5315 22.2071 0
8469 2 6.5315 20.9008 1.3063
8498 2 3.9189 23.5134 1.3063
8499 2 5.2252 23.5134 0
8985 2 3.9189 22.2071 2.6126
8986 2 5.2252 20.9008 2.6126
8987 2 6.5315 22.2071 2.6126
269 4 7.8378 20.9008 0
270 4 9.14409 22.2071 0
271 4 7.8378 22.2071 1.3063
299 4 9.14409 23.5134 1.3063
817 4 7.8378 23.5134 2.6126
8470 2 7.8378 20.9008 0
8502 2 9.14409 23.5134 1.3063
8990 2 9.14409 22.2071 2.6126
272 4 10.4504 22.2071 1.3063
275 4 13.063 22.2071 1.3063
301 4 10.4504 23.5134 0
302 4 11.7567 23.5134 1.3063
785 4 10.4504 20.9008 2.6126
786 4 11.7567 22.2071 2.6126
788 4 13.063 20.9008 2.6126
819 4 13.063 23.5134 2.6126
8471 2 11.7567 20.9008 1.3063
8472 2 10.4504 22.2071 1.3063
8504 2 10.4504 23.5134 0
8506 2 11.7567 23.5134 1.3063
8508 2 13.063 23.5134 0
8992 2 10.4504 20.9008 2.6126
9019 2 10.4504 23.5134 2.6126
273 4 14.3693 22.2071 0
274 4 14.3693 20.9008 1.3063
276 4 16.9819 20.9008 1.3063
277 4 15.6756 22.2071 1.3063
306 4 16.9819 23.5134 1.3063
789 4 16.9819 22.2071 2.6126
823 4 15.6756 23.5134 2.6126
8473 2 14.3693 22.2071 0
8474 2 15.6756 20.9008 0
8510 2 15.6756 23.5134 0
8994 2 14.3693 22.2071 2.6126
278 4 18.2882 20.9008 0
279 4 18.2882 22.2071 1.3063
792 4 18.2882 20.9008 2.6126
825 4 18.2882 23.5134 2.6126
8513 2 18.2882 23.5134 0
8997 2 18.2882 20.9008 2.6126
8998 2 19.5945 22.2071 2.6126
9023 2 18.2882 23.5134 2.6126
280 4 20.9008 20.9008 0
281 4 22.2071 20.9008 1.3063
282 4 23.5134 20.9008 0
308 4 20.9008 23.5134 0
793 4 20.9008 20.9008 2.6126
828 4 23.5134 23.5134 2.6126
8475 2 20.9008 20.9008 0
8476 2 22.2071 22.2071 0
8477 2 22.2071 20.9008 1.3063
8478 2 23.5134 20.9008 0
8515 2 22.2071 23.5134 1.3063
9000 2 23.5134 20.9008 2.6126
9027 2 20.9008 23.5134 2.6126
283 4 24.8197 22.2071 0
284 4 24.8197 20.9008 1.3063
285 4 26.126 22.2071 1.3063
311 4 27.4323 23.5134 1.3063
797 4 26.126 20.9008 2.6126
830 4 26.126 23.5134 2.6126
8479 2 24.8197 22.2071 0
8480 2 26.126 20.9008 0
8481 2 27.4323 22.2071 0
8482 2 27.4323 20.9008 1.3063
8483 2 26.126 22.2071 1.3063
8519 2 26.126 23.5134 0
8520 2 27.4323 23.5134 1.3063
9003 2 26.126 20.9008 2.6126
9030 2 26.126 23.5134 2.6126
286 4 28.7386 20.9008 0
287 4 30.0449 22.2071 0
798 4 28.7386 20.9008 2.6126
799 4 30.0449 22.2071 2.6126
832 4 28.7386 23.5134 2.6126
8484 2 30.0449 20.9008 1.3063
8485 2 28.7386 22.2071 1.3063
9005 2 30.0449 22.2071 2.6126
288 4 32.6575 22.2071 0
289 4 32.6575 20.9008 1.3063
290 4 31.3512 22.2071 1.3063
314 4 31.3512 23.5134 0
316 4 33.9638 23.5134 0
801 4 32.6575 22.2071 2.6126
837 4 33.9638 23.5134 2.6126
8486 2 32.6575 22.2071 0
8487 2 32.6575 20.9008 1.3063
8490 2 33.9638 22.2071 1.3063
8523 2 31.3512 23.5134 0
9007 2 31.3512 20.9008 2.6126
9008 2 32.6575 22.2071 2.6126
9035 2 31.3512 23.5134 2.6126
9038 2 33.9638 23.5134 2.6126
291 4 37.8827 20.9008 1.3063
318 4 35.2701 23.5134 1.3063
320 4 36.5764 23.5134 0
803 4 35.2701 22.2071 2.6126
806 4 37.8827 22.2071 2.6126
8488 2 35.2701 22.2071 0
8489 2 35.2701 20.9008 1.3063
8491 2 36.5764 20.9008 0
8492 2 37.8827 22.2071 0
8525 2 36.5764 23.5134 0
8526 2 37.8827 23.5134 1.3063
9009 2 35.2701 22.2071 2.6126
9011 2 36.5764 20.9008 2.6126
292 4 40.4953 20.9008 1.3063
293 4 39.189 22.2071 1.3063
808 4 39.189 20.9008 2.6126
809 4 40.4953 22.2071 2.6126
8493 2 40.4953 20.9008 1.3063
8494 2 39.189 22.2071 1.3063
9042 2 39.189 23.5134 2.6126
294 4 1.3063 24.8197 0
322 4 1.3063 27.4323 0
323 4 1.3063 26.126 1.3063
324 4 2.6126 26.126 0
843 4 0 26.126 2.6126
844 4 1.3063 27.4323 2.6126
846 4 2.6126 26.126 2.6126
8496 2 1.3063 24.8197 0
8528 2 0 26.126 0
8529 2 0 27.4323 1.3063
8531 2 2.6126 27.4323 1.3063
9045 2 1.3063 27.4323 2.6126
296 4 3.9189 24.8197 0
325 4 3.9189 26.126 1.3063
326 4 6.5315 26.126 1.3063
327 4 5.2252 27.4323 1.3063
812 4 3.9189 24.8197 2.6126
849 4 6.5315 27.4323 2.6126
8497 2 3.9189 24.8197 0
8500 2 5.2252 24.8197 1.3063
8530 2 3.9189 27.4323 0
8532 2 5.2252 26.126 0
8533 2 6.5315 27.4323 0
9015 2 3.9189 24.8197 2.6126
9046 2 3.9189 27.4323 2.6126
9049 2 5.2252 26.126 2.6126
9050 2 6.5315 27.4323 2.6126
298 4 9.14409 24.8197 0
300 4 7.8378 24.8197 1.3063
328 4 9.14409 26.126 1.3063
851 4 9.14409 27.4323 2.6126
8501 2 9.14409 24.8197 0
8503 2 7.8378 24.8197 1.3063
8534 2 9.14409 27.4323 0
9018 2 9.14409 24.8197 2.6126
9053 2 7.8378 26.126 2.6126
304 4 13.063 24.8197 1.3063
329 4 10.4504 26.126 0
330 4 11.7567 27.4323 0
331 4 10.4504 27.4323 1.3063
332 4 13.063 26.126 0
852 4 10.4504 26.126 2.6126
853 4 11.7567 27.4323 2.6126
856 4 13.063 26.126 2.6126
8505 2 11.7567 24.8197 0
8507 2 10.4504 24.8197 1.3063
8535 2 11.7567 27.4323 0
8536 2 11.7567 26.126 1.3063
8537 2 13.063 26.126 0
8539 2 13.063 27.4323 1.3063
9020 2 11.7567 24.8197 2.6126
9055 2 10.4504 26.126 2.6126
9056 2 11.7567 27.4323 2.6126
303 4 14.3693 24.8197 0
305 4 16.9819 24.8197 0
333 4 14.3693 27.4323 0
334 4 15.6756 26.126 0
335 4 16.9819 27.4323 0
336 4 15.6756 27.4323 1.3063
820 4 14.3693 24.8197 2.6126
857 4 14.3693 27.4323 2.6126
8509 2 14.3693 24.8197 0
8511 2 16.9819 24.8197 0
8512 2 15.6756 24.8197 1.3063
8538 2 14.3693 26.126 1.3063
8540 2 15.6756 26.126 0
8541 2 16.9819 27.4323 0
8542 2 16.9819 26.126 1.3063
8543 2 15.6756 27.4323 1.3063
9057 2 14.3693 27.4323 2.6126
9060 2 16.9819 27.4323 2.6126
307 4 19.5945 24.8197 0
337 4 19.5945 27.4323 0
338 4 19.5945 26.126 1.3063
826 4 19.5945 24.8197 2.6126
860 4 18.2882 26.126 2.6126
861 4 19.5945 27.4323 2.6126
8544 2 19.5945 27.4323 0
8545 2 19.5945 26.126 1.3063
9024 2 19.5945 24.8197 2.6126
9063 2 18.2882 26.126 2.6126
309 4 22.2071 24.8197 0
339 4 20.9008 26.126 0
340 4 22.2071 27.4323 0
341 4 22.2071 26.126 1.3063
342 4 20.9008 27.4323 1.3063
343 4 23.5134 26.126 0
8514 2 22.2071 24.8197 0
8516 2 20.9008 24.8197 1.3063
8518 2 23.5134 24.8197 1.3063
8546 2 20.9008 26.126 0
8547 2 22.2071 27.4323 0
8548 2 22.2071 26.126 1.3063
8549 2 20.9008 27.4323 1.3063
8551 2 23.5134 27.4323 1.3063
9028 2 22.2071 24.8197 2.6126
310 4 27.4323 24.8197 0
312 4 26.126 24.8197 1.3063
344 4 24.8197 27.4323 0
345 4 24.8197 26.126 1.3063
346 4 26.126 26.126 0
865 4 24.8197 27.4323 2.6126
866 4 26.126 26.126 2.6126
867 4 27.4323 27.4323 2.6126
8517 2 24.8197 24.8197 0
8521 2 26.126 24.8197 1.3063
8550 2 24.8197 26.126 1.3063
8552 2 27.4323 26.126 1.3063
8553 2 26.126 27.4323 1.3063
9031 2 27.4323 24.8197 2.6126
9066 2 24.8197 27.4323 2.6126
313 4 30.0449 24.8197 0
347 4 28.7386 26.126 0
833 4 30.0449 24.8197 2.6126
870 4 28.7386 26.126 2.6126
871 4 30.0449 27.4323 2.6126
8522 2 30.0449 24.8197 0
9069 2 28.7386 26.126 2.6126
9070 2 30.0449 27.4323 2.6126
315 4 32.6575 24.8197 0
319 4 33.9638 24.8197 1.3063
348 4 31.3512 26.126 0
349 4 32.6575 26.126 1.3063
350 4 31.3512 27.4323 1.3063
834 4 32.6575 24.8197 2.6126
8554 2 32.6575 27.4323 0
8555 2 31.3512 27.4323 1.3063
8556 2 33.9638 26.126 0
9073 2 32.6575 27.4323 2.6126
9076 2 33.9638 26.126 2.6126
317 4 35.2701 24.8197 0
351 4 35.2701 27.4323 0
352 4 36.5764 26.126 0
353 4 37.8827 27.4323 0
354 4 37.8827 26.126 1.3063
838 4 35.2701 24.8197 2.6126
8524 2 35.2701 24.8197 0
8557 2 35.2701 26.126 1.3063
8558 2 37.8827 27.4323 0
9040 2 37.8827 24.8197 2.6126
9077 2 35.2701 27.4323 2.6126
9079 2 37.8827 27.4323 2.6126
321 4 40.4953 24.8197 0
355 4 40.4953 27.4323 0
356 4 39.189 27.4323 1.3063
841 4 40.4953 24.8197 2.6126
874 4 39.189 26.126 2.6126
8527 2 40.4953 24.8197 0
8559 2 40.4953 27.4323 0
8560 2 39.189 27.4323 1.3063
9043 2 40.4953 24.8197 2.6126
9080 2 39.189 26.126 2.6126
357 4 0 28.7386 0
358 4 1.3063 30.0449 0
359 4 1.3063 28.7386 1.3063
360 4 0 30.0449 1.3063
361 4 2.6126 28.7386 0
362 4 2.6126 30.0449 1.3063
876 4 0 28.7386 2.6126
879 4 2.6126 28.7386 2.6126
8561 2 0 28.7386 0
8562 2 1.3063 28.7386 1.3063
8563 2 2.6126 28.7386 0
9082 2 1.3063 30.0449 2.6126
363 4 5.2252 28.7386 0
364 4 6.5315 28.7386 1.3063
8564 2 3.9189 28.7386 1.3063
8565 2 5.2252 28.7386 0
8566 2 6.5315 28.7386 1.3063
8567 2 5.2252 30.0449 1.3063
9084 2 3.9189 30.0449 2.6126
9085 2 5.2252 28.7386 2.6126
9086 2 6.5315 30.0449 2.6126
365 4 7.8378 28.7386 0
366 4 9.14409 28.7386 1.3063
367 4 7.8378 30.0449 1.3063
882 4 7.8378 28.7386 2.6126
883 4 9.14409 30.0449 2.6126
8568 2 9.14409 30.0449 0
8569 2 9.14409 28.7386 1.3063
9088 2 9.14409 30.0449 2.6126
368 4 11.7567 28.7386 1.3063
371 4 13.063 30.0449 1.3063
8570 2 11.7567 28.7386 1.3063
8572 2 13.063 30.0449 1.3063
9091 2 11.7567 30.0449 2.6126
369 4 14.3693 30.0449 0