ITEM: TIMESTEP
0
ITEM: NUMBER OF ATOMS
16384
ITEM: BOX BOUNDS pp pp pp
0.0000000000000000e+00 6.2471105966433498e+01
0.0000000000000000e+00 6.2471105966433498e+01
0.0000000000000000e+00 6.2471105966433498e+01
ITEM: ATOMS id type x y z
1 4 0 0 0
2 4 1.96772 1.96772 0
8193 2 0 0 0
8194 2 1.96772 1.96772 0
8195 2 1.96772 0 1.96772
8196 2 0 1.96772 1.96772
3 4 5.90315 1.96772 0
4 4 5.90315 0 1.96772
5 4 3.93543 1.96772 1.96772
8197 2 5.90315 0 1.96772
6 4 9.83858 0 1.96772
7 4 7.87087 1.96772 1.96772
8198 2 7.87087 0 0
8199 2 9.83858 1.96772 0
10 4 11.8063 1.96772 1.96772
8 4 13.774 1.96772 0
9 4 13.774 0 1.96772
11 4 15.7417 0 0
12 4 15.7417 1.96772 1.96772
8200 2 13.774 1.96772 0
8201 2 17.7094 0 1.96772
8203 2 19.6772 1.96772 1.96772
8202 2 21.6449 0 1.96772
13 4 23.6126 0 0
8204 2 23.6126 0 0
8205 2 25.5803 1.96772 0
8206 2 23.6126 1.96772 1.96772
14 4 27.548 0 0
15 4 29.5157 0 1.96772
16 4 27.548 1.96772 1.96772
8207 2 27.548 0 0
8208 2 29.5157 0 1.96772
17 4 31.4835 0 0
18 4 33.4512 1.96772 0
19 4 33.4512 0 1.96772
8209 2 33.4512 1.96772 0
8212 2 35.4189 1.96772 1.96772
20 4 37.3866 1.96772 0
21 4 37.3866 0 1.96772
8210 2 37.3866 1.96772 0
8211 2 37.3866 0 1.96772
8213 2 39.3543 0 0
8215 2 39.3543 1.96772 1.96772
22 4 41.322 1.96772 0
8214 2 41.322 0 1.96772
23 4 43.2898 0 0
24 4 45.2575 1.96772 0
8216 2 45.2575 1.96772 0
8217 2 43.2898 1.96772 1.96772
25 4 49.1929 1.96772 0
8218 2 47.2252 0 0
8219 2 49.1929 1.96772 0
8220 2 47.2252 1.96772 1.96772
8221 2 51.1606 0 0
8223 2 51.1606 1.96772 1.96772
26 4 53.1283 1.96772 0
27 4 55.0961 0 0
29 4 55.0961 1.96772 1.96772
8222 2 53.1283 0 1.96772
28 4 57.0638 0 1.96772
30 4 59.0315 0 0
8224 2 57.0638 0 1.96772
8225 2 59.0315 0 0
31 4 60.9992 1.96772 0
32 4 1.96772 3.93543 1.96772
33 4 0 5.90315 1.96772
8226 2 0 3.93543 0
8227 2 1.96772 5.90315 0
34 4 5.90315 3.93543 1.96772
35 4 3.93543 5.90315 1.96772
8228 2 5.90315 3.93543 1.96772
36 4 7.87087 3.93543 0
37 4 9.83858 5.90315 0
38 4 9.83858 3.93543 1.96772
39 4 7.87087 5.90315 1.96772
8229 2 7.87087 3.93543 0
8230 2 9.83858 5.90315 0
42 4 11.8063 5.90315 1.96772
40 4 13.774 5.90315 0
41 4 13.774 3.93543 1.96772
43 4 15.7417 3.93543 0
45 4 15.7417 5.90315 1.96772
8231 2 15.7417 3.93543 0
44 4 17.7094 5.90315 0
47 4 19.6772 5.90315 1.96772
8232 2 17.7094 3.93543 1.96772
46 4 21.6449 3.93543 1.96772
8233 2 21.6449 5.90315 0
48 4 23.6126 3.93543 0
49 4 25.5803 5.90315 0
50 4 25.5803 3.93543 1.96772
51 4 23.6126 5.90315 1.96772
8234 2 25.5803 5.90315 0
8235 2 25.5803 3.93543 1.96772
52 4 27.548 5.90315 1.96772
8236 2 27.548 3.93543 0
8237 2 27.548 5.90315 1.96772
53 4 31.4835 3.93543 0
56 4 31.4835 5.90315 1.96772
8238 2 31.4835 3.93543 0
54 4 33.4512 5.90315 0
55 4 33.4512 3.93543 1.96772
57 4 35.4189 3.93543 0
59 4 35.4189 5.90315 1.96772
8239 2 33.4512 5.90315 0
8241 2 35.4189 5.90315 1.96772
58 4 37.3866 5.90315 0
61 4 39.3543 5.90315 1.96772
8240 2 37.3866 3.93543 1.96772
60 4 41.322 3.93543 1.96772
8242 2 41.322 3.93543 1.96772
62 4 45.2575 3.93543 1.96772
8243 2 43.2898 3.93543 0
8244 2 45.2575 5.90315 0
63 4 47.2252 3.93543 0
64 4 49.1929 5.90315 0
65 4 49.1929 3.93543 1.96772
8245 2 47.2252 3.93543 0
8246 2 49.1929 3.93543 1.96772
8247 2 51.1606 3.93543 0
8250 2 51.1606 5.90315 1.96772
66 4 53.1283 5.90315 0
67 4 53.1283 3.93543 1.96772
68 4 55.0961 3.93543 0
8248 2 53.1283 5.90315 0
8249 2 53.1283 3.93543 1.96772
8251 2 55.0961 3.93543 0
69 4 57.0638 5.90315 0
70 4 59.0315 3.93543 0
72 4 59.0315 5.90315 1.96772
8252 2 59.0315 3.93543 0
8255 2 59.0315 5.90315 1.96772
71 4 60.9992 5.90315 0
8253 2 60.9992 5.90315 0
8254 2 60.9992 3.93543 1.96772
73 4 1.96772 7.87087 1.96772
8256 2 1.96772 7.87087 1.96772
8257 2 0 9.83858 1.96772
74 4 5.90315 7.87087 1.96772
75 4 3.93543 9.83858 1.96772
8258 2 3.93543 7.87087 0
8259 2 5.90315 9.83858 0
8260 2 7.87087 7.87087 0
8261 2 9.83858 7.87087 1.96772
8262 2 7.87087 9.83858 1.96772
76 4 11.8063 7.87087 0
8263 2 11.8063 7.87087 0
8264 2 11.8063 9.83858 1.96772
77 4 13.774 7.87087 1.96772
8265 2 15.7417 7.87087 0
78 4 17.7094 7.87087 1.96772
8266 2 17.7094 9.83858 0
8267 2 17.7094 7.87087 1.96772
8268 2 19.6772 7.87087 0
79 4 21.6449 9.83858 0
80 4 21.6449 7.87087 1.96772
8269 2 21.6449 9.83858 0
8270 2 21.6449 7.87087 1.96772
81 4 23.6126 7.87087 0
82 4 25.5803 7.87087 1.96772
8271 2 25.5803 9.83858 0
8272 2 23.6126 9.83858 1.96772
83 4 27.548 9.83858 1.96772
8273 2 27.548 9.83858 1.96772
8274 2 31.4835 7.87087 0
8276 2 31.4835 9.83858 1.96772
84 4 33.4512 7.87087 1.96772
86 4 35.4189 9.83858 1.96772
8275 2 33.4512 9.83858 0
8277 2 35.4189 7.87087 0
8280 2 35.4189 9.83858 1.96772
85 4 37.3866 9.83858 0
88 4 39.3543 9.83858 1.96772
8278 2 37.3866 9.83858 0
8279 2 37.3866 7.87087 1.96772
8281 2 39.3543 7.87087 0
87 4 41.322 7.87087 1.96772
8282 2 41.322 9.83858 0
8283 2 41.322 7.87087 1.96772
89 4 45.2575 7.87087 1.96772
90 4 43.2898 9.83858 1.96772
8284 2 45.2575 9.83858 0
91 4 49.1929 9.83858 0
92 4 47.2252 9.83858 1.96772
8285 2 47.2252 7.87087 0
93 4 51.1606 9.83858 1.96772
8288 2 51.1606 9.83858 1.96772
94 4 55.0961 7.87087 0
8286 2 53.1283 9.83858 0
8287 2 53.1283 7.87087 1.96772
8289 2 55.0961 7.87087 0
8291 2 55.0961 9.83858 1.96772
95 4 59.0315 7.87087 0
97 4 59.0315 9.83858 1.96772
8290 2 57.0638 9.83858 0
8292 2 59.0315 7.87087 0
8294 2 59.0315 9.83858 1.96772
96 4 60.9992 9.83858 0
8293 2 60.9992 9.83858 0
99 4 1.96772 11.8063 1.96772
8295 2 0 11.8063 0
101 4 3.93543 11.8063 0
103 4 5.90315 11.8063 1.96772
8296 2 3.93543 11.8063 0
8298 2 5.90315 11.8063 1.96772
104 4 7.87087 11.8063 0
105 4 9.83858 11.8063 1.96772
8299 2 7.87087 11.8063 0
8301 2 11.8063 11.8063 0
107 4 13.774 11.8063 1.96772
108 4 19.6772 11.8063 0
8305 2 17.7094 11.8063 1.96772
110 4 21.6449 11.8063 1.96772
111 4 23.6126 11.8063 0
112 4 25.5803 11.8063 1.96772
114 4 27.548 11.8063 0
116 4 29.5157 11.8063 1.96772
8309 2 27.548 11.8063 0
8310 2 29.5157 11.8063 1.96772
8312 2 31.4835 11.8063 0
119 4 35.4189 11.8063 0
8314 2 35.4189 11.8063 0
121 4 37.3866 11.8063 1.96772
123 4 39.3543 11.8063 0
8315 2 37.3866 11.8063 1.96772
8316 2 39.3543 11.8063 0
124 4 41.322 11.8063 1.96772
8317 2 43.2898 11.8063 0
126 4 49.1929 11.8063 1.96772
128 4 51.1606 11.8063 0
129 4 53.1283 11.8063 1.96772
130 4 55.0961 11.8063 0
8319 2 53.1283 11.8063 1.96772
8321 2 55.0961 11.8063 0
8323 2 59.0315 11.8063 0
98 4 1.96772 13.774 0
100 4 0 13.774 1.96772
8327 2 1.96772 15.7417 1.96772
102 4 5.90315 13.774 0
8297 2 5.90315 13.774 0
8329 2 3.93543 15.7417 0
8331 2 5.90315 15.7417 1.96772
134 4 9.83858 15.7417 1.96772
8300 2 9.83858 13.774 0
8333 2 7.87087 15.7417 0
8303 2 11.8063 13.774 1.96772
106 4 13.774 13.774 0
8302 2 13.774 13.774 0
137 4 19.6772 15.7417 0
8304 2 17.7094 13.774 0
8338 2 17.7094 15.7417 1.96772
8340 2 19.6772 15.7417 0
109 4 21.6449 13.774 0
8306 2 21.6449 13.774 0
8341 2 21.6449 15.7417 1.96772
113 4 23.6126 13.774 1.96772
139 4 23.6126 15.7417 0
8307 2 25.5803 13.774 0
8308 2 23.6126 13.774 1.96772
8344 2 25.5803 15.7417 1.96772
115 4 29.5157 13.774 0
117 4 27.548 13.774 1.96772
8311 2 27.548 13.774 1.96772
118 4 31.4835 13.774 1.96772
122 4 35.4189 13.774 1.96772
143 4 33.4512 15.7417 1.96772
8313 2 33.4512 13.774 0
120 4 37.3866 13.774 0
146 4 37.3866 15.7417 1.96772
148 4 39.3543 15.7417 0
8349 2 37.3866 15.7417 1.96772
8318 2 43.2898 13.774 1.96772
8353 2 43.2898 15.7417 0
8354 2 45.2575 15.7417 1.96772
125 4 49.1929 13.774 0
127 4 47.2252 13.774 1.96772
152 4 47.2252 15.7417 0
8356 2 47.2252 15.7417 0
8357 2 49.1929 15.7417 1.96772
155 4 51.1606 15.7417 0
8320 2 51.1606 13.774 1.96772
156 4 53.1283 15.7417 1.96772
158 4 55.0961 15.7417 0
8322 2 55.0961 13.774 1.96772
8359 2 53.1283 15.7417 1.96772
8325 2 59.0315 13.774 1.96772
8362 2 59.0315 15.7417 0
131 4 60.9992 13.774 0
8324 2 60.9992 13.774 0
8364 2 60.9992 15.7417 1.96772
132 4 1.96772 17.7094 0
160 4 0 19.6772 0
162 4 1.96772 19.6772 1.96772
8326 2 1.96772 17.7094 0
8328 2 0 17.7094 1.96772
8366 2 0 19.6772 0
8368 2 1.96772 19.6772 1.96772
133 4 5.90315 17.7094 0
164 4 3.93543 19.6772 0
165 4 5.90315 19.6772 1.96772
8330 2 5.90315 17.7094 0
8332 2 3.93543 17.7094 1.96772
8370 2 3.93543 19.6772 0
8372 2 5.90315 19.6772 1.96772
167 4 9.83858 19.6772 1.96772
8334 2 9.83858 17.7094 0
8335 2 7.87087 17.7094 1.96772
8374 2 7.87087 19.6772 0
135 4 11.8063 17.7094 1.96772
136 4 15.7417 17.7094 1.96772
169 4 13.774 19.6772 1.96772
171 4 15.7417 19.6772 0
8336 2 13.774 17.7094 0
8339 2 15.7417 17.7094 1.96772
8377 2 13.774 19.6772 1.96772
8378 2 15.7417 19.6772 0
173 4 17.7094 19.6772 1.96772
175 4 19.6772 19.6772 0
8337 2 17.7094 17.7094 0
8342 2 19.6772 17.7094 1.96772
8380 2 17.7094 19.6772 1.96772
138 4 21.6449 17.7094 0
8383 2 21.6449 19.6772 1.96772
140 4 25.5803 17.7094 0
177 4 23.6126 19.6772 0
8343 2 25.5803 17.7094 0
8345 2 23.6126 17.7094 1.96772
8385 2 25.5803 19.6772 1.96772
141 4 29.5157 17.7094 0
142 4 27.548 17.7094 1.96772
8346 2 27.548 17.7094 1.96772
8386 2 27.548 19.6772 0
144 4 31.4835 17.7094 1.96772
8348 2 31.4835 17.7094 1.96772
147 4 35.4189 17.7094 1.96772
180 4 35.4189 19.6772 0
8347 2 33.4512 17.7094 0
8350 2 35.4189 17.7094 1.96772
145 4 37.3866 17.7094 0
150 4 39.3543 17.7094 1.96772
183 4 39.3543 19.6772 0
8352 2 39.3543 17.7094 1.96772
8390 2 37.3866 19.6772 1.96772
8391 2 39.3543 19.6772 0
149 4 41.322 17.7094 0
8351 2 41.322 17.7094 0
8393 2 41.322 19.6772 1.96772
151 4 45.2575 17.7094 0
184 4 43.2898 19.6772 0
8355 2 43.2898 17.7094 1.96772
153 4 49.1929 17.7094 0
154 4 47.2252 17.7094 1.96772
186 4 49.1929 19.6772 1.96772
8358 2 47.2252 17.7094 1.96772
8395 2 47.2252 19.6772 0
8396 2 49.1929 19.6772 1.96772
157 4 51.1606 17.7094 1.96772
8360 2 51.1606 17.7094 1.96772
8398 2 51.1606 19.6772 0
188 4 53.1283 19.6772 1.96772
8399 2 53.1283 19.6772 1.96772
8401 2 55.0961 19.6772 0
159 4 59.0315 17.7094 1.96772
8361 2 57.0638 17.7094 0
8365 2 59.0315 17.7094 1.96772
192 4 60.9992 19.6772 1.96772
8363 2 60.9992 17.7094 0
161 4 1.96772 21.6449 0
163 4 0 21.6449 1.96772
8367 2 1.96772 21.6449 0
8369 2 0 21.6449 1.96772
8371 2 5.90315 21.6449 0
8373 2 3.93543 21.6449 1.96772
166 4 9.83858 21.6449 0
168 4 7.87087 21.6449 1.96772
8375 2 9.83858 21.6449 0
170 4 11.8063 21.6449 1.96772
174 4 15.7417 21.6449 1.96772
8376 2 13.774 21.6449 0
8381 2 15.7417 21.6449 1.96772
172 4 17.7094 21.6449 0
176 4 19.6772 21.6449 1.96772
8379 2 17.7094 21.6449 0
8382 2 21.6449 21.6449 0
178 4 25.5803 21.6449 0
8384 2 25.5803 21.6449 0
179 4 29.5157 21.6449 0
8387 2 29.5157 21.6449 0
8388 2 31.4835 21.6449 1.96772
182 4 35.4189 21.6449 1.96772
181 4 37.3866 21.6449 0
8389 2 37.3866 21.6449 0
8392 2 41.322 21.6449 0
185 4 43.2898 21.6449 1.96772
8394 2 43.2898 21.6449 1.96772
8397 2 47.2252 21.6449 1.96772
189 4 51.1606 21.6449 1.96772
8400 2 51.1606 21.6449 1.96772
187 4 53.1283 21.6449 0
190 4 57.0638 21.6449 0
8402 2 57.0638 21.6449 0
191 4 60.9992 21.6449 0
8403 2 60.9992 21.6449 0
193 4 1.96772 25.5803 0
194 4 1.96772 23.6126 1.96772
195 4 0 25.5803 1.96772
196 4 3.93543 23.6126 0
197 4 5.90315 25.5803 0
8404 2 3.93543 23.6126 0
8405 2 3.93543 25.5803 1.96772
198 4 7.87087 23.6126 0
199 4 9.83858 25.5803 0
200 4 9.83858 23.6126 1.96772
201 4 7.87087 25.5803 1.96772
8406 2 7.87087 23.6126 0
8407 2 9.83858 25.5803 0
202 4 11.8063 23.6126 0
8408 2 11.8063 23.6126 0
8409 2 11.8063 25.5803 1.96772
203 4 13.774 25.5803 0
204 4 13.774 23.6126 1.96772
8410 2 15.7417 23.6126 0
8412 2 15.7417 25.5803 1.96772
205 4 17.7094 25.5803 0
206 4 17.7094 23.6126 1.96772
208 4 19.6772 25.5803 1.96772
8411 2 17.7094 25.5803 0
8413 2 19.6772 23.6126 0
207 4 21.6449 25.5803 0
8414 2 21.6449 23.6126 1.96772
209 4 23.6126 23.6126 0
210 4 25.5803 25.5803 0
8415 2 25.5803 25.5803 0
8416 2 25.5803 23.6126 1.96772
211 4 29.5157 25.5803 0
8417 2 27.548 23.6126 0
8418 2 29.5157 23.6126 1.96772
212 4 31.4835 23.6126 0
215 4 31.4835 25.5803 1.96772
8419 2 31.4835 23.6126 0
213 4 33.4512 25.5803 0
214 4 33.4512 23.6126 1.96772
8420 2 33.4512 23.6126 1.96772
8421 2 35.4189 23.6126 0
216 4 37.3866 25.5803 0
217 4 37.3866 23.6126 1.96772
218 4 39.3543 23.6126 0
8422 2 37.3866 25.5803 0
8423 2 37.3866 23.6126 1.96772
8424 2 39.3543 23.6126 0
219 4 41.322 23.6126 1.96772
8425 2 41.322 25.5803 0
220 4 43.2898 23.6126 0
221 4 45.2575 25.5803 0
8426 2 45.2575 25.5803 0
8427 2 43.2898 25.5803 1.96772
222 4 49.1929 25.5803 0
223 4 49.1929 23.6126 1.96772
8428 2 47.2252 25.5803 1.96772
224 4 51.1606 23.6126 0
225 4 51.1606 25.5803 1.96772
226 4 55.0961 23.6126 0
228 4 55.0961 25.5803 1.96772
8429 2 53.1283 23.6126 1.96772
227 4 57.0638 25.5803 0
8430 2 57.0638 25.5803 0
229 4 60.9992 25.5803 0
230 4 0 27.548 0
231 4 1.96772 29.5157 0
232 4 1.96772 27.548 1.96772
233 4 0 29.5157 1.96772
8431 2 0 27.548 0
8432 2 1.96772 29.5157 0
8433 2 1.96772 27.548 1.96772
8434 2 0 29.5157 1.96772
234 4 5.90315 29.5157 0
235 4 5.90315 27.548 1.96772
236 4 3.93543 29.5157 1.96772
8435 2 5.90315 29.5157 0
8436 2 5.90315 27.548 1.96772
237 4 9.83858 27.548 1.96772
238 4 7.87087 29.5157 1.96772
8437 2 7.87087 27.548 0
8438 2 9.83858 29.5157 0
8439 2 9.83858 27.548 1.96772
8440 2 7.87087 29.5157 1.96772
239 4 11.8063 27.548 0
241 4 11.8063 29.5157 1.96772
240 4 13.774 27.548 1.96772
244 4 15.7417 29.5157 1.96772
242 4 17.7094 29.5157 0
243 4 17.7094 27.548 1.96772
8441 2 17.7094 27.548 1.96772
8442 2 21.6449 29.5157 0
8443 2 21.6449 27.548 1.96772
245 4 23.6126 27.548 0
246 4 25.5803 27.548 1.96772
8444 2 25.5803 29.5157 0
8445 2 25.5803 27.548 1.96772
247 4 29.5157 29.5157 0
248 4 29.5157 27.548 1.96772
249 4 27.548 29.5157 1.96772
8446 2 27.548 27.548 0
250 4 31.4835 29.5157 1.96772
8447 2 31.4835 27.548 0
251 4 35.4189 27.548 0
8448 2 33.4512 29.5157 0
8449 2 35.4189 27.548 0
252 4 39.3543 27.548 0
8450 2 37.3866 27.548 1.96772
8451 2 39.3543 27.548 0
253 4 41.322 27.548 1.96772
8452 2 41.322 29.5157 0
8453 2 41.322 27.548 1.96772
254 4 45.2575 29.5157 0
8454 2 43.2898 27.548 0
8455 2 43.2898 29.5157 1.96772
255 4 49.1929 29.5157 0
256 4 49.1929 27.548 1.96772
8456 2 47.2252 27.548 0
8457 2 49.1929 29.5157 0
8458 2 47.2252 29.5157 1.96772
257 4 51.1606 29.5157 1.96772
8459 2 53.1283 29.5157 0
8461 2 55.0961 29.5157 1.96772
258 4 57.0638 29.5157 0
8460 2 57.0638 29.5157 0
259 4 60.9992 27.548 1.96772
8462 2 60.9992 29.5157 0
260 4 0 31.4835 0
8464 2 1.96772 31.4835 1.96772
263 4 3.93543 31.4835 0
265 4 5.90315 31.4835 1.96772
8466 2 3.93543 31.4835 0
267 4 7.87087 31.4835 0
268 4 9.83858 31.4835 1.96772
8467 2 7.87087 31.4835 0
8469 2 9.83858 31.4835 1.96772
269 4 11.8063 31.4835 0
8470 2 11.8063 31.4835 0
8471 2 17.7094 31.4835 1.96772
274 4 21.6449 31.4835 1.96772
276 4 25.5803 31.4835 1.96772
8474 2 23.6126 31.4835 0
278 4 27.548 31.4835 0
280 4 31.4835 31.4835 0
8475 2 31.4835 31.4835 0
281 4 33.4512 31.4835 1.96772
282 4 35.4189 31.4835 0
8477 2 33.4512 31.4835 1.96772
8478 2 35.4189 31.4835 0
284 4 37.3866 31.4835 1.96772
8480 2 39.3543 31.4835 0
8482 2 41.322 31.4835 1.96772
286 4 43.2898 31.4835 0
8484 2 45.2575 31.4835 1.96772
289 4 49.1929 31.4835 1.96772
8487 2 49.1929 31.4835 1.96772
8489 2 53.1283 31.4835 1.96772
8491 2 55.0961 31.4835 0
291 4 57.0638 31.4835 1.96772
292 4 60.9992 31.4835 1.96772
8493 2 60.9992 31.4835 1.96772
261 4 1.96772 33.4512 0
262 4 0 33.4512 1.96772
8463 2 1.96772 33.4512 0
8465 2 0 33.4512 1.96772
8495 2 0 35.4189 0
264 4 5.90315 33.4512 0
266 4 3.93543 33.4512 1.96772
295 4 3.93543 35.4189 0
8498 2 5.90315 35.4189 1.96772
297 4 9.83858 35.4189 1.96772
8468 2 9.83858 33.4512 0
8499 2 7.87087 35.4189 0
271 4 11.8063 33.4512 1.96772
270 4 13.774 33.4512 0
272 4 15.7417 33.4512 1.96772
299 4 13.774 35.4189 1.96772
301 4 15.7417 35.4189 0
8472 2 15.7417 33.4512 1.96772
8502 2 13.774 35.4189 1.96772
8504 2 15.7417 35.4189 0
275 4 19.6772 33.4512 1.96772
302 4 17.7094 35.4189 1.96772
8506 2 17.7094 35.4189 1.96772
8508 2 19.6772 35.4189 0
273 4 21.6449 33.4512 0
8473 2 21.6449 33.4512 0
277 4 23.6126 33.4512 1.96772
306 4 25.5803 35.4189 1.96772
8510 2 23.6126 35.4189 0
279 4 27.548 33.4512 1.96772
8513 2 27.548 35.4189 0
308 4 31.4835 35.4189 0
8476 2 33.4512 33.4512 0
8515 2 33.4512 35.4189 1.96772
283 4 37.3866 33.4512 0
285 4 39.3543 33.4512 1.96772
8479 2 37.3866 33.4512 0
8483 2 39.3543 33.4512 1.96772
8519 2 39.3543 35.4189 0
311 4 41.322 35.4189 1.96772
8481 2 41.322 33.4512 0
8520 2 41.322 35.4189 1.96772
287 4 45.2575 33.4512 0
8485 2 43.2898 33.4512 1.96772
288 4 49.1929 33.4512 0
290 4 47.2252 33.4512 1.96772
314 4 47.2252 35.4189 0
8486 2 49.1929 33.4512 0
8523 2 47.2252 35.4189 0
316 4 51.1606 35.4189 0
8490 2 51.1606 33.4512 1.96772
318 4 53.1283 35.4189 1.96772
320 4 55.0961 35.4189 0
8488 2 53.1283 33.4512 0
8525 2 55.0961 35.4189 0
293 4 59.0315 33.4512 1.96772
8492 2 57.0638 33.4512 0
8494 2 59.0315 33.4512 1.96772
8526 2 57.0638 35.4189 1.96772
294 4 1.96772 37.3866 0
323 4 1.96772 39.3543 1.96772
8496 2 1.96772 37.3866 0
8528 2 0 39.3543 0
296 4 5.90315 37.3866 0
324 4 3.93543 39.3543 0
325 4 5.90315 39.3543 1.96772
8497 2 5.90315 37.3866 0
326 4 9.83858 39.3543 1.96772
8500 2 7.87087 37.3866 1.96772
8532 2 7.87087 39.3543 0
300 4 11.8063 37.3866 1.96772
8503 2 11.8063 37.3866 1.96772
298 4 13.774 37.3866 0
328 4 13.774 39.3543 1.96772
329 4 15.7417 39.3543 0
8501 2 13.774 37.3866 0
8507 2 15.7417 37.3866 1.96772
304 4 19.6772 37.3866 1.96772
332 4 19.6772 39.3543 0
8505 2 17.7094 37.3866 0
8536 2 17.7094 39.3543 1.96772
8537 2 19.6772 39.3543 0
303 4 21.6449 37.3866 0
8509 2 21.6449 37.3866 0
8538 2 21.6449 39.3543 1.96772
305 4 25.5803 37.3866 0
334 4 23.6126 39.3543 0
8511 2 25.5803 37.3866 0
8512 2 23.6126 37.3866 1.96772
8540 2 23.6126 39.3543 0
8542 2 25.5803 39.3543 1.96772
307 4 29.5157 37.3866 0
338 4 29.5157 39.3543 1.96772
8545 2 29.5157 39.3543 1.96772
339 4 31.4835 39.3543 0
8516 2 31.4835 37.3866 1.96772
8546 2 31.4835 39.3543 0
309 4 33.4512 37.3866 0
341 4 33.4512 39.3543 1.96772
343 4 35.4189 39.3543 0
8514 2 33.4512 37.3866 0
8518 2 35.4189 37.3866 1.96772
8548 2 33.4512 39.3543 1.96772
312 4 39.3543 37.3866 1.96772
345 4 37.3866 39.3543 1.96772
346 4 39.3543 39.3543 0
8517 2 37.3866 37.3866 0
8521 2 39.3543 37.3866 1.96772
8550 2 37.3866 39.3543 1.96772
310 4 41.322 37.3866 0
8552 2 41.322 39.3543 1.96772
313 4 45.2575 37.3866 0
347 4 43.2898 39.3543 0
8522 2 45.2575 37.3866 0
315 4 49.1929 37.3866 0
348 4 47.2252 39.3543 0
349 4 49.1929 39.3543 1.96772
319 4 51.1606 37.3866 1.96772
8556 2 51.1606 39.3543 0
317 4 53.1283 37.3866 0
352 4 55.0961 39.3543 0
8524 2 53.1283 37.3866 0
8557 2 53.1283 39.3543 1.96772
354 4 57.0638 39.3543 1.96772
321 4 60.9992 37.3866 0
8527 2 60.9992 37.3866 0
322 4 1.96772 41.322 0
8529 2 0 41.322 1.96772
8530 2 5.90315 41.322 0
8531 2 3.93543 41.322 1.96772
327 4 7.87087 41.322 1.96772
8533 2 9.83858 41.322 0
331 4 15.7417 41.322 1.96772
8534 2 13.774 41.322 0
330 4 17.7094 41.322 0
8535 2 17.7094 41.322 0
8539 2 19.6772 41.322 1.96772
333 4 21.6449 41.322 0
335 4 25.5803 41.322 0
336 4 23.6126 41.322 1.96772
8541 2 25.5803 41.322 0
8543 2 23.6126 41.322 1.96772
337 4 29.5157 41.322 0
8544 2 29.5157 41.322 0
342 4 31.4835 41.322 1.96772
8549 2 31.4835 41.322 1.96772
340 4 33.4512 41.322 0
8547 2 33.4512 41.322 0
8551 2 35.4189 41.322 1.96772
344 4 37.3866 41.322 0
8553 2 39.3543 41.322 1.96772
350 4 47.2252 41.322 1.96772
8554 2 49.1929 41.322 0
8555 2 47.2252 41.322 1.96772
351 4 53.1283 41.322 0
353 4 57.0638 41.322 0
356 4 59.0315 41.322 1.96772
8558 2 57.0638 41.322 0
8560 2 59.0315 41.322 1.96772
355 4 60.9992 41.322 0
8559 2 60.9992 41.322 0
357 4 0 43.2898 0
358 4 1.96772 45.2575 0
359 4 1.96772 43.2898 1.96772
360 4 0 45.2575 1.96772
8561 2 0 43.2898 0
8562 2 1.96772 43.2898 1.96772
361 4 3.93543 43.2898 0
362 4 3.93543 45.2575 1.96772
8563 2 3.93543 43.2898 0
8564 2 5.90315 43.2898 1.96772
363 4 7.87087 43.2898 0
364 4 9.83858 43.2898 1.96772
8565 2 7.87087 43.2898 0
8566 2 9.83858 43.2898 1.96772
8567 2 7.87087 45.2575 1.96772
365 4 11.8063 43.2898 0
367 4 11.8063 45.2575 1.96772
366 4 13.774 43.2898 1.96772
8568 2 13.774 45.2575 0
8569 2 13.774 43.2898 1.96772
368 4 17.7094 43.2898 1.96772
371 4 19.6772 45.2575 1.96772
8570 2 17.7094 43.2898 1.96772
8572 2 19.6772 45.2575 1.96772
369 4 21.6449 45.2575 0
370 4 21.6449 43.2898 1.96772
8571 2 21.6449 45.2575 0
372 4 25.5803 43.2898 1.96772
373 4 23.6126 45.2575 1.96772
8573 2 25.5803 43.2898 1.96772
8574 2 23.6126 45.2575 1.96772
374 4 27.548 43.2898 0
375 4 29.5157 45.2575 0
376 4 29.5157 43.2898 1.96772
377 4 27.548 45.2575 1.96772
8575 2 27.548 43.2898 0
8576 2 29.5157 43.2898 1.96772
8577 2 27.548 45.2575 1.96772
378 4 31.4835 43.2898 0
379 4 33.4512 43.2898 1.96772
380 4 35.4189 43.2898 0
8578 2 35.4189 43.2898 0
8579 2 35.4189 45.2575 1.96772
381 4 37.3866 43.2898 1.96772
382 4 41.322 45.2575 0
383 4 41.322 43.2898 1.96772
8580 2 41.322 45.2575 0
384 4 45.2575 45.2575 0
385 4 45.2575 43.2898 1.96772
8581 2 45.2575 43.2898 1.96772
386 4 47.2252 45.2575 1.96772
387 4 51.1606 43.2898 0
389 4 51.1606 45.2575 1.96772
388 4 53.1283 45.2575 0
390 4 55.0961 43.2898 0
8582 2 53.1283 43.2898 1.96772
8585 2 55.0961 45.2575 1.96772
391 4 57.0638 43.2898 1.96772
393 4 59.0315 45.2575 1.96772
8583 2 57.0638 45.2575 0
8584 2 57.0638 43.2898 1.96772
8587 2 59.0315 45.2575 1.96772
392 4 60.9992 45.2575 0
8586 2 60.9992 43.2898 1.96772
394 4 0 49.1929 1.96772
8588 2 1.96772 49.1929 0
8589 2 0 49.1929 1.96772
395 4 3.93543 47.2252 0
396 4 3.93543 49.1929 1.96772
8590 2 5.90315 49.1929 0
8591 2 5.90315 47.2252 1.96772
8592 2 3.93543 49.1929 1.96772
397 4 7.87087 47.2252 0
398 4 9.83858 49.1929 0
399 4 9.83858 47.2252 1.96772
400 4 7.87087 49.1929 1.96772
8593 2 7.87087 47.2252 0
8594 2 9.83858 49.1929 0
8595 2 9.83858 47.2252 1.96772
401 4 13.774 47.2252 1.96772
402 4 15.7417 47.2252 0
404 4 15.7417 49.1929 1.96772
8596 2 13.774 49.1929 0
403 4 17.7094 49.1929 0
405 4 19.6772 49.1929 1.96772
8597 2 17.7094 47.2252 1.96772
8598 2 19.6772 47.2252 0
8599 2 21.6449 47.2252 1.96772
406 4 23.6126 47.2252 0
8600 2 23.6126 47.2252 0
8601 2 25.5803 47.2252 1.96772
407 4 27.548 47.2252 0
8602 2 27.548 47.2252 0
8603 2 27.548 49.1929 1.96772
8606 2 31.4835 49.1929 1.96772
409 4 35.4189 49.1929 1.96772
8604 2 33.4512 49.1929 0
8605 2 33.4512 47.2252 1.96772
8607 2 35.4189 47.2252 0
8609 2 35.4189 49.1929 1.96772
408 4 37.3866 47.2252 1.96772
410 4 39.3543 47.2252 0
8608 2 37.3866 47.2252 1.96772
8610 2 39.3543 47.2252 0
8613 2 39.3543 49.1929 1.96772
411 4 41.322 49.1929 0
412 4 41.322 47.2252 1.96772
8611 2 41.322 49.1929 0
8612 2 41.322 47.2252 1.96772
413 4 43.2898 47.2252 0
414 4 45.2575 49.1929 0
415 4 45.2575 47.2252 1.96772
8614 2 43.2898 47.2252 0
8615 2 45.2575 47.2252 1.96772
416 4 49.1929 49.1929 0
417 4 47.2252 49.1929 1.96772
8616 2 47.2252 47.2252 0
8617 2 49.1929 47.2252 1.96772
418 4 51.1606 47.2252 0
8618 2 51.1606 47.2252 0
8620 2 51.1606 49.1929 1.96772
419 4 53.1283 47.2252 1.96772
420 4 55.0961 47.2252 0
8619 2 53.1283 49.1929 0
8621 2 55.0961 49.1929 1.96772
421 4 57.0638 49.1929 0
422 4 59.0315 47.2252 0
424 4 59.0315 49.1929 1.96772
8622 2 59.0315 47.2252 0
423 4 60.9992 49.1929 0
8623 2 0 51.1606 0
8624 2 1.96772 51.1606 1.96772
426 4 3.93543 51.1606 0
8625 2 5.90315 51.1606 1.96772
8627 2 7.87087 51.1606 0
8628 2 9.83858 51.1606 1.96772
429 4 11.8063 51.1606 0
432 4 15.7417 51.1606 0
8631 2 13.774 51.1606 1.96772
435 4 19.6772 51.1606 0
8635 2 21.6449 51.1606 1.96772
436 4 23.6126 51.1606 0
438 4 25.5803 51.1606 1.96772
8636 2 23.6126 51.1606 0
440 4 29.5157 51.1606 1.96772
8638 2 29.5157 51.1606 1.96772
441 4 31.4835 51.1606 0
443 4 37.3866 51.1606 1.96772
445 4 39.3543 51.1606 0
8641 2 37.3866 51.1606 1.96772
448 4 43.2898 51.1606 0
449 4 45.2575 51.1606 1.96772
8644 2 43.2898 51.1606 0
450 4 47.2252 51.1606 0
452 4 49.1929 51.1606 1.96772
8647 2 49.1929 51.1606 1.96772
454 4 51.1606 51.1606 0
8649 2 51.1606 51.1606 0
456 4 53.1283 51.1606 1.96772
8651 2 53.1283 51.1606 1.96772
8652 2 55.0961 51.1606 0
457 4 57.0638 51.1606 1.96772
459 4 59.0315 51.1606 0
8655 2 59.0315 51.1606 0
460 4 60.9992 51.1606 1.96772
8657 2 60.9992 51.1606 1.96772
425 4 0 53.1283 1.96772
8658 2 0 55.0961 0
8660 2 1.96772 55.0961 1.96772
427 4 3.93543 53.1283 1.96772
8626 2 3.93543 53.1283 1.96772
428 4 9.83858 53.1283 0
463 4 9.83858 55.0961 1.96772
8629 2 7.87087 53.1283 1.96772
8662 2 7.87087 55.0961 0
431 4 11.8063 53.1283 1.96772
464 4 11.8063 55.0961 0
8632 2 11.8063 53.1283 1.96772
8665 2 11.8063 55.0961 0
430 4 13.774 53.1283 0
434 4 15.7417 53.1283 1.96772
465 4 15.7417 55.0961 0
8630 2 13.774 53.1283 0
8634 2 15.7417 53.1283 1.96772
8667 2 13.774 55.0961 1.96772
8668 2 15.7417 55.0961 0
433 4 17.7094 53.1283 0
467 4 19.6772 55.0961 0
8633 2 17.7094 53.1283 0
8669 2 19.6772 55.0961 0
468 4 21.6449 55.0961 1.96772
437 4 25.5803 53.1283 0
470 4 25.5803 55.0961 1.96772
8637 2 25.5803 53.1283 0
8671 2 23.6126 55.0961 0
439 4 29.5157 53.1283 0
471 4 27.548 55.0961 0
473 4 29.5157 55.0961 1.96772
8639 2 27.548 53.1283 1.96772
8673 2 29.5157 55.0961 1.96772
8640 2 31.4835 53.1283 1.96772
8674 2 31.4835 55.0961 0
444 4 35.4189 53.1283 1.96772
475 4 33.4512 55.0961 1.96772
8676 2 35.4189 55.0961 0
442 4 37.3866 53.1283 0
447 4 39.3543 53.1283 1.96772
477 4 37.3866 55.0961 1.96772
478 4 39.3543 55.0961 0
8643 2 39.3543 53.1283 1.96772
8677 2 37.3866 55.0961 1.96772
446 4 41.322 53.1283 0
479 4 41.322 55.0961 1.96772
8642 2 41.322 53.1283 0
8680 2 41.322 55.0961 1.96772
481 4 45.2575 55.0961 1.96772
8645 2 45.2575 53.1283 0
8646 2 43.2898 53.1283 1.96772
451 4 49.1929 53.1283 0
453 4 47.2252 53.1283 1.96772
483 4 47.2252 55.0961 0
484 4 49.1929 55.0961 1.96772
8648 2 47.2252 53.1283 1.96772
8684 2 51.1606 55.0961 0
455 4 53.1283 53.1283 0
458 4 55.0961 53.1283 1.96772
8650 2 53.1283 53.1283 0
8654 2 55.0961 53.1283 1.96772
8687 2 55.0961 55.0961 0
488 4 57.0638 55.0961 1.96772
489 4 59.0315 55.0961 0
8653 2 57.0638 53.1283 0
491 4 60.9992 55.0961 1.96772
8656 2 60.9992 53.1283 0
8659 2 1.96772 57.0638 0
8689 2 0 59.0315 0
461 4 5.90315 57.0638 0
493 4 3.93543 59.0315 0
8661 2 3.93543 57.0638 1.96772
8692 2 3.93543 59.0315 0
8693 2 5.90315 59.0315 1.96772
462 4 9.83858 57.0638 0
496 4 7.87087 59.0315 0
497 4 9.83858 59.0315 1.96772
8663 2 9.83858 57.0638 0
8664 2 7.87087 57.0638 1.96772
8697 2 11.8063 59.0315 0
466 4 15.7417 57.0638 1.96772
8666 2 13.774 57.0638 0
8698 2 13.774 59.0315 1.96772
8699 2 15.7417 59.0315 0
469 4 19.6772 57.0638 1.96772
8701 2 17.7094 59.0315 1.96772
8703 2 19.6772 59.0315 0
500 4 21.6449 59.0315 1.96772
8670 2 21.6449 57.0638 0
502 4 23.6126 59.0315 0
8672 2 23.6126 57.0638 1.96772
8705 2 25.5803 59.0315 1.96772
472 4 29.5157 57.0638 0
474 4 27.548 57.0638 1.96772
503 4 27.548 59.0315 0
505 4 29.5157 59.0315 1.96772
8707 2 27.548 59.0315 0
8708 2 29.5157 59.0315 1.96772
507 4 33.4512 59.0315 1.96772
509 4 35.4189 59.0315 0
8675 2 33.4512 57.0638 0
8678 2 35.4189 57.0638 1.96772
8712 2 35.4189 59.0315 0
476 4 37.3866 57.0638 0
511 4 37.3866 59.0315 1.96772
512 4 39.3543 59.0315 0
8681 2 39.3543 57.0638 1.96772
8713 2 37.3866 59.0315 1.96772
8715 2 39.3543 59.0315 0
8679 2 41.322 57.0638 0
8717 2 41.322 59.0315 1.96772
480 4 45.2575 57.0638 0
482 4 43.2898 57.0638 1.96772
513 4 43.2898 59.0315 0
514 4 45.2575 59.0315 1.96772
8682 2 43.2898 57.0638 1.96772
8719 2 43.2898 59.0315 0
515 4 49.1929 59.0315 1.96772
8683 2 47.2252 57.0638 1.96772
8721 2 49.1929 59.0315 1.96772
486 4 51.1606 57.0638 1.96772
517 4 51.1606 59.0315 0
8686 2 51.1606 57.0638 1.96772
8722 2 51.1606 59.0315 0
485 4 53.1283 57.0638 0
518 4 53.1283 59.0315 1.96772
8685 2 53.1283 57.0638 0
8724 2 53.1283 59.0315 1.96772
487 4 57.0638 57.0638 0
8688 2 57.0638 57.0638 0
8727 2 57.0638 59.0315 1.96772
490 4 60.9992 57.0638 0
521 4 60.9992 59.0315 1.96772
8729 2 60.9992 59.0315 1.96772
492 4 1.96772 60.9992 0
8690 2 1.96772 60.9992 0
8691 2 0 60.9992 1.96772
494 4 5.90315 60.9992 0
495 4 3.93543 60.9992 1.96772
8694 2 3.93543 60.9992 1.96772
8695 2 9.83858 60.9992 0
8696 2 7.87087 60.9992 1.96772
498 4 13.774 60.9992 0
8702 2 15.7417 60.9992 1.96772
501 4 19.6772 60.9992 1.96772
8700 2 17.7094 60.9992 0
499 4 21.6449 60.9992 0
8704 2 25.5803 60.9992 0
8706 2 23.6126 60.9992 1.96772
504 4 29.5157 60.9992 0
8709 2 27.548 60.9992 1.96772
508 4 31.4835 60.9992 1.96772
8711 2 31.4835 60.9992 1.96772
506 4 33.4512 60.9992 0
8710 2 33.4512 60.9992 0
8714 2 35.4189 60.9992 1.96772
510 4 37.3866 60.9992 0
8718 2 39.3543 60.9992 1.96772
8716 2 41.322 60.9992 0
8720 2 45.2575 60.9992 0
516 4 47.2252 60.9992 1.96772
519 4 51.1606 60.9992 1.96772
8725 2 51.1606 60.9992 1.96772
8723 2 53.1283 60.9992 0
8726 2 57.0638 60.9992 0
520 4 60.9992 60.9992 0
8728 2 60.9992 60.9992 0
8730 2 1.96772 1.96772 3.93543
8731 2 0 1.96772 5.90315
522 4 5.90315 0 5.90315
523 4 3.93543 1.96772 5.90315
8732 2 5.90315 1.96772 3.93543
8733 2 5.90315 0 5.90315
8734 2 3.93543 1.96772 5.90315
524 4 9.83858 0 5.90315
8735 2 7.87087 0 3.93543
8736 2 9.83858 0 5.90315
8737 2 7.87087 1.96772 5.90315
527 4 11.8063 1.96772 5.90315
8739 2 11.8063 1.96772 5.90315
525 4 13.774 1.96772 3.93543
526 4 13.774 0 5.90315
528 4 15.7417 0 3.93543
8738 2 13.774 0 5.90315
8740 2 15.7417 0 3.93543
8741 2 15.7417 1.96772 5.90315
529 4 17.7094 0 5.90315
531 4 19.6772 1.96772 5.90315
8742 2 19.6772 1.96772 5.90315
530 4 21.6449 0 5.90315
532 4 25.5803 1.96772 3.93543
533 4 25.5803 0 5.90315
8743 2 23.6126 0 3.93543
8744 2 25.5803 1.96772 3.93543
8745 2 23.6126 1.96772 5.90315
534 4 27.548 0 3.93543
535 4 27.548 1.96772 5.90315
8746 2 27.548 0 3.93543
8747 2 29.5157 0 5.90315
536 4 31.4835 0 3.93543
539 4 31.4835 1.96772 5.90315
8748 2 31.4835 0 3.93543
8749 2 31.4835 1.96772 5.90315
537 4 33.4512 1.96772 3.93543
538 4 33.4512 0 5.90315
8752 2 35.4189 1.96772 5.90315
540 4 39.3543 0 3.93543
8750 2 37.3866 1.96772 3.93543
8751 2 37.3866 0 5.90315
8753 2 39.3543 1.96772 5.90315
541 4 43.2898 0 3.93543
542 4 45.2575 1.96772 3.93543
8754 2 45.2575 1.96772 3.93543
8755 2 45.2575 0 5.90315
543 4 49.1929 1.96772 3.93543
544 4 49.1929 0 5.90315
545 4 47.2252 1.96772 5.90315
8756 2 47.2252 1.96772 5.90315
546 4 51.1606 0 3.93543
549 4 51.1606 1.96772 5.90315