ITEM: TIMESTEP
0
ITEM: NUMBER OF ATOMS
50688
ITEM: BOX BOUNDS xy xz yz pp pp pp
-20.3679009 74.099556 14.1866474
-22.2159996 65.355896 0.0
-22.2159996 65.355896 0.0
ITEM: ATOMS id type x y z VoronoiIndex1 VoronoiIndex2 VoronoiIndex3 VoronoiIndex4 VoronoiIndex5 VoronoiIndex6 VoronoiIndex7 VoronoiIndex8 VoronoiIndex9 AtomicVolume
9 1 -12.0 -12.0299997 3.924 0 0 0 3 6 4 0 0 0 11.6502095
25 2 7.3520002 19.6100006 18.3299999 0 0 0 0 12 0 0 0 0 11.4989949
35 2 20.8299999 15.29 -13.1800003 0 0 1 4 3 6 0 0 0 12.252739
42 2 21.6499996 15.6400004 -9.1090002 0 0 0 2 10 0 0 0 0 11.2898598
57 5 5.1269999 -3.9100002 -19.6200009 0 0 0 1 10 2 0 0 0 12.1322222
71 2 3.1329999 18.4500008 -14.1199999 0 0 0 2 10 0 0 0 0 11.0995588
81 4 13.4499998 -3.234 -9.1879997 0 0 0 0 12 0 0 0 0 11.0198469
82 5 -14.1199999 -13.6099997 -21.7099991 0 0 0 1 10 2 0 0 0 11.2619085
91 2 2.799 19.2399998 -10.1400003 0 0 0 0 12 2 0 0 0 12.3099146
101 1 -9.5279999 -18.5300007 -4.0570002 0 0 0 5 4 3 0 0 0 11.6671849
105 4 2.4470001 13.5900002 -16.0 0 0 1 4 3 6 0 0 0 12.1835451
110 5 -8.3719998 -16.5200005 2.569 0 0 0 3 8 4 0 0 0 12.6885491
112 2 10.54 -3.7880001 14.8800002 0 0 0 2 8 3 0 0 0 12.2033625
128 5 -14.5200005 -13.4399996 7.935 0 0 0 3 6 4 0 0 0 12.4936266
141 5 3.7200001 8.0010004 -9.1669998 0 0 0 4 4 6 0 0 0 12.3291845
147 5 11.1999998 -2.2950001 11.1000004 0 0 1 1 8 3 1 0 0 11.8882514
159 4 14.5799999 -2.893 15.5900002 0 0 1 2 7 4 0 0 0 12.1729298
165 1 21.0300007 -10.9099998 -14.87 0 0 0 0 12 0 0 0 0 11.0491476
168 5 3.599 -7.6180001 -15.1300001 0 0 1 0 9 3 0 0 0 11.3108235
171 2 -1.832 7.8790002 -10.25 0 0 0 4 4 4 2 0 0 11.6697274
174 4 -8.2469998 16.8600006 12.0799999 0 0 0 4 8 1 0 0 0 12.3439102
184 2 12.7299996 -1.3380001 12.7799998 0 0 0 2 8 3 0 0 0 11.5841666
186 5 13.3299999 12.5799999 -15.8999996 0 0 0 4 8 1 0 0 0 11.8836136
196 5 9.8610002 -7.3940001 -1.839 0 0 0 1 10 3 0 0 0 12.3248167
214 2 0.3846 16.9099998 -18.1200008 0 0 0 3 6 4 0 0 0 12.1167202
217 2 -16.0300007 -6.6199999 19.6399994 0 0 0 2 10 0 0 0 0 11.8802242
243 4 2.5710001 1.958 14.3599997 0 0 2 2 6 5 0 0 0 12.3959608
244 5 10.3500004 -12.3199997 18.9899998 0 0 0 2 8 4 0 0 0 12.7155724
245 1 -10.4200001 4.2100001 -20.7199993 0 0 1 2 6 3 1 0 0 11.1819639
247 2 10.8599998 14.2799997 -4.8330002 0 0 0 1 10 2 0 0 0 12.0392962
254 2 -7.77 18.3299999 -7.6329999 0 0 1 2 6 3 1 0 0 11.7506123
273 4 19.2999992 -11.7700005 0.491 0 0 0 2 8 5 0 0 0 12.5346537
275 4 15.1099997 -0.1894 11.9200002 0 0 0 4 6 4 0 0 0 12.3727541
288 5 -11.3699999 14.2700005 21.3400002 0 0 0 1 12 1 0 0 0 12.0607128
295 4 -3.7420001 4.0710001 -8.9090004 0 0 0 3 8 3 0 0 0 13.0894251
299 5 -0.003806 19.6000004 -18.6100006 0 0 0 0 12 3 0 0 0 12.972438
300 2 17.8799992 -8.5530005 1.6970001 0 0 0 3 6 3 0 0 0 12.1484938
313 5 -1.76 -13.4399996 3.603 0 0 1 1 10 3 1 0 0 13.8265791
314 5 -17.7399998 -20.9400006 3.7200001 0 0 0 1 10 2 0 0 0 11.8918906
327 4 -2.1359999 -2.1719999 14.7299996 0 0 0 3 6 4 0 0 0 11.880477
335 1 -9.474 17.9099998 -14.25 0 0 0 0 12 0 0 0 0 11.6217337
348 4 -8.7180004 4.151 11.7700005 0 0 0 3 6 4 0 0 0 11.8577348
360 4 9.2950001 -20.6800003 -7.7270003 0 0 0 3 8 6 0 0 0 14.1150379
364 4 -7.5739999 5.072 -15.8199997 0 0 1 2 8 3 1 0 0 12.8163004
387 4 14.8500004 -11.4499998 0.7171 0 0 0 1 10 4 0 0 0 12.7427473
397 1 -7.9590002 2.418 19.1499996 0 0 0 2 8 4 0 0 0 11.7665768
401 4 -14.3400002 12.8000002 12.4099999 0 0 0 5 5 4 1 0 0 11.6643849
410 4 7.5180002 -3.5280001 7.639 0 0 0 2 10 2 0 0 0 12.3450422
412 1 -5.9530002 13.6000004 -5.8579998 0 0 0 3 6 3 0 0 0 11.6373091
415 2 -7.844 3.3800001 -12.5299998 0 0 0 3 6 4 0 0 0 11.8538238
419 2 4.9590002 -10.25 -11.3599997 0 0 0 1 10 2 0 0 0 12.0384874
420 5 9.1260004 -10.29 -10.8800002 0 0 0 2 10 1 0 0 0 11.8854532
432 5 4.2729998 10.0600004 8.2790003 0 0 0 1 10 3 0 0 0 12.3419314
438 4 -13.3999996 -18.9899998 16.5 0 0 0 0 12 2 0 0 0 12.5142126
439 4 -7.896 18.9200002 -15.75 0 0 1 3 5 6 0 0 0 12.0931387
442 4 5.8330002 18.1200008 -18.4099999 0 0 1 3 7 3 0 0 0 12.742734
453 4 0.6183 2.2509999 7.928 0 0 0 4 5 4 1 0 0 13.2633867
459 4 -11.1400003 1.938 -21.1399994 0 0 1 2 9 1 0 0 0 12.245697
465 3 18.9899998 -10.0699997 -15.5500002 0 0 1 0 11 1 0 0 0 11.4807797
477 5 -13.1099997 -5.4050002 -3.8020001 0 0 1 5 3 4 2 0 0 13.2311211
485 4 7.0450001 5.2919998 -15.6300001 0 0 0 0 12 2 0 0 0 12.1764231
515 5 -1.423 -13.1999998 16.8700008 0 0 0 0 12 2 0 0 0 12.0295277
520 5 4.2340002 -15.9300004 11.3199997 0 0 0 4 6 4 0 0 0 12.5235949
533 4 10.6300001 5.5050001 -4.4089999 0 0 0 0 12 4 0 0 0 13.6127568
537 2 16.7399998 8.9709998 -9.4040003 0 0 0 3 6 2 0 0 0 10.9907676
539 2 -7.942 7.408 -21.8999996 0 0 0 3 6 4 0 0 0 12.1727505
540 5 -9.8109999 -15.8900004 0.6516 0 0 0 2 10 0 0 0 0 11.9385786
550 4 7.3940001 -9.6560002 12.3400002 0 0 0 1 10 3 0 0 0 12.2048559
557 2 -12.9300004 21.2099991 -9.6020003 0 0 0 1 10 2 0 0 0 12.4644032
562 2 2.346 -11.7700005 -21.9599992 0 0 1 3 7 1 2 0 0 12.0717754
564 4 12.8500004 -0.07154 18.0200005 0 0 0 7 2 5 0 0 0 12.2571192
567 4 6.0809999 -13.2399998 21.0499992 0 0 0 0 12 0 0 0 0 11.0078411
574 5 15.7700005 -16.1800003 -13.1099997 0 0 0 1 10 3 0 0 0 12.0838423
580 2 15.7200003 -15.5500002 -10.87 0 0 0 3 5 3 1 0 0 11.9014988
585 4 11.0500002 -8.8789998 -11.9200002 0 0 0 2 8 5 0 0 0 12.6201144
603 5 -11.3299999 -17.75 -0.3258 0 0 0 0 12 0 0 0 0 11.4461079
604 4 21.7199993 -8.3859997 16.7099991 0 0 0 2 8 6 0 0 0 12.5702658
620 4 2.474 17.6900006 8.1549997 0 0 0 0 12 2 0 0 0 12.9699974
622 5 1.285 -3.695 5.402 0 0 0 0 12 2 0 0 0 12.0613098
642 4 -5.4780002 4.0879998 -20.0599995 0 0 0 2 8 5 0 0 0 12.4243441
643 5 14.8199997 0.4656 -17.7800007 0 0 0 4 6 2 0 0 0 11.9728566
650 2 16.2600002 -12.7700005 17.3099995 0 0 0 0 12 0 0 0 0 11.5762768
653 4 -0.9834 -15.8000002 3.2260001 0 0 1 1 9 3 2 0 0 14.0276337
654 4 0.6923 -7.4730001 -0.4427 0 0 0 0 12 2 0 0 0 12.2589846
656 4 5.434 -13.4600001 15.04 0 0 0 1 10 2 0 0 0 12.0524263
665 4 -8.6730004 -6.579 -22.1900005 0 0 1 2 6 5 1 0 0 12.2002535
666 4 -11.4399996 -10.1300001 -0.0633 0 0 1 0 11 1 0 0 0 11.4941225
671 2 18.1100006 -0.5616001 17.3700009 0 0 1 0 11 1 0 0 0 11.6402636
673 2 9.9119998 6.3509998 12.6599999 0 0 0 0 12 0 0 0 0 11.3877411
679 4 9.7510004 14.2299996 17.6599999 0 0 0 0 12 0 0 0 0 11.129427
683 5 -6.5159998 11.79 19.2399998 0 0 0 4 5 4 1 0 0 11.7540884
687 5 13.6000004 -9.9899998 19.8899994 0 0 1 1 8 2 1 0 0 12.0171232
712 4 24.8500004 10.8900004 -15.5699997 0 0 0 2 8 5 0 0 0 12.7807827
716 4 1.152 5.678 4.5700002 0 0 0 5 6 2 0 0 0 11.9737636
717 4 4.9330002 -19.2000008 1.849 0 0 0 1 10 4 0 0 0 12.454216
728 5 5.2100001 0.9846 4.0339999 0 0 0 1 10 4 0 0 0 13.2067022
740 2 21.0100002 4.316 17.7900009 0 0 0 3 8 2 0 0 0 12.3044844
745 4 -0.244 -14.9700004 -17.6499996 0 0 0 1 10 2 0 0 0 11.6729174
761 5 -5.2880001 13.4499998 -12.1599999 0 0 1 2 7 3 0 0 0 12.1409607
775 2 -3.8169999 -12.6000004 21.5200005 0 0 0 0 12 0 0 0 0 11.3080101
776 4 19.3199997 6.8800002 4.969 0 0 0 2 8 4 0 0 0 12.1743898
781 4 -8.5190001 -18.3799992 -11.2299996 0 0 0 2 7 4 1 0 0 12.6820326
798 5 -6.849 20.6000004 -3.3629999 0 0 0 1 10 3 0 0 0 11.5688601
799 4 24.1200008 4.6279998 -1.435 0 0 1 0 9 3 0 0 0 11.581461
806 4 -7.4730001 5.4689999 16.6800003 0 0 0 2 7 4 1 0 0 12.320096
841 5 -10.3299999 21.0799999 -13.1099997 0 0 2 2 5 6 1 0 0 12.5905562
843 2 2.816 -2.424 -8.309 0 0 0 4 8 0 0 0 0 11.5194865
846 3 17.4699993 -14.6499996 -14.4300003 0 0 1 1 8 3 1 0 0 12.1742649
860 4 23.2800007 2.3900001 14.3599997 0 0 0 2 8 4 0 0 0 11.9929334
864 2 5.309 -2.813 1.068 0 0 0 2 10 0 0 0 0 11.6007147
897 5 5.5910001 -3.7620001 11.0200005 0 0 0 2 8 2 0 0 0 11.0821104
905 4 19.2199993 -3.8050001 -2.866 0 0 0 0 12 2 0 0 0 11.7860899
917 5 8.1370001 -12.5799999 20.3299999 0 0 0 0 12 0 0 0 0 11.381527
949 2 13.8900004 4.3299999 21.0300007 0 0 0 1 10 3 0 0 0 11.8608428
952 2 10.9200002 1.186 1.085 0 0 0 0 12 2 0 0 0 13.0086546
961 2 -2.5880001 -19.1599999 -6.3829999 0 0 0 4 6 4 0 0 0 11.7682076
990 4 3.2909999 -13.5500002 -20.4400006 0 0 2 0 9 3 1 0 0 13.1062222
996 5 13.0299997 -8.724 16.0100002 0 0 0 1 10 3 0 0 0 11.8384161
999 4 2.0780001 10.1700001 -10.2200003 0 0 0 2 8 5 0 0 0 12.1298027
1009 5 8.6260004 12.0699997 18.2999992 0 0 0 0 12 0 0 0 0 11.3784819
1018 3 23.7000008 18.6299992 13.8000002 0 0 0 1 10 2 0 0 0 11.9279748
1023 2 16.7900009 -2.984 -16.0100002 0 0 0 3 7 2 1 0 0 12.2489739
1027 4 -6.5289998 -9.3959999 18.3099995 0 0 0 3 6 5 0 0 0 12.1733675
1034 4 13.3999996 7.718 -14.3199997 0 0 0 0 12 0 0 0 0 11.591527
1039 5 10.1300001 11.4300003 -21.0499992 0 0 0 4 4 6 0 0 0 12.3614035
1040 1 7.3740001 -14.2399998 -20.9599992 0 0 0 3 6 4 0 0 0 11.0895624
1053 4 -16.5300007 -1.262 0.06703 0 0 0 2 8 3 1 0 0 12.8548986
1063 5 16.3400002 -19.9099998 -14.8999996 0 0 0 1 10 2 0 0 0 11.7992287
1067 3 17.4400006 -6.3039999 -19.0900002 0 0 0 2 8 4 0 0 0 12.4468985
1068 5 -4.3049998 6.4229999 -1.702 0 0 0 3 8 3 0 0 0 11.3846378
1087 4 -13.3500004 15.9200002 -0.3764 0 0 1 3 4 6 1 0 0 12.0964375
1089 4 -3.6170001 -6.6690002 4.2080002 0 0 1 0 13 3 0 0 0 13.1168222
1091 5 -2.2560001 -15.5699997 8.1160002 0 0 1 1 9 3 0 0 0 11.953045
1094 5 9.8660002 3.1440001 19.3500004 0 0 1 1 9 3 0 0 0 12.8610392
1097 1 23.0200005 0.778 -17.7000008 0 0 0 0 12 0 0 0 0 10.9254236
1101 4 -9.0039997 -15.2399998 11.0799999 0 0 0 2 8 6 0 0 0 13.7107678
1111 4 -14.3699999 -19.0900002 20.8999996 0 0 0 2 10 1 0 0 0 11.601264
1113 4 13.4799996 5.2740002 18.7099991 0 0 1 1 9 2 0 0 0 11.2489929
1119 4 17.4699993 -6.658 19.8400002 0 0 1 3 4 5 1 0 0 12.0924816
1127 2 -5.342 15.8199997 -2.392 0 0 1 2 7 2 2 0 0 11.8569966
1129 2 18.1200008 20.3199997 19.9899998 0 0 0 0 12 0 0 0 0 11.1281672
1143 5 -4.7870002 12.6099997 0.09351 0 0 0 2 10 2 0 0 0 12.7031021
1147 4 -13.1000004 0.5733 -10.1800003 0 0 0 1 10 2 0 0 0 11.5339937
1152 2 -11.1199999 -11.6700001 -6.8920002 0 0 0 2 8 2 0 0 0 11.3830214
1158 2 3.3710001 14.5299998 13.3500004 0 0 0 0 12 0 0 0 0 11.5608082
1161 4 9.8260002 -0.8052 -3.076 0 0 0 0 12 3 0 0 0 12.6831475
1167 4 20.0200005 -4.5510001 -0.4825 0 0 0 0 12 0 0 0 0 11.4098911
1171 5 -1.156 0.5924 14.2100001 0 0 0 2 8 5 0 0 0 11.857542
1175 4 7.1459999 17.9699994 15.9399996 0 0 0 0 12 3 0 0 0 12.4720211
1185 2 8.6820002 -3.546 -21.3999996 0 0 0 0 12 0 0 0 0 11.1287012
1190 2 -10.2700005 -14.6800003 -16.1599999 0 0 0 4 6 4 0 0 0 12.5148745
1191 4 -12.1199999 19.8899994 -11.7299996 0 0 0 3 8 2 0 0 0 12.116559
1207 5 11.7299996 19.0499992 18.3700009 0 0 0 1 10 2 0 0 0 11.757206
1208 4 15.4600001 18.1800003 -4.7560001 0 0 1 2 7 5 0 0 0 13.0107088
1212 4 8.9320002 -2.7820001 11.4300003 0 0 0 3 6 3 2 0 0 12.0842562
1214 5 17.4400006 4.9130002 15.8299999 0 0 0 2 8 2 0 0 0 11.4542113
1217 5 -8.0629997 10.6899996 4.145 0 0 0 0 12 3 0 0 0 13.1062365
1226 4 11.3900004 19.6000004 -16.2099991 0 0 0 2 8 4 0 0 0 12.0289822
1243 2 -0.1465 -21.7299996 18.4599991 0 0 0 2 8 2 0 0 0 11.2717514
1245 5 18.6499996 -14.5699997 1.515 0 0 0 1 10 3 0 0 0 11.8848572
1246 4 9.9680004 11.7799998 -10.6800003 0 0 1 3 6 5 1 0 0 13.0512486
1249 2 -8.6619997 -6.9629998 21.2600002 0 0 1 2 6 5 1 0 0 12.0928316
1250 2 -5.3959999 13.0900002 6.8520002 0 0 0 1 10 2 0 0 0 11.4426728
1252 4 -15.6199999 -17.0599995 -18.9799996 0 0 0 4 8 2 0 0 0 12.5419522
1261 4 5.7839999 -0.7897 -0.5864 0 0 0 2 10 1 0 0 0 12.255496
1269 5 -17.0799999 -18.7800007 -7.4600001 0 0 0 1 9 3 1 0 0 12.6598435
1270 2 0.0351 7.1329999 0.4098 0 0 1 2 7 4 0 0 0 11.502017
1295 4 -3.711 -20.3999996 -4.2659998 0 0 0 2 10 2 0 0 0 13.0320778
1305 5 -1.415 18.2199993 14.1499996 0 0 0 3 6 6 0 0 0 12.865489
1306 5 -3.773 16.9200002 -8.7060004 0 0 0 2 10 1 0 0 0 12.3077955
1318 5 -1.1339999 -2.164 -13.2700005 0 0 0 0 12 2 0 0 0 12.2686787
1328 2 6.2490001 14.8000002 -5.0700002 0 0 0 0 12 0 0 0 0 11.5485287
1335 5 -4.2909999 1.022 20.8700008 0 0 1 1 8 3 1 0 0 12.2453175
1337 4 15.7100001 -13.1499996 -7.5669999 0 0 0 5 4 4 0 0 0 11.6678429
1340 4 15.1000004 15.4700003 -0.3504 0 0 0 3 6 5 0 0 0 12.5189858
1352 4 -18.4300003 -19.8899994 17.9699994 0 0 0 3 8 3 0 0 0 12.8893652
1357 5 16.1599999 -9.4049997 -5.0029998 0 0 0 1 12 2 0 0 0 13.2057791
1371 4 17.2600002 9.1490002 -1.4880001 0 0 0 0 12 0 0 0 0 11.1558456
1374 4 16.2800007 -6.9650002 1.5 0 0 0 2 8 5 0 0 0 12.9227906
1384 2 20.9400006 -12.7700005 -13.2200003 0 0 0 1 10 2 0 0 0 11.1040163
1386 2 7.2870002 2.1389999 4.8060003 0 0 0 3 6 4 0 0 0 11.7345877
1388 5 12.1099997 -2.6830001 -7.2540002 0 0 0 2 8 2 0 0 0 10.9375534
1393 4 3.428 -5.5219999 5.0229998 0 0 0 1 10 2 0 0 0 12.1025763
1410 1 24.7999993 12.4099999 0.2514 0 0 0 0 12 0 0 0 0 11.2956514
1415 4 1.267 -12.6300001 -2.164 0 0 0 1 10 4 0 0 0 13.2209177
1419 4 11.7200003 -17.6299992 -14.0 0 0 0 1 10 3 0 0 0 13.0413685
1427 5 18.5400009 -16.2000008 -2.8970002 0 0 0 0 12 0 0 0 0 10.6391382
1433 5 0.5557 -3.8340001 14.5900002 0 0 0 5 4 5 0 1 0 12.8887654
1444 4 -4.6939998 3.0179999 11.5100003 0 0 0 5 4 3 1 0 0 12.3277063
1447 4 2.4070001 -19.0 14.9399996 0 0 0 4 8 3 0 0 0 12.7618351
1450 1 18.0699997 5.625 -6.1960001 0 0 0 4 8 1 0 0 0 11.7768355
1452 4 -9.0439997 -7.4850002 -19.5699997 0 0 0 1 10 4 0 0 0 12.930872
1469 2 2.836 -16.3500004 -1.6820001 0 0 0 2 10 1 0 0 0 11.4667111
1471 5 -18.5900002 -20.0499992 -11.1999998 0 0 0 0 12 2 0 0 0 11.9418202
1487 4 1.5110001 -14.8800002 -8.8210001 0 0 1 4 3 6 0 0 0 12.4311505
1504 5 9.5869999 5.968 -16.5699997 0 0 0 3 6 5 0 0 0 12.2731505
1516 2 17.2700005 18.7199993 -2.8770002 0 0 0 0 12 0 0 0 0 11.6819687
1528 2 19.1700001 -19.7299996 17.0799999 0 0 0 0 12 0 0 0 0 11.3720989
1533 2 8.4130001 2.052 -6.026 0 0 1 0 9 3 0 0 0 11.9439602
1534 4 8.1899996 16.5100003 0.8444 0 0 2 3 6 4 0 0 0 12.3217077
1543 1 -18.9200002 -17.1000004 6.1399999 0 0 0 1 10 2 0 0 0 11.5515719
1548 4 10.2799997 -15.6700001 16.5499993 0 0 0 2 8 4 0 0 0 12.4703617
1550 4 -3.721 -12.9300004 -13.1499996 0 0 0 2 10 2 0 0 0 13.3008986
1561 4 -13.3699999 4.1100001 4.6009999 0 0 0 4 4 6 0 0 0 12.1440249
1566 1 7.7839999 2.2290001 -8.29 0 0 0 2 10 3 0 0 0 12.6191035
1581 2 4.0910001 10.1199999 -3.947 0 0 0 0 12 0 0 0 0 12.0010233
1584 2 20.1299992 19.0200005 19.0900002 0 0 0 0 12 0 0 0 0 10.9260778
1585 3 -9.1049995 -18.0 15.5 0 0 1 2 8 1 1 0 0 11.4161711
1595 5 2.9530002 2.3580001 -12.5100003 0 0 1 1 9 2 0 0 0 12.096241
1605 5 6.283 -4.809 0.1297 0 0 0 2 10 1 0 0 0 12.4941502
1618 4 -2.188 -5.0089998 21.4500008 0 0 0 2 9 3 1 0 0 13.3255711
1619 5 25.5 20.7199993 -12.0299997 0 0 0 1 10 4 0 0 0 13.2134428
1622 4 8.4720001 15.2299996 -1.452 0 0 0 1 10 5 0 0 0 13.7015829
1625 4 7.501 -6.0599999 8.3170004 0 0 0 2 12 1 0 0 0 13.2154312
1630 4 -0.5249 -15.4799996 12.6300001 0 0 0 2 10 3 0 0 0 12.6450472
1632 4 -0.5051 -4.7810002 -12.8500004 0 0 0 4 6 4 0 0 0 12.4666691
1644 4 5.9990002 13.7200003 14.0 0 0 1 1 11 2 0 0 0 13.0069695
1661 5 20.0699997 2.322 -19.8199997 0 0 0 1 8 4 0 0 0 12.9161654
1667 4 -5.0240002 10.54 -9.0019999 0 0 0 2 8 5 0 0 0 13.2452936
1672 4 7.2490001 -18.7199993 -20.2999992 0 0 0 2 8 4 0 0 0 11.8480682
1687 5 14.4499998 -0.5935 14.5900002 0 0 2 2 6 4 0 0 0 12.5446682
1694 2 16.5799999 -0.7348 3.3699999 0 0 0 0 12 0 0 0 0 11.4911719
1699 4 17.1000004 -7.6240001 8.4350004 0 0 0 2 8 4 0 0 0 11.9906884
1700 5 11.7700005 13.0 20.6000004 0 0 0 4 4 6 0 0 0 11.6655236
1705 1 -2.96 -13.3299999 -0.5971 0 0 0 1 10 2 0 0 0 11.4988108
1707 4 16.3999996 4.8610002 -12.2399998 0 0 0 2 8 4 0 0 0 12.3980265
1712 2 13.6199999 -13.7200003 -21.3899994 0 0 0 2 9 3 0 0 0 12.1049318
1714 4 16.5400009 0.7105 15.9899998 0 0 0 0 12 0 0 0 0 11.2239847
1724 2 -3.3940001 0.9598 -12.4899998 0 0 0 0 12 0 0 0 0 10.8266049
1730 5 -4.0640001 -1.051 19.2600002 0 0 0 1 10 2 0 0 0 11.4156513
1733 1 -8.4689999 -13.6300001 19.5 0 0 0 1 10 2 0 0 0 11.985713
1737 4 11.0100002 -19.7900009 -0.777 0 0 0 0 12 0 0 0 0 11.5475655
1743 4 -7.2230001 -16.2900009 0.2906 0 0 0 1 10 4 0 0 0 12.918786
1745 4 -16.4599991 -21.4899998 17.1200008 0 0 1 5 3 4 2 1 0 13.5758906
1750 4 0.5051 5.3390002 -1.414 0 0 0 3 6 4 0 0 0 12.3391047
1751 4 -2.3580001 -10.0200005 -3.231 0 0 0 3 6 4 0 0 0 11.8155842
1772 2 -5.4790001 21.0 -19.7999993 0 0 1 1 9 4 0 0 0 11.878849
1796 2 10.8100004 -7.6279998 -20.6100006 0 0 1 0 9 3 0 0 0 11.5606203
1803 2 14.0699997 -4.0440002 -6.9650002 0 0 1 0 9 3 0 0 0 11.2869167
1805 4 20.4599991 16.5799999 -18.2299996 0 0 0 1 10 2 0 0 0 11.768054
1813 4 -15.9300004 -2.6630001 -8.0179996 0 0 0 4 6 3 0 0 0 11.5441485
1834 4 18.7900009 17.8999996 21.0300007 0 0 0 1 10 4 0 0 0 13.2876091
1838 2 6.593 19.2099991 -2.728 0 0 0 1 10 2 0 0 0 10.8088694
1847 4 16.1599999 -15.8800002 -18.1100006 0 0 0 5 4 5 0 0 0 12.5842076
1849 5 -2.4590001 -6.4099999 -12.6099997 0 0 0 2 8 4 0 0 0 12.5076809
1853 2 19.6800003 21.5200005 -12.5799999 0 0 1 1 7 5 0 0 0 12.0266104
1854 4 14.8400002 -6.5479999 8.3149996 0 0 0 0 12 0 0 0 0 11.5993948
1860 2 -8.8409996 -3.6199999 -16.7000008 0 0 1 0 11 2 0 0 0 11.6001787
1864 5 22.6900006 6.0149999 21.1299992 0 0 0 1 10 2 0 0 0 12.2178803
1868 4 -13.5200005 6.0630002 7.1900001 0 0 0 2 8 7 0 0 0 13.5848952
1873 4 11.9099998 -19.1499996 -8.6190005 0 0 0 0 12 0 0 0 0 11.7964382
1880 5 5.5570002 -18.3700009 20.1200008 0 0 0 1 10 2 0 0 0 11.4960842
1890 4 -12.5799999 -19.4200001 7.3670001 0 0 0 3 6 4 0 0 0 12.0365438
1893 2 8.9919996 -10.1700001 1.011 0 0 0 0 12 0 0 0 0 11.4534149
1898 5 -13.29 18.0599995 21.2600002 0 0 0 3 6 4 0 0 0 11.9665452
1911 4 15.2299996 -13.5299998 5.4380002 0 0 0 3 6 3 2 0 0 12.9795008
1921 4 13.1800003 16.7900009 4.401 0 0 0 2 8 3 0 0 0 11.9700452
1925 2 12.0699997 -19.6399994 -15.1000004 0 0 0 1 10 2 0 0 0 12.6182556
1926 4 -2.852 9.0640001 -8.3459997 0 0 0 1 10 2 0 0 0 12.1779842
1928 4 -1.887 7.2150002 1.6160001 0 0 0 1 10 4 0 0 0 12.9622766
1934 4 -3.4549999 18.2299996 -6.4720001 0 0 0 0 12 2 0 0 0 13.1419802
1935 4 5.1880002 -1.0 5.7010002 0 0 0 0 12 0 0 0 0 11.6100426
1938 4 -5.2470002 -2.1489999 -9.1870003 0 0 0 2 8 2 0 0 0 11.8312588
1943 5 -6.711 20.9599992 -17.5400009 0 0 0 2 10 2 0 0 0 12.0890493
1947 5 -6.5209999 3.0750001 17.5499993 0 0 0 3 6 5 0 0 0 11.6919356
1948 4 -4.9780002 -2.991 -11.4200001 0 0 0 1 12 3 0 0 0 12.8983974
1954 5 -10.7399998 -8.5850001 14.5299998 0 0 2 3 5 5 1 0 0 12.9999886
1984 5 18.0699997 -21.8500004 0.9836 0 0 0 2 8 5 0 0 0 12.1261511
1986 4 -5.1919999 11.3599997 12.9499998 0 0 0 1 10 4 0 0 0 13.0401964
1993 5 -12.3100004 -6.3940001 -16.6900006 0 0 1 2 9 2 0 0 0 12.0140514
1996 4 -5.197 15.8900004 6.73 0 0 0 1 10 4 0 0 0 12.3330507
1998 2 -1.76 5.2270002 7.954 0 0 0 3 6 3 0 1 0 11.9500342
2001 4 8.106 -4.7750001 5.4959998 0 0 0 2 10 4 0 0 0 12.9944974
2006 5 -13.1000004 -8.573 -21.6000004 0 0 0 1 10 2 0 0 0 10.7512293
2009 4 -13.3199997 -17.0499992 -1.504 0 0 0 0 12 3 0 0 0 12.9327688
2020 2 12.6499996 -2.569 4.086 0 0 0 3 8 3 0 0 0 12.3569765
2022 5 15.3100004 -11.9099998 19.5499993 0 0 0 0 12 2 0 0 0 12.5740481
2027 4 -4.7030001 -2.873 14.2200003 0 0 1 2 8 5 1 0 0 13.2975359
2028 2 -9.0109997 7.6149998 1.191 0 0 0 1 10 3 0 0 0 12.440857
2050 2 -18.3199997 -18.1599999 -14.9099998 0 0 0 2 8 2 0 0 0 11.730937
2052 5 -13.25 20.6299992 3.425 0 0 3 2 5 2 4 0 0 12.9391832
2055 4 6.9450002 -2.7149999 -10.3000002 0 0 0 1 10 4 0 0 0 13.1346941
2056 5 16.1399994 11.96 9.8970004 0 0 0 1 10 2 0 0 0 12.3429766
2062 2 8.481 16.2000008 -15.3999996 0 0 0 4 4 4 0 0 0 11.1469269
2070 2 -11.6300001 -21.0300007 -14.8000002 0 0 0 2 8 2 0 0 0 11.0140886
2073 4 -5.8080001 -13.4600001 -19.7999993 0 0 0 0 12 0 0 0 0 10.9506102
2081 5 -18.5 -14.8000002 1.821 0 0 0 2 8 2 0 0 0 11.2485647
2082 2 17.0499992 16.2399998 11.5699997 0 0 0 1 10 2 0 0 0 11.4054241
2083 4 -4.7080002 -18.1499996 -13.8599998 0 0 0 1 10 3 0 0 0 12.7712031
2087 5 -12.8800002 -8.2110005 -8.0080004 0 0 0 2 8 4 0 0 0 11.7895203
2089 1 17.4500008 -13.5900002 -18.6800003 0 0 0 3 6 5 0 0 0 12.0983143
2093 5 -5.1170001 -13.5299998 11.7200003 0 0 0 0 12 0 0 0 0 10.8487416
2095 4 -2.5350001 -8.1660004 -20.2999992 0 0 0 1 10 2 0 0 0 12.2599154
2106 2 22.3899994 -5.072 7.5560003 0 0 0 4 4 4 0 0 0 11.2169304
2112 4 22.4200001 -2.3239999 10.0900002 0 0 0 1 10 2 0 0 0 12.2750187
2143 2 5.1160002 4.0450001 17.0900002 0 0 2 2 5 6 1 0 0 12.8437014
2154 4 17.2299996 14.7600003 -1.6720001 0 0 0 3 6 3 0 0 0 12.8911276
2155 4 -6.046 21.4899998 -22.0699997 0 0 0 2 8 3 0 0 0 11.8840648
2160 2 11.4899998 9.7299996 2.8010001 0 0 0 3 6 4 0 0 0 11.4652567
2167 5 16.8700008 14.4399996 9.54 0 0 0 1 10 6 0 0 0 14.1538439
2176 5 8.0550003 14.1199999 1.043 0 0 0 2 8 2 0 0 0 11.8150597
2178 4 -13.3900004 -18.8199997 -5.5390001 0 0 0 1 10 4 0 0 0 13.4458952
2181 4 -9.7519999 9.2939997 16.0200005 0 0 0 0 12 4 0 0 0 13.470953
2185 2 -17.9200002 -21.2099991 -7.3779998 0 0 0 2 8 5 0 0 0 12.7359925
2187 2 -4.4559999 11.0799999 18.4699993 0 0 0 3 6 5 0 0 0 11.5762339
2197 2 19.6000004 17.3700009 5.9380002 0 0 0 3 8 0 0 0 0 11.4769211
2207 5 12.1300001 -8.3290005 -7.9990002 0 0 0 4 7 2 1 0 0 13.1522503
2212 4 -11.8400002 -3.876 -17.3600006 0 0 0 1 10 3 0 0 0 12.701294
2222 2 2.013 -22.1100006 3.007 0 0 0 2 8 4 0 0 0 11.649972
2241 4 3.3959999 -4.4429999 0.9271 0 0 0 1 10 4 0 0 0 12.9969426
2274 1 -9.2419996 -18.0699997 0.6096 0 0 0 0 12 0 0 0 0 11.249217
2290 4 -6.2459998 -18.8199997 12.9899998 0 0 0 1 10 4 0 0 0 13.1039858
2291 2 -13.7100001 16.3500004 -14.5299998 0 0 0 1 10 2 0 0 0 11.5615683
2295 1 5.579 -0.4968 18.0200005 0 0 0 0 12 0 0 0 0 12.1956978
2306 4 22.1100006 8.877 4.73 0 0 0 1 10 3 0 0 0 12.4717837
2309 5 -6.9569998 -21.1499996 -6.5520001 0 0 0 5 6 4 0 0 0 12.56563
2315 4 15.1700001 0.755 -21.4300003 0 0 0 4 6 3 0 0 0 12.0326462
2324 1 11.1700001 -9.2209997 10.3100004 0 0 0 4 4 5 0 0 0 12.0040398
2325 4 -17.6100006 -7.0700002 -7.4970002 0 0 0 4 4 4 2 0 0 12.0497522
2334 5 -1.481 9.9770002 15.2700005 0 0 0 2 8 5 0 0 0 12.8604012
2341 4 20.7800007 9.1929998 -10.1899996 0 0 0 2 10 2 0 0 0 11.9581042
2342 3 0.644 7.9050002 -15.8299999 0 0 0 1 10 3 0 0 0 12.2530422
2356 3 17.7700005 -1.688 -9.9460002 0 0 0 1 10 3 0 0 0 11.9936256
2376 5 23.4300003 10.8599998 -18.7299996 0 0 0 3 6 6 0 0 0 12.0902433
2377 4 3.2190001 -19.0200005 21.1499996 0 0 0 0 12 0 0 0 0 11.0339308
2388 4 -5.5689998 8.4280005 -1.693 0 0 0 4 6 5 0 0 0 12.551961
2389 2 -17.2700005 -15.4300003 -18.3299999 0 0 0 1 11 0 0 0 0 11.6332875
2400 2 -13.9799996 0.7071 21.1599999 0 0 0 3 6 5 0 0 0 12.4174223
2411 4 15.0100002 -17.6000004 -2.803 0 0 0 3 6 4 0 0 0 12.1607714
2414 1 0.7595001 8.717 15.7200003 0 0 0 4 4 6 0 0 0 12.4824362
2428 4 -7.5430002 14.87 13.3400002 0 0 1 0 11 4 0 0 0 13.4013739
2437 2 -12.54 10.9499998 18.8099995 0 0 1 2 5 3 1 0 0 12.0024834
2438 1 8.5839997 -9.389 -1.153 0 0 0 0 12 0 0 0 0 10.9227018
2440 4 9.7010002 -11.6099997 -0.853 0 0 0 2 8 4 0 0 0 12.6004877
2465 5 -3.984 -9.8649998 6.921 0 0 0 2 8 4 0 0 0 12.4318571
2476 1 9.0459995 -21.2700005 19.3899994 0 0 1 2 7 3 0 0 0 11.3196259
2480 4 12.5299998 12.1300001 -20.1200008 0 0 0 2 9 3 1 0 0 13.0794153
2502 4 -8.0819998 -9.5889998 -2.3800001 0 0 0 2 8 4 0 0 0 11.8541756
2504 2 -10.1899996 -8.507 -14.4499998 0 0 0 4 5 1 1 0 0 11.5659962
2509 4 -10.1599999 19.0900002 -20.4300003 0 0 0 4 8 2 0 0 0 12.4253321
2510 4 22.0900002 -0.08274 6.6170001 0 0 0 2 8 5 0 0 0 12.4955588
2511 5 -7.0510001 6.994 -3.559 0 0 0 2 8 4 0 0 0 12.0144348
2519 4 6.1160002 -8.0229998 17.2399998 0 0 0 1 10 2 0 0 0 11.4941511
2520 4 0.6538 -18.0499992 -6.2020001 0 0 1 3 5 7 0 0 0 13.1762962
2521 2 4.882 6.3790002 13.5500002 0 0 1 1 9 3 0 0 0 12.413929
2526 2 -6.9390002 17.8799992 18.0599995 0 0 1 3 5 4 0 0 0 11.8626766
2534 5 -7.211 9.8719998 -17.6299992 0 0 1 3 6 3 1 1 0 12.6830254
2535 5 -7.4060001 -4.027 4.2129998 0 0 0 1 10 4 0 0 0 13.050374
2565 4 -7.7800002 9.8249998 -22.0499992 0 0 0 2 10 3 0 0 0 12.7411518
2577 3 -2.422 -1.907 10.6099997 0 0 0 1 10 5 0 0 0 13.3530254
2582 2 2.4730001 15.5500002 -11.8599998 0 0 0 3 6 4 0 0 0 11.8964234
2587 4 23.2700005 16.5900002 9.2620001 0 0 0 1 10 4 0 0 0 13.3359556
2588 2 21.2900009 13.3500004 -10.3999996 0 0 1 2 7 1 2 0 0 11.7507019
2590 4 -7.4369998 12.3599997 11.7399998 0 0 0 0 12 3 0 0 0 13.1580525
2594 2 3.6070001 4.2740002 -17.1499996 0 0 0 4 6 2 0 0 0 11.9908162
2600 1 11.9300004 18.9799996 10.4200001 0 0 0 3 6 4 0 0 0 11.4338265
2608 5 1.77 -9.1639996 9.927 0 0 2 4 2 4 2 1 0 12.7073965
2613 5 -12.3599997 -9.6289997 20.5900002 0 0 0 0 12 3 0 0 0 13.1915703
2615 2 5.632 -19.8899994 6.454 0 0 0 4 6 3 0 0 0 11.485734
2648 2 1.322 -4.546 -14.1800003 0 0 0 2 8 2 0 0 0 11.1471415
2651 4 11.7600003 -19.8199997 9.9209996 0 0 0 2 10 2 0 0 0 12.2590027
2659 4 15.8500004 -3.04 -8.5930004 0 0 1 1 11 0 0 0 0 12.056838
2672 2 -10.9099998 -13.6400004 11.6599999 0 0 0 2 8 4 0 0 0 12.8698646
2677 4 21.1399994 19.2600002 6.3210001 0 0 0 1 10 2 0 0 0 11.973712
2680 4 15.4200001 -6.29 18.5200005 0 0 0 4 4 6 0 0 0 12.4332848
2706 4 13.7299996 4.6199999 -12.5699997 0 0 0 1 10 2 0 0 0 13.3437433
2715 4 4.7160001 -4.217 18.1499996 0 0 0 2 8 4 0 0 0 12.0842686
2719 4 0.7348 -7.152 -11.1599999 0 0 2 2 5 4 1 0 0 12.5570059
2723 4 21.6200009 10.2299996 2.7049999 0 0 0 1 12 3 0 0 0 13.5649882
2741 5 12.9099998 13.6599999 1.564 0 0 0 2 8 2 0 0 0 11.1994314
2771 5 5.8270002 -17.1599999 9.7480002 0 0 0 3 6 5 0 0 0 11.99228
2773 2 7.7319999 -17.4699993 -15.4799996 0 0 1 0 11 1 0 0 0 11.9160272
2784 5 -4.296 -18.9699994 1.884 0 0 0 2 8 2 0 0 0 11.6487274
2803 5 -9.8540002 -13.5200005 -7.7880001 0 0 0 3 6 4 0 0 0 11.5241337
2805 4 13.9700004 11.8599998 -2.5969999 0 0 0 0 12 3 0 0 0 13.6639424
2813 4 -7.8410002 -5.441 -9.7010002 0 0 0 2 8 4 0 0 0 11.9427376
2823 4 -0.926 -20.0699997 20.2700005 0 0 0 0 12 2 0 0 0 12.730669
2830 4 -3.7809999 21.4599991 11.4099999 0 0 0 1 10 3 0 0 0 12.6694813
2840 2 -5.1079998 20.2999992 3.843 0 0 0 3 8 1 0 0 0 11.5144701
2848 4 -4.6009999 -6.0209999 6.5279999 0 0 1 1 9 2 0 0 0 11.3485527
2850 4 -4.0159998 5.3759999 11.1400003 0 0 1 0 9 3 0 0 0 12.823493
2860 1 3.0369999 0.06913 -18.5900002 0 0 1 3 3 5 0 1 0 11.9605684
2862 3 16.9200002 -20.1200008 -10.7399998 0 0 0 1 10 3 0 0 0 11.6798249
2864 4 -4.0430002 19.2399998 20.8199997 0 0 0 1 10 2 0 0 0 12.2659016
2871 5 -8.8859998 15.5600004 -12.6599999 0 0 0 1 10 3 0 0 0 12.4590492
2878 2 0.206 -5.5390001 8.849 0 0 0 0 12 0 0 0 0 11.6430025
2900 4 2.441 5.7919998 -21.3700009 0 0 0 2 8 3 0 0 0 11.6933241
2911 4 2.474 20.2900009 -12.4700003 0 0 0 0 12 2 0 0 0 12.1900253
2921 5 19.6100006 -14.0900002 3.881 0 0 0 1 10 3 0 0 0 11.9554424
2929 4 -14.5200005 -11.9399996 -13.1300001 0 0 0 0 12 0 0 0 0 11.2122498
2942 4 -5.2690001 -17.0699997 14.6800003 0 0 1 2 8 2 1 0 0 12.0782919
2961 4 0.3865 -9.5050001 -9.8450004 0 0 0 3 6 7 0 0 0 12.4019537
2994 4 -5.6560002 -8.0790005 -1.215 0 0 0 1 10 2 0 0 0 11.2518921
2995 2 6.559 -1.146 15.6199999 0 0 1 2 7 5 0 0 0 12.6528025
2997 2 -17.4799996 -7.0409999 -20.6399994 0 0 0 1 10 3 0 0 0 12.2780619
2999 2 19.4200001 21.4200001 0.8317001 0 0 0 2 8 3 0 0 0 11.8155909
3019 4 19.6399994 17.2099991 -9.0100002 0 0 0 1 12 3 0 0 0 13.7573948
3020 5 15.8800002 6.6700001 -19.0799999 0 0 1 3 7 4 0 0 0 12.6917696
3021 5 -4.645 -8.2589998 1.0829999 0 0 2 1 8 4 0 0 0 12.1642122
3024 5 -3.3540001 9.198 -20.9699994 0 0 0 3 8 3 2 0 0 13.5255728
3048 4 3.645 12.2799997 14.54 0 0 0 1 12 2 0 0 0 13.5997038
3056 4 12.0500002 -14.8100004 -7.704 0 0 0 1 10 2 0 0 0 12.0235195
3064 2 15.1400003 -14.2100001 -19.75 0 0 0 4 6 3 0 0 0 12.1276226
3070 4 13.4799996 5.322 14.5200005 0 0 0 3 10 1 0 0 0 12.1204977
3072 4 -13.75 -3.5980001 -19.1700001 0 0 0 1 10 2 0 0 0 12.3725233
3083 4 -12.7299996 -10.6700001 -8.1370001 0 0 1 3 7 3 1 0 0 12.5498524
3101 5 20.1499996 1.804 -6.1240001 0 0 1 4 3 5 0 0 0 11.4091978
3110 2 6.7670002 18.0599995 1.858 0 0 0 3 6 4 0 0 0 11.875517
3119 5 14.1099997 11.9499998 13.9499998 0 0 0 0 12 2 0 0 0 13.0221939
3126 2 -14.1800003 -0.95 18.3600006 0 0 0 2 8 3 0 0 0 11.831522
3129 2 2.603 16.4799996 -7.434 0 0 0 0 12 0 0 0 0 11.3305588
3137 2 3.5650001 -2.0899999 -19.0699997 0 0 2 1 6 3 0 1 0 12.0364561
3142 2 -8.672 14.3699999 -16.5699997 0 0 0 1 10 3 0 0 0 12.206564
3145 2 -5.0640001 -20.6000004 -9.0600004 0 0 0 2 8 3 0 0 0 11.6213608
3160 2 20.8999996 -13.5299998 13.7100001 0 0 0 0 12 0 0 0 0 11.1538858
3164 2 16.5900002 -15.3100004 0.4176 0 0 0 0 12 0 0 0 0 11.6217566
3169 5 -2.095 18.25 7.3629999 0 0 0 1 10 5 0 0 0 12.6581583
3174 4 -4.3969998 -3.4330001 18.1800003 0 0 0 1 10 3 0 0 0 11.4992724
3190 2 1.242 15.4499998 9.1190004 0 0 1 2 9 3 0 0 0 12.671484
3193 2 16.6800003 2.8139999 8.842 0 0 0 1 10 2 0 0 0 12.039361
3198 4 5.9569998 8.2530003 -22.1700001 0 0 0 2 8 4 0 0 0 12.1884155
3219 4 -4.0289998 8.7370005 19.2299996 0 0 0 2 10 2 0 0 0 12.5065718
3223 4 17.4099999 -15.29 -20.5799999 0 0 1 1 9 3 0 0 0 13.4145908
3231 5 13.0299997 19.5100003 3.4500001 0 0 0 2 8 6 0 0 0 13.0152941
3238 5 1.62 -20.2900009 19.3700009 0 0 0 1 10 4 0 0 0 12.9825706
3242 2 -2.8210001 1.865 13.2799997 0 0 0 3 6 4 0 0 0 11.7651768
3253 5 8.5629998 5.553 10.7200003 0 0 0 2 10 2 0 0 0 12.5147829
3257 4 1.179 -15.0299997 -21.2299996 0 0 1 0 9 3 0 0 0 11.7459135
3274 2 -1.286 17.4200001 16.7299996 0 0 0 1 10 3 0 0 0 11.4866505
3278 4 15.5799999 -7.5390001 -18.5900002 0 0 1 2 7 4 0 0 0 11.4102459
3282 5 6.7360001 15.9399996 20.75 0 0 0 3 7 4 1 0 0 13.0539331
3298 5 -5.2049999 1.237 9.0710001 0 0 1 1 8 3 1 0 0 12.1879158
3303 5 -6.6329999 -6.6409998 14.7399998 0 0 0 0 12 0 0 0 0 11.5850039
3313 2 -2.7090001 -7.3169999 6.2529998 0 0 0 1 10 2 0 0 0 11.6752291
3317 5 14.3500004 4.9640002 1.0880001 0 0 0 0 12 0 0 0 0 11.7553807
3323 5 12.8400002 15.1400003 -16.4099999 0 0 0 1 9 3 1 0 0 12.2708864
3338 5 0.3509 -4.3020001 -19.1100006 0 0 1 2 7 3 0 0 0 11.425211
3351 1 -9.4449997 18.5400009 10.5600004 0 0 0 0 12 0 0 0 0 11.5623589
3355 5 -13.1400003 17.4599991 -8.2510004 0 0 0 1 10 5 0 0 0 13.6296273
3361 5 -11.0600004 9.948 11.79 0 0 0 2 8 4 0 0 0 11.8462106
3366 1 6.2020001 20.2199993 -19.8199997 0 0 1 0 11 1 0 0 0 11.9417706
3370 4 8.948 1.526 6.2659998 0 0 0 4 4 6 0 0 0 12.3048735
3375 4 20.7099991 21.5599995 4.923 0 0 0 2 8 5 0 0 0 12.7461815
3383 4 -11.8900004 2.254 5.382 0 0 0 4 4 7 0 0 0 12.6416693
3386 2 -14.1800003 -2.7320001 8.5629998 0 0 0 2 8 4 0 0 0 11.9197206
3387 5 -5.3379998 -5.8330002 -17.2600002 0 0 0 2 8 2 0 0 0 11.9242822