ITEM: TIMESTEP
0
ITEM: NUMBER OF ATOMS
50688
ITEM: BOX BOUNDS xy xz yz pp pp pp
-20.3673 75.8522264 15.9399242
-22.2210007 65.3610001 0.0
-22.2210007 65.3610001 0.0
ITEM: ATOMS id type x y z VoronoiIndex1 VoronoiIndex2 VoronoiIndex3 VoronoiIndex4 VoronoiIndex5 VoronoiIndex6 VoronoiIndex7 VoronoiIndex8 VoronoiIndex9 AtomicVolume
7 2 -15.6300001 -13.6700001 -3.0899999 0 0 0 1 10 2 0 0 0 11.7526474
22 5 23.9799996 6.6310001 8.0430002 0 0 0 0 12 0 0 0 0 11.1424971
28 2 1.6180001 5.6290002 -11.0799999 0 0 0 2 8 0 0 0 0 10.6729679
36 2 7.178 -14.6400004 -19.2600002 0 0 0 0 12 0 0 0 0 11.7494793
38 5 3.714 -11.3599997 16.8500004 0 0 0 1 10 3 0 0 0 12.9263478
42 2 6.606 -3.5950001 -21.3199997 0 0 0 0 12 0 0 0 0 11.008214
43 5 -1.4650001 12.6199999 10.8299999 0 0 0 2 8 5 0 0 0 13.1857033
50 2 8.9510002 -3.5280001 -21.8799992 0 0 0 0 12 0 0 0 0 11.2938995
61 4 -16.1299992 -8.5830002 -4.0580001 0 0 0 3 8 4 0 0 0 12.4330149
98 2 -1.776 -8.4820004 19.0200005 0 0 0 0 12 0 0 0 0 10.8050204
112 2 22.5900002 5.7119999 20.1200008 0 0 1 0 10 2 1 0 0 11.8920394
128 5 -15.0500002 6.4250002 -10.96 0 0 0 4 4 6 0 0 0 11.827816
145 4 -9.5349999 -22.1499996 -19.2900009 0 0 0 0 12 2 0 0 0 12.2398625
146 4 1.205 7.8179999 -11.4300003 0 0 0 2 8 2 0 0 0 11.638156
171 2 2.1689999 -1.0470001 -2.998 0 0 1 4 2 5 1 0 0 11.925315
176 5 6.1469998 -20.3600006 11.7100001 0 0 0 2 10 2 0 0 0 12.6614666
177 5 15.0600004 14.5200005 -20.1200008 0 0 0 0 12 2 0 0 0 12.5653038
181 5 -11.5299998 -11.1300001 5.856 0 0 0 0 12 0 0 0 0 11.2790833
191 5 -15.0100002 5.948 -13.6400004 0 0 0 4 5 5 1 0 0 13.2083921
203 5 19.8899994 -4.0770001 -2.7149999 0 0 0 2 8 4 0 0 0 12.1357231
216 2 13.7600003 16.8999996 10.1800003 0 0 1 3 5 4 0 0 0 11.1898966
219 4 6.606 -2.8010001 16.1900005 0 0 1 2 7 5 0 0 0 12.6830521
220 2 -3.286 17.3600006 -6.2550001 0 0 0 1 10 3 0 0 0 12.3838825
240 2 -0.7442 10.3900004 6.3990002 0 0 0 0 12 0 0 0 0 10.8925096
241 2 22.3700009 12.4200001 -2.267 0 0 0 0 12 2 0 0 0 13.0737009
243 4 8.0649996 17.5499993 -2.1500001 0 0 0 1 10 2 0 0 0 12.5191241
244 5 -11.8999996 -12.6099997 -20.8099995 0 0 0 2 8 4 0 0 0 12.3874703
245 1 12.9899998 -17.7399998 5.5580001 0 0 0 2 8 3 0 0 0 11.899581
249 4 -10.7299996 -6.1079998 18.7600003 0 0 0 1 10 5 0 0 0 13.1873465
262 2 -2.435 2.4319999 9.3990002 0 0 0 3 6 4 0 0 0 12.0170765
263 1 -11.4600001 -2.859 -16.3199997 0 0 1 1 9 3 0 0 0 12.1425705
266 5 13.2700005 -18.0100002 16.7299996 0 0 0 4 6 4 0 0 0 12.0878105
270 4 20.7800007 -13.6800003 -1.95 0 0 0 1 10 3 0 0 0 12.0475702
283 5 -5.0489998 10.6800003 -11.3800001 0 0 0 0 12 0 0 0 0 10.9271336
295 4 26.3899994 21.3500004 2.5280001 0 0 0 1 10 4 0 0 0 12.6673899
298 4 -4.3969998 16.7000008 2.7809999 0 0 1 2 7 5 2 0 0 13.4133864
301 1 -12.4600001 19.3999996 19.8099995 0 0 0 5 2 2 2 0 0 11.4721499
311 5 -12.3500004 13.9899998 -3.3770001 0 0 0 2 10 1 0 0 0 11.5973225
318 5 -7.0 -14.4200001 -6.3039999 0 0 1 4 5 3 0 0 0 11.7981673
322 4 -13.6099997 -8.5290003 3.3269999 0 0 0 0 12 2 0 0 0 12.2806692
334 4 20.8199997 -5.1139998 -6.947 0 0 1 2 7 2 2 0 0 12.3381148
336 4 -15.0 -16.3600006 -2.345 0 0 0 2 8 4 0 0 0 12.3903332
362 5 -13.5900002 -9.7620001 -3.8770002 0 0 1 1 10 2 1 0 0 13.71694
372 5 6.086 -19.9099998 3.8010001 0 0 1 2 5 5 0 0 0 11.632844
377 5 -3.471 15.3999996 -1.5420001 0 0 0 2 8 5 0 0 0 12.5212813
398 1 -6.1020002 0.5611 -1.522 0 0 0 0 12 0 0 0 0 11.3390732
409 2 19.3099995 -3.4040001 -17.1299992 0 0 0 1 10 2 0 0 0 11.2855015
416 2 -13.29 -21.2000008 -11.3900004 0 0 1 3 4 4 2 0 0 12.2962761
419 2 20.2600002 -16.3600006 -5.9120002 0 0 0 0 12 0 0 0 0 11.1319819
428 4 17.9300004 -6.4569998 4.7950001 0 0 1 2 7 3 0 0 0 11.929308
431 2 -4.3449998 19.9099998 -19.2999992 0 0 0 3 6 3 0 0 0 11.7246018
437 2 -6.152 21.4599991 14.6099997 0 0 1 2 7 4 0 0 0 12.4189119
442 4 -2.1389999 -20.6599999 -12.3199997 0 0 0 1 10 4 0 0 0 12.5801268
452 4 -17.9200002 -22.0 -20.3899994 0 0 0 0 12 0 0 0 0 11.7797184
482 4 2.3610001 -0.3601 -19.4300003 0 0 1 3 5 6 0 0 0 11.9291172
506 4 -7.1770001 -0.03754 16.6200009 0 0 0 1 10 2 0 0 0 12.0434513
527 5 6.0939999 -5.1550002 4.7010002 0 0 0 4 4 6 0 0 0 11.4478865
530 4 21.0300007 -9.7100001 -6.8010001 0 0 0 4 6 6 0 0 0 12.9934578
531 5 17.9699994 6.783 12.3699999 0 0 0 1 10 2 0 0 0 11.7397747
536 2 26.9599992 19.8999996 17.7099991 0 0 0 1 10 2 0 0 0 11.7488947
537 2 2.951 17.4699993 4.7989998 0 0 0 5 2 6 0 0 0 11.9830028
539 2 -3.852 -21.5499993 -16.3500004 0 0 1 3 5 4 0 0 0 11.3917322
548 4 -4.4369998 -8.0229998 1.515 0 0 1 0 9 3 0 0 0 11.9591676
553 4 6.1440001 4.526 -21.6800003 0 0 0 0 12 0 0 0 0 11.1702156
554 2 23.6700001 2.4600001 4.5390001 0 0 0 2 8 4 0 0 0 12.4219408
559 4 12.1999998 6.8530002 -21.9799996 0 0 1 0 10 3 1 0 0 12.9789076
561 4 5.7649999 15.1199999 -5.843 0 0 1 2 7 5 0 0 0 12.4412537
564 4 -7.6529999 4.7230001 -11.1499996 0 0 0 3 6 4 0 0 0 12.6995459
569 2 4.9320002 -3.2279999 4.5570002 0 0 0 3 6 4 0 0 0 11.3428202
587 5 20.2099991 17.4699993 16.9599992 0 0 0 3 8 2 0 0 0 12.1077766
597 2 -5.2729998 -17.2600002 -13.4099999 0 0 0 2 8 3 0 0 0 11.0798216
613 5 12.3500004 -5.039 -1.393 0 0 0 5 2 6 0 0 0 11.8905916
618 2 -3.4230001 6.1700001 -12.4799996 0 0 0 2 8 2 0 0 0 11.1722078
623 4 17.7800007 17.4699993 4.855 0 0 0 1 10 5 0 0 0 13.6322394
638 5 -16.3799992 -8.6370001 9.3190003 0 0 0 2 8 3 0 0 0 11.2137241
643 5 -14.3500004 3.6830001 1.49 0 0 0 3 7 4 1 0 0 12.3862991
645 5 -10.4700003 17.25 5.2989998 0 0 1 3 4 4 1 0 0 11.5079184
649 4 14.8900004 -19.0 8.7869997 0 0 0 0 12 2 0 0 0 12.6535759
654 4 -0.2665 -17.0599995 1.364 0 0 0 3 6 4 0 0 0 12.4613114
657 4 18.4099999 -10.8299999 15.9899998 0 0 0 2 8 4 0 0 0 12.0790825
671 2 -1.386 -9.7530003 9.356 0 0 0 0 12 0 0 0 0 11.240078
672 2 23.8600006 20.8700008 -17.3899994 0 0 0 1 10 3 0 0 0 11.7241898
677 4 -6.2160001 21.4799996 12.2299996 0 0 0 2 8 4 0 0 0 13.0783501
699 5 14.9700004 3.7160001 3.4990001 0 0 1 2 7 4 0 0 0 12.5738144
701 4 19.1900005 -0.6097 20.0499992 0 0 0 1 10 3 0 0 0 12.4224177
726 5 15.7700005 -7.9450002 8.7709999 0 0 0 1 10 4 0 0 0 12.4241829
727 5 -10.5299998 -20.8500004 21.2700005 0 0 0 4 5 5 1 0 0 12.816042
729 1 -2.927 -21.8500004 9.5600004 0 0 0 5 4 3 0 0 0 10.7642479
731 5 21.3099995 -7.4650002 1.487 0 0 0 4 4 4 0 0 0 11.646864
741 4 3.879 16.6000004 2.839 0 0 0 2 10 3 0 0 0 13.0019197
742 4 9.3199997 2.77 9.6479998 0 0 1 1 9 2 2 0 0 13.0259523
745 4 6.0 21.2999992 -21.1100006 0 0 0 2 8 4 0 0 0 12.9346744
755 5 10.9700004 -14.6599999 -17.9899998 0 0 0 3 6 6 0 0 0 12.2488165
758 2 5.1300001 9.9650002 14.2600002 0 0 1 2 7 3 0 0 0 11.3200073
760 1 6.8070002 9.8030005 -17.25 0 0 1 2 6 3 1 0 0 12.7331124
762 5 15.2700005 -5.5520001 -7.796 0 0 0 1 10 5 0 0 0 13.301301
765 1 -2.52 12.8800002 -21.9400006 0 0 0 4 4 4 0 0 0 11.0875254
803 2 22.5100003 -5.2810001 -8.6049996 0 0 0 2 8 2 0 0 0 11.6296397
809 2 25.2299996 20.1800003 -0.358 0 0 0 0 12 2 0 0 0 12.317318
818 5 5.4289999 9.1770001 6.4359999 0 0 0 2 9 4 1 0 0 13.4277582
842 5 7.6339998 1.2560001 -6.2230001 0 0 1 2 7 5 0 0 0 12.4019337
849 4 -4.3260002 3.3759999 11.0699997 0 0 0 3 6 4 0 0 0 11.5938263
850 5 7.3109999 17.1800003 -18.2900009 0 0 0 2 8 5 0 0 0 14.0018129
882 3 -6.914 16.2600002 16.4099999 0 0 0 2 9 2 1 0 0 13.2225971
898 5 11.0500002 15.6499996 21.0300007 0 0 0 3 6 4 0 0 0 11.0044451
899 4 -5.3299999 -9.3870001 -0.5334 0 0 0 0 12 2 0 0 0 12.6605492
901 4 2.839 18.4799996 -0.9892 0 0 0 2 7 5 1 0 0 12.6682377
915 5 -9.3020001 -22.1299992 -3.935 0 0 0 4 8 1 2 0 0 13.1457043
926 5 -2.491 7.0229998 8.118 0 0 0 2 8 3 0 0 0 11.1913433
936 1 2.8069999 12.6499996 -15.4499998 0 0 1 3 5 5 0 0 0 11.5928765
941 5 -1.1540001 4.7420001 15.1499996 0 0 1 2 8 3 1 0 0 12.4838171
945 5 19.4200001 -16.5499993 12.1499996 0 0 0 4 6 3 0 0 0 11.8395558
946 4 -6.6180001 -13.4499998 21.0300007 0 0 0 0 12 2 0 0 0 12.2677651
950 3 -5.889 -2.194 5.8010001 0 0 0 1 10 5 0 0 0 13.8285885
951 5 9.7220001 15.9200002 -1.155 0 0 0 2 8 4 0 0 0 12.832222
958 5 11.0799999 7.8340001 -0.9797 0 0 0 3 6 6 0 0 0 12.5137081
961 2 0.4009 18.7800007 -17.8899994 0 0 0 2 8 2 0 0 0 11.8657274
962 4 -10.7200003 -14.5500002 -11.5799999 0 0 0 1 10 3 0 0 0 12.0115595
963 5 -13.0900002 -12.3400002 -15.1999998 0 0 0 4 4 4 2 0 0 11.951704
990 4 13.4499998 17.9599992 -2.023 0 0 1 3 7 2 2 0 0 11.9516736
993 4 18.2999992 2.0250001 -12.6099997 0 0 0 2 7 4 1 0 0 12.5770531
995 1 -2.949 -17.3099995 13.25 0 0 0 0 12 2 0 0 0 11.9788284
1007 2 -0.7581 -5.0240002 -2.6889999 0 0 0 0 12 0 0 0 0 11.0017529
1021 4 22.0699997 1.962 -11.9399996 0 0 1 3 5 5 0 0 0 11.8411036
1025 1 -1.984 -12.8100004 11.8999996 0 0 1 3 5 5 0 0 0 11.5457344
1027 4 13.9200002 -9.776 8.5640002 0 0 0 2 10 3 0 0 0 12.8179436
1047 4 -7.119 20.1800003 1.062 0 0 0 2 10 4 0 0 0 13.7733279
1050 1 -3.2609999 -10.3000002 19.0300007 0 0 0 0 12 0 0 0 0 11.4053936
1051 4 7.5240002 15.1099997 -20.4300003 0 0 0 4 5 6 1 0 0 13.8063689
1055 2 6.9850002 5.0999999 -6.7810002 0 0 0 4 6 3 0 0 0 10.847891
1056 5 23.5200005 2.5290001 7.145 0 0 0 3 6 5 0 0 0 11.8656378
1057 4 9.1490002 -7.7870002 -11.5900002 0 0 1 3 7 2 0 0 0 11.734829
1059 4 -7.289 12.6599999 1.334 0 0 0 2 10 1 0 0 0 12.3757429
1063 5 -13.6599999 10.2600002 9.2040005 0 0 0 3 6 4 0 0 0 12.423542
1079 2 18.6499996 -14.5900002 -16.8700008 0 0 0 3 8 2 0 0 0 11.7263642
1089 4 8.6309996 -20.2600002 -16.4599991 0 0 0 0 12 3 0 0 0 12.4779339
1098 4 16.6800003 -18.9099998 20.1000004 0 0 0 1 10 5 0 0 0 14.3000651
1102 5 14.7399998 -19.3999996 -15.9099998 0 0 0 0 12 0 0 0 0 11.0278854
1110 5 -1.7560001 -2.993 19.2299996 0 0 1 2 7 3 2 0 0 12.2846279
1118 1 10.8900004 -13.9099998 0.6285 0 0 0 3 8 2 0 0 0 11.5704746
1128 2 -0.6306 -19.5699997 1.005 0 0 0 0 12 0 0 0 0 11.3387175
1153 5 3.119 -15.1800003 18.4099999 0 0 0 1 10 2 0 0 0 11.8022976
1159 4 -0.3599 -10.0900002 15.4399996 0 0 0 2 8 4 0 0 0 12.0730171
1167 4 -4.2659998 20.1399994 -13.4799996 0 0 0 1 10 2 0 0 0 11.8741732
1169 2 12.7700005 2.2330001 -19.8600006 0 0 0 2 10 0 0 0 0 11.7677136
1178 2 5.5910001 4.1420002 10.9899998 0 0 0 0 12 0 0 0 0 11.2505942
1183 4 23.9300004 12.1899996 -15.79 0 0 0 2 8 4 0 0 0 12.3455563
1187 5 -1.051 18.3099995 -14.3000002 0 0 1 1 9 4 0 0 0 12.9146862
1188 4 12.1099997 16.3999996 7.9250002 0 0 2 2 7 4 1 0 0 13.6065941
1190 2 1.7000001 -17.6800003 -16.7900009 0 0 0 2 8 2 0 0 0 11.1186361
1195 2 19.8600006 -12.8400002 -20.1800003 0 0 0 0 12 0 0 0 0 10.8506728
1217 5 17.0 -9.974 -15.8999996 0 0 0 2 10 1 0 0 0 11.8593112
1218 5 23.5400009 -1.262 -2.0980001 0 0 0 3 6 5 0 0 0 11.6814471
1222 1 -5.8909998 15.7799998 -2.059 0 0 0 3 6 5 0 0 0 12.5481081
1244 3 -12.4200001 -10.6899996 -9.1400003 0 0 0 0 12 0 0 0 0 11.6272068
1247 1 10.0299997 2.237 -19.4699993 0 0 1 1 9 0 2 0 0 11.6449461
1261 4 7.1139998 16.5699997 19.0900002 0 0 0 0 10 4 0 0 0 13.2184591
1264 2 11.5299998 17.6599999 10.2399998 0 0 0 2 8 2 0 0 0 11.2990046
1272 4 20.4899998 18.9400006 -9.6540003 0 0 0 4 6 3 0 0 0 11.784214
1280 5 -10.75 1.2840001 -11.5 0 0 0 1 10 3 0 0 0 12.0249825
1283 4 16.4200001 2.191 13.1300001 0 0 1 2 7 4 0 0 0 11.4210501
1288 5 -14.1300001 -9.2279997 15.8100004 0 0 0 3 6 4 0 0 0 12.8194237
1293 4 17.9400006 -19.7299996 0.663 0 0 1 2 7 5 0 0 0 12.5772839
1299 4 -7.1069999 -10.9499998 6.4180002 0 0 0 4 6 5 0 0 0 12.8559094
1302 4 4.1880002 -1.725 -18.7199993 0 0 0 2 10 3 0 0 0 12.2129316
1303 2 -6.5669999 5.3829999 -0.2879 0 0 1 0 9 3 0 0 0 12.1701498
1305 5 9.2620001 14.3199997 4.9130002 0 0 0 3 8 3 0 0 0 12.4315233
1320 2 -12.7399998 11.6300001 12.8599998 0 0 0 4 6 3 0 0 0 11.56318
1339 5 2.928 2.4960001 4.0339999 0 0 0 2 8 5 0 0 0 13.1001015
1342 4 -8.0509996 18.4599991 17.6499996 0 0 0 2 10 2 0 0 0 12.8489494
1350 4 22.9200002 16.2999992 -0.05698 0 0 0 0 12 2 0 0 0 13.3363676
1363 2 -11.6300001 -4.152 2.4400001 0 0 0 3 8 4 0 0 0 12.5351115
1365 4 12.5299998 -10.0100002 -16.8299999 0 0 1 3 6 4 1 0 0 12.4945183
1374 4 16.6800003 -10.4399996 -18.3400002 0 0 0 1 10 5 0 0 0 13.011322
1377 4 -8.4790001 -3.718 -12.2399998 0 0 0 1 10 2 0 0 0 11.3567553
1387 3 -17.6000004 -22.1499996 6.4879999 0 0 0 4 10 1 0 0 0 13.3738041
1403 4 16.7900009 -12.7600003 -16.2800007 0 0 0 1 12 2 0 0 0 12.983408
1414 4 20.0 -10.4099999 -4.5850001 0 0 0 1 10 2 0 0 0 11.8334093
1434 5 -12.3599997 10.1700001 -10.1499996 0 0 0 1 10 2 0 0 0 12.5635252
1445 2 1.349 2.7720001 8.3599997 0 0 0 0 12 0 0 0 0 11.408597
1456 4 -12.1599999 -10.1599999 -20.1399994 0 0 0 2 8 4 0 0 0 13.1268997
1457 4 -9.9820004 3.605 4.1490002 0 0 0 2 10 4 0 0 0 13.617568
1463 4 7.2810001 17.1299992 0.06538 0 0 0 3 8 4 0 0 0 13.2367716
1471 5 18.1900005 -7.8150001 -19.4300003 0 0 0 4 5 6 1 0 0 13.7095204
1477 2 -6.5700002 -5.8639998 -19.6299992 0 0 0 0 12 0 0 0 0 11.6786499
1478 2 20.1700001 17.7299996 5.5089998 0 0 0 3 8 2 0 0 0 11.7241888
1492 5 -2.724 18.7399998 8.7399998 0 0 0 4 4 6 0 0 0 11.5032654
1502 5 0.354 5.4879999 -2.23 0 0 1 2 7 4 0 0 0 12.026433
1505 4 -4.026 20.2399998 21.3199997 0 0 0 2 8 4 0 0 0 12.5321875
1509 5 1.414 -19.3199997 16.7600003 0 0 0 2 8 4 0 0 0 12.4020472
1515 5 -12.0699997 0.9186 -18.8999996 0 0 0 1 10 2 0 0 0 12.3366156
1523 2 -8.9680004 12.96 -20.8700008 0 0 0 2 8 4 0 0 0 11.845293
1543 1 22.2399998 5.8930002 -0.6303 0 0 0 0 10 2 0 0 0 10.8648396
1545 4 1.497 -8.5579996 -16.1700001 0 0 0 0 12 0 0 0 0 11.6194802
1556 5 10.9099998 -6.6939998 -7.6149998 0 0 0 1 10 5 0 0 0 13.3195877
1583 2 -8.2519999 -7.3579998 2.843 0 0 0 4 4 7 0 0 0 11.8150339
1599 4 16.7700005 18.5900002 -20.9599992 0 0 0 1 10 3 0 0 0 12.1718035
1605 5 12.6800003 11.6000004 -2.753 0 0 0 2 10 2 0 0 0 12.1071396
1607 4 -2.3829999 10.4399996 18.1499996 0 0 0 3 6 5 0 0 0 12.8431264
1634 5 15.1000004 18.9300004 -5.9569998 0 0 0 2 7 4 1 0 0 12.9325
1642 4 5.243 -19.6299992 6.1919999 0 0 1 3 7 4 0 0 0 12.7197991
1657 5 -8.5679999 16.6499996 13.2299996 0 0 0 1 10 2 0 0 0 11.6051874
1663 2 -10.8100004 -3.267 10.8800002 0 0 0 0 12 0 0 0 0 11.3612147
1669 4 -12.96 -20.2900009 -5.2249999 0 0 0 0 12 3 0 0 0 12.9918442
1671 4 25.3999996 18.9400006 -2.852 0 0 0 3 8 3 0 0 0 12.3020954
1672 4 22.5100003 -4.2849999 12.0900002 0 0 0 0 12 2 0 0 0 12.2704201
1677 2 22.2000008 -3.744 -14.3999996 0 0 0 2 8 2 0 0 0 10.7479677
1694 2 5.5999999 -17.7900009 -3.8870002 0 0 0 3 7 4 1 0 0 12.3920813
1698 4 -9.908 -1.001 20.7700005 0 0 0 3 8 3 0 0 0 12.3039532
1702 2 2.1240001 -10.3999996 14.7100001 0 0 0 4 6 2 0 0 0 11.0969086
1706 4 2.1930001 1.247 -7.4499998 0 0 0 1 10 2 0 0 0 11.7724133
1722 5 -5.8590002 -1.77 -2.385 0 0 0 1 10 2 0 0 0 12.0019035
1726 5 -1.2330001 -8.3629999 -5.941 0 0 0 0 11 1 0 0 0 11.5009966
1730 5 15.5100003 20.3999996 8.3640003 0 0 0 2 7 2 1 0 0 11.8552952
1766 4 -11.5100003 -18.5300007 -3.257 0 0 0 0 12 2 0 0 0 12.2041597
1774 4 -4.3350001 1.125 -12.6400004 0 0 0 0 12 3 0 0 0 12.6866751
1782 2 26.6900006 16.4799996 12.5799999 0 0 0 5 4 3 0 0 0 11.116539
1795 4 0.8831 20.2600002 -13.9399996 0 0 0 0 12 0 0 0 0 11.6251564
1807 4 14.0100002 -8.2779999 14.5600004 0 0 0 1 10 3 0 0 0 11.9707546
1812 4 6.5539999 -8.1210003 15.3699999 0 0 0 2 8 5 0 0 0 13.1337051
1814 5 26.1599999 16.3999996 -8.54 0 0 1 2 7 4 0 0 0 11.7333622
1818 4 -9.6669998 0.5507 16.9599992 0 0 1 3 5 5 0 0 0 11.425107
1829 5 -8.9759998 15.5500002 -19.7800007 0 0 0 1 10 4 0 0 0 12.0355063
1847 4 -0.4573 -21.6000004 -10.7299996 0 0 0 0 12 0 0 0 0 10.948144
1851 1 -1.048 19.6399994 16.5599995 0 0 0 0 12 0 0 0 0 10.7515211
1865 2 7.8130002 -6.883 5.8020001 0 0 0 2 10 3 0 0 0 12.8860912
1873 4 -2.5550001 -19.5100003 6.7989998 0 0 0 4 6 3 0 0 0 12.036541
1879 5 17.1700001 -16.3400002 -17.4400006 0 0 0 1 10 2 0 0 0 12.1922836
1882 2 9.3620005 11.1400003 14.5699997 0 0 0 3 6 4 0 0 0 11.6040697
1897 4 15.5500002 -0.5902 16.1200008 0 0 0 4 6 5 0 0 0 12.6709271
1899 2 21.0900002 2.247 3.919 0 0 1 3 5 3 2 0 0 12.1962748
1905 4 -14.1899996 -5.7230001 12.0699997 0 0 0 0 12 2 0 0 0 12.3241978
1906 2 -5.3060002 16.1200008 0.2789 0 0 0 0 12 0 0 0 0 11.298873
1920 5 6.7649999 -5.3480001 7.4850002 0 0 0 3 9 2 1 0 0 12.7860003
1942 5 -0.3788 -19.7800007 15.2600002 0 0 0 3 8 2 0 0 0 11.847456
1947 5 0.6101 6.2750001 10.8800002 0 0 1 1 11 3 0 0 0 13.4226933
1951 4 9.9910002 20.2199993 16.9599992 0 0 0 1 10 3 0 0 0 12.5205021
1960 2 21.6100006 8.1599999 0.3179 0 0 0 1 10 2 0 0 0 12.1452236
1965 2 -10.0500002 1.3300001 -20.9200002 0 0 0 1 10 2 0 0 0 12.2532158
1970 2 20.2600002 19.7999993 -19.1900005 0 0 0 0 12 0 0 0 0 11.4782467
1975 4 -9.6379996 2.6470001 -18.9200002 0 0 0 1 10 4 0 0 0 13.0671749
1976 5 24.0599995 17.1700001 15.1700001 0 0 0 3 8 3 0 0 0 12.4730377
1990 5 2.5320001 -8.863 -6.1539998 0 0 2 3 3 5 1 0 0 12.2717409
2013 5 0.7918 11.2200003 -5.0380001 0 0 0 2 8 1 0 0 0 11.832614
2020 2 -4.936 -9.0419998 -17.3299999 0 0 0 0 12 0 0 0 0 11.2393084
2029 4 -1.15 2.4920001 16.0900002 0 0 0 3 8 2 0 0 0 11.2518568
2041 5 13.4200001 0.9222 16.7000008 0 0 0 1 10 2 0 0 0 11.7926884
2054 4 10.6099997 -3.109 6.4829998 0 0 1 2 11 2 0 0 0 13.5783158
2066 5 -11.1300001 -17.2700005 10.54 0 0 0 1 10 4 0 0 0 12.8288203
2077 4 21.7800007 0.5225 -9.6470003 0 0 0 1 10 2 0 0 0 11.8238373
2085 5 23.8899994 18.5499993 -17.9200002 0 0 0 0 12 0 0 0 0 11.1242323
2089 1 -16.5200005 -4.4510002 12.4899998 0 0 1 4 5 4 0 0 0 12.3093119
2091 4 19.6800003 -8.1230002 -13.2299996 0 0 0 4 6 4 0 0 0 12.12148
2097 5 -4.2220001 -7.2379999 -1.276 0 0 0 1 10 4 0 0 0 14.3158264
2104 2 12.4700003 -18.8099995 -15.8199997 0 0 0 0 12 0 0 0 0 11.3952103
2116 5 8.2270002 -13.9700004 -11.3699999 0 0 0 2 10 2 0 0 0 12.9162332
2124 5 11.5699997 -15.5900002 13.7200003 0 0 1 0 11 1 0 0 0 11.4895621
2126 5 9.993 -6.2670002 -13.3699999 0 0 0 0 12 0 0 0 0 12.59025
2144 4 9.0780001 7.4250002 5.4790001 0 0 0 2 8 4 0 0 0 12.6203861
2147 1 8.4420004 -14.2100001 -15.8400002 0 0 1 2 6 4 1 0 0 11.2916765
2148 2 13.3900004 10.7600003 -6.881 0 0 1 1 9 2 0 0 0 12.0349522
2151 2 -11.96 6.8260002 21.4599991 0 0 0 3 6 4 0 0 0 11.785265
2163 2 -2.593 15.2399998 10.4099999 0 0 0 2 8 1 0 0 0 11.3177853
2180 5 -2.8570002 0.7348 -10.3699999 0 0 1 0 9 3 0 0 0 12.0652094
2183 2 16.5900002 5.9990002 -13.1199999 0 0 0 3 6 5 0 0 0 12.0757675
2208 2 7.402 12.8199997 4.751 0 0 1 2 7 2 0 0 0 11.4522171
2211 1 26.3500004 16.25 5.6929999 0 0 0 0 12 0 0 0 0 10.8956748
2214 2 0.2596 -0.4729 -4.1680002 0 0 1 2 6 4 1 0 0 12.0027733
2219 5 14.9200002 -18.3700009 11.6899996 0 0 0 3 6 2 2 0 0 12.0576649
2224 5 -14.1199999 -18.3400002 -17.5499993 0 0 1 1 9 2 0 0 0 11.5155449
2228 5 -9.0860004 16.6100006 -15.3400002 0 0 1 4 4 4 1 0 0 11.9155006
2231 5 9.3070002 20.9400006 21.1100006 0 0 0 1 10 4 0 0 0 13.2625475
2232 3 -0.4873 -17.5900002 -9.5539999 0 0 0 3 8 3 0 0 0 12.570796
2265 2 16.3099995 0.3928 -13.0100002 0 0 0 0 12 0 0 0 0 11.1007385
2273 5 6.6500001 -20.7000008 9.3360005 0 0 1 0 11 3 0 0 0 12.6028052
2274 1 18.1000004 4.8639998 6.2049999 0 0 0 2 10 0 0 0 0 11.4047127
2284 5 15.7299996 14.9700004 -15.0100002 0 0 2 3 4 5 0 0 0 12.3501549
2285 4 -12.1599999 -8.04 -21.8099995 0 0 0 1 10 2 0 0 0 12.1034308
2298 5 14.7399998 21.5 -6.6009999 0 0 0 1 10 4 0 0 0 12.6260414
2304 4 9.3030005 -8.2670002 10.9700004 0 0 0 1 10 4 0 0 0 12.8325434
2311 5 22.3099995 -3.395 5.731 0 0 0 1 10 4 0 0 0 12.7884417
2317 4 -6.698 2.106 20.6900006 0 0 0 4 6 3 0 0 0 12.3697014
2322 4 2.2550001 -7.5710001 -8.4090004 0 0 1 1 9 5 0 0 0 13.0000963
2326 4 23.5 5.0139999 10.1700001 0 0 0 0 12 3 0 0 0 13.2340326
2337 5 13.2200003 -9.2220001 -14.75 0 0 0 4 7 3 1 0 0 13.1561794
2341 4 14.3100004 -5.6690002 -14.54 0 0 0 3 6 4 0 0 0 11.525753
2351 5 25.1599999 9.9659996 -16.4400006 0 0 0 2 9 2 1 0 0 12.6866408
2368 2 -1.969 -15.29 -15.3900004 0 0 0 1 10 2 0 0 0 12.2264738
2369 5 1.596 14.1700001 -10.5699997 0 0 0 1 10 2 0 0 0 11.9497032
2385 4 -12.2799997 3.141 14.25 0 0 0 1 10 3 0 0 0 11.9576608
2386 2 22.25 20.9799996 -22.0699997 0 0 1 2 7 3 0 0 0 12.0475569
2407 2 -0.5516 7.9060002 2.1860001 0 0 0 3 8 2 0 0 0 12.3346434
2414 1 13.1499996 -12.75 -17.0100002 0 0 0 6 4 2 0 0 0 11.3165817
2427 4 -11.8900004 1.198 -16.5100003 0 0 0 1 10 4 0 0 0 12.586072
2429 5 14.3100004 -17.5799999 21.1800003 0 0 0 1 10 2 0 0 0 11.9618874
2441 2 -12.75 -17.1200008 8.7189999 0 0 0 3 8 3 0 0 0 12.5341692
2442 4 15.5699997 2.0079999 -20.5699997 0 0 0 2 10 3 0 0 0 12.6569262
2443 5 21.3999996 20.3899994 1.7940001 0 0 0 2 10 3 0 0 0 12.7405758
2446 2 2.5109999 -9.6850004 -12.6999998 0 0 0 2 10 0 0 0 0 11.6527138
2451 2 -16.1200008 -4.4759999 1.818 0 0 0 0 12 0 0 0 0 10.7076569
2457 4 9.9440002 3.5480001 7.5570002 0 0 1 2 6 4 1 0 0 12.2165108
2482 5 -12.7200003 0.5934 -21.4099999 0 0 0 0 11 1 0 0 0 12.028821
2489 2 1.819 -5.0240002 -7.8509998 0 0 0 3 8 2 0 0 0 11.9477816
2494 2 -16.8899994 -3.925 -9.2519999 0 0 0 3 7 3 1 0 0 12.5755272
2496 4 3.8299999 6.4640003 7.4910002 0 0 0 1 10 4 0 0 0 13.6955014
2506 2 -8.6789999 19.8799992 -0.9141 0 0 0 2 8 2 0 0 0 11.7044449
2513 5 18.8899994 17.7600003 -20.1499996 0 0 0 2 9 3 1 0 0 11.9934522
2521 2 -2.197 13.5699997 8.5539999 0 0 1 1 9 2 2 0 0 12.4634257
2523 4 12.4499998 11.9799996 21.4699993 0 0 0 1 10 4 0 0 0 12.1867781
2527 1 -14.0299997 -11.4099999 -13.3400002 0 0 0 3 6 1 2 0 0 11.2536945
2541 2 -7.79 14.3000002 19.8299999 0 0 0 3 6 5 0 0 0 11.9545938
2548 2 -10.2700005 -6.6149998 -17.2999992 0 0 1 1 9 0 2 0 0 11.9637108
2553 2 -9.3030005 2.965 -12.4399996 0 0 0 2 8 2 0 0 0 11.3762579
2557 4 2.289 16.7199993 -14.7600003 0 0 0 0 12 2 0 0 0 12.7612343
2562 5 -0.4904 19.2199993 -20.2900009 0 0 0 4 4 6 0 0 0 12.3257914
2564 4 7.152 8.4549999 -11.5299998 0 0 1 0 9 3 0 0 0 11.3826885
2573 5 10.1999998 -4.0780001 14.0200005 0 0 0 3 6 4 0 0 0 11.9870834
2574 2 -10.29 -21.3799992 3.935 0 0 0 3 5 2 1 0 0 11.0818501
2581 2 21.4899998 -10.1199999 5.4920001 0 0 0 0 12 0 0 0 0 11.5781193
2594 2 5.2909999 -1.946 -7.4000001 0 0 2 0 10 2 0 0 0 11.5153284
2596 4 15.54 14.6499996 19.5799999 0 0 0 0 12 4 0 0 0 13.5927925
2600 1 16.1499996 -6.8860002 -1.665 0 0 0 0 12 0 0 0 0 11.0995483
2619 5 -9.9119998 -7.039 20.9400006 0 0 0 0 12 2 0 0 0 12.3991585
2627 4 -4.2600002 -15.0799999 -16.5599995 0 0 1 2 6 5 1 0 0 12.8008337
2632 4 0.3808 0.7305 -20.7399998 0 0 0 2 8 4 0 0 0 12.5015927
2644 2 7.8930002 18.6399994 9.257 0 0 0 1 10 2 0 0 0 11.3881722
2647 4 12.6400004 -5.651 -18.7900009 0 0 0 1 10 4 0 0 0 12.4563885
2657 4 -8.1000004 19.0 -15.1899996 0 0 1 3 5 4 0 0 0 12.2632656
2663 4 19.7999993 13.8900004 21.4799996 0 0 0 2 9 2 1 0 0 12.7997351
2666 2 16.7600003 -4.5450001 8.8620006 0 0 0 1 10 3 0 0 0 12.262044
2675 4 -12.4799996 5.2519999 10.1800003 0 0 0 1 10 2 0 0 0 12.1874027
2695 4 -5.7810002 -7.1880002 21.1200008 0 0 0 1 10 3 0 0 0 12.1597481
2700 1 17.6000004 0.564 5.2940002 0 0 2 1 8 1 2 0 0 12.3343783
2722 5 -11.54 19.4200001 0.4403 0 0 0 1 10 5 0 0 0 13.3365374
2752 2 21.4799996 16.1499996 -4.5549999 0 0 0 0 12 0 0 0 0 11.4646006
2760 5 -6.0710001 0.02918 -19.9699994 0 0 0 1 12 1 0 0 0 12.3976145
2768 2 8.0830002 5.6640001 -4.6040001 0 0 0 3 6 4 0 0 0 12.269311
2774 4 9.0749998 0.9014 7.0819998 0 0 0 0 12 3 0 0 0 12.769228
2778 4 5.77 10.6999998 16.3199997 0 0 0 0 12 0 0 0 0 11.4010735
2782 4 -15.2399998 -21.0499992 13.3000002 0 0 0 1 10 4 0 0 0 13.7900772
2790 4 0.7575 16.8099995 3.514 0 0 0 5 4 5 0 0 0 12.8144675
2799 4 -0.7676 -11.9099998 -21.9799996 0 0 0 1 10 5 0 0 0 13.8572626
2800 4 -11.6700001 16.0900002 -20.8099995 0 0 0 2 8 4 0 0 0 12.2468739
2802 5 -4.026 11.6000004 11.8900004 0 0 0 0 12 0 0 0 0 11.1713371
2820 4 11.6599999 -11.1999998 9.1820002 0 0 0 4 6 5 0 0 0 11.9939366
2823 4 -12.4799996 13.1400003 18.6200009 0 0 0 1 10 4 0 0 0 13.0316515
2824 4 17.3600006 7.1770001 5.5079999 0 0 0 3 6 4 0 0 0 12.5039692
2837 5 21.9099998 3.8610002 5.56 0 0 1 2 7 2 2 0 0 12.3440991
2848 4 12.2200003 -17.5699997 1.105 0 0 1 3 5 6 0 0 0 11.830514
2880 5 19.3700009 -20.9300004 -16.9899998 0 0 0 3 10 2 0 0 0 13.4157419
2885 2 19.8199997 17.8400002 -17.8799992 0 0 0 2 8 3 0 0 0 11.3428373
2895 4 1.683 -19.8099995 -5.0669999 0 0 0 1 10 2 0 0 0 12.1929894
2899 5 14.6000004 -12.5299998 -1.561 0 0 0 2 8 4 0 0 0 12.2338791
2906 4 16.6800003 9.6899996 1.805 0 0 0 4 4 6 0 0 0 12.320734
2908 5 -2.264 8.1140003 0.5185 0 0 0 3 8 3 0 0 0 12.6796885
2914 2 -3.408 -1.976 -6.5700002 0 0 1 2 7 3 0 0 0 11.4482537
2932 4 -13.96 -14.2600002 -1.282 0 0 0 1 10 3 0 0 0 12.6553154
2955 4 -9.2069998 8.5109997 -14.0799999 0 0 0 1 10 4 0 0 0 12.6623354
2975 5 5.3000002 -4.191 -6.5739999 0 0 0 3 8 3 0 0 0 11.6921873
2985 4 -4.704 3.309 -16.5499993 0 0 0 1 10 3 0 0 0 12.0246677
2988 2 20.4300003 -16.7700005 8.5850001 0 0 0 3 6 4 0 0 0 11.6652174
2993 4 11.2200003 -0.7885 10.2700005 0 0 1 3 5 5 0 0 0 11.7374983
2994 4 -14.4399996 -14.8199997 -14.4399996 0 0 0 3 8 4 0 0 0 12.0703011
3004 5 9.3470001 -2.5079999 -9.1140003 0 0 0 1 12 2 0 0 0 12.408
3009 4 5.4980002 -10.5100003 -7.8660002 0 0 0 2 10 0 0 0 0 11.5524969
3020 5 12.6499996 20.2199993 -9.903 0 0 0 2 8 3 0 0 0 12.0510216
3023 2 18.2399998 -9.5319996 -10.5200005 0 0 0 2 8 4 0 0 0 12.4243288
3060 4 -7.8390002 21.3400002 -16.1200008 0 0 1 3 5 5 0 0 0 12.1615954
3068 2 3.2479999 3.6310001 6.7789998 0 0 0 2 9 2 1 0 0 12.4625941
3090 5 16.0499992 -10.0299997 20.1299992 0 0 0 1 10 4 0 0 0 12.9906216
3100 4 -4.4299999 1.709 0.1473 0 0 0 2 10 2 0 0 0 12.1687727
3115 4 -1.37 7.3979998 -1.566 0 0 0 1 10 3 0 0 0 12.4989834
3118 4 0.5843 -2.848 -3.5160001 0 0 0 2 8 4 0 0 0 12.4420815
3129 2 20.2999992 -17.8400002 -13.0900002 0 0 0 3 6 3 0 0 0 11.9804488
3133 5 24.7099991 9.6780005 -21.3199997 0 0 0 1 10 3 0 0 0 11.9728384
3134 2 4.0079999 7.2459998 -14.4600001 0 0 1 3 9 2 0 0 0 12.6769486
3145 2 -12.3699999 20.7800007 4.2810001 0 0 0 1 10 2 0 0 0 10.9941712
3150 2 21.3999996 19.2299996 7.0900002 0 0 0 1 10 3 0 0 0 11.7778969
3152 4 -3.962 -17.3299999 -15.3199997 0 0 0 0 12 0 0 0 0 11.2463894
3154 4 25.1499996 12.6099997 -3.4430001 0 0 1 1 8 3 1 0 0 12.6862669
3158 2 9.7910004 -7.4910002 3.938 0 0 0 2 10 1 0 0 0 12.0414877
3159 5 -3.336 14.9899998 -6.849 0 0 0 3 6 5 0 0 0 11.9753066
3165 5 9.8610002 -15.4399996 18.6000004 0 0 0 2 10 2 0 0 0 12.4990711
3167 2 -4.883 2.517 19.3999996 0 0 0 1 10 2 0 0 0 11.6159592
3174 4 -6.9780002 0.1261 -5.6129999 0 0 0 3 6 4 0 0 0 12.2647104
3178 4 16.1000004 -10.1899996 10.8199997 0 0 1 2 9 3 0 0 0 12.8324824
3180 2 21.1200008 20.3700009 -7.04 0 0 0 2 8 2 0 0 0 11.8067122
3182 4 13.54 -18.7099991 -18.1499996 0 0 0 0 12 4 0 0 0 13.1759663
3185 5 -0.6232 5.547 5.3400002 0 0 0 3 6 4 0 0 0 12.2264767
3186 5 3.813 -1.362 -1.425 0 0 0 1 12 1 0 0 0 12.4397898
3199 5 12.5 19.7399998 -0.1381 0 0 0 5 6 3 0 0 0 12.467885
3201 5 -11.5600004 17.75 -12.6400004 0 0 0 3 6 4 0 0 0 11.8991842
3220 4 -5.6310001 18.9799996 -15.6899996 0 0 0 1 10 5 0 0 0 13.3474779
3222 4 11.6599999 -2.4400001 -9.7539997 0 0 1 2 7 4 0 0 0 11.6080618
3234 4 -9.474 -7.5560003 5.0209999 0 0 0 2 8 5 0 0 0 12.9041824
3240 1 2.4830001 8.7119999 -13.3199997 0 0 0 1 10 2 0 0 0 12.2621098
3241 4 -10.0299997 20.7099991 -14.8900004 0 0 1 2 6 3 1 0 0 11.5628042
3246 5 -3.6329999 -21.3199997 4.5279999 0 0 2 1 8 3 2 0 0 13.670722
3267 5 2.059 -13.6300001 -7.941 0 0 0 1 10 4 0 0 0 12.925664
3286 5 9.1960001 -8.0930004 15.1800003 0 0 0 0 12 0 0 0 0 11.6735182
3287 5 13.3000002 15.4300003 -16.4400006 0 0 0 5 4 5 0 0 0 13.2782545
3298 5 1.5340001 -21.2099991 14.7399998 0 0 0 2 8 4 0 0 0 12.5737477
3301 5 21.2299996 16.4500008 -7.277 0 0 0 0 12 2 0 0 0 12.5488262
3303 5 18.9799996 2.774 -15.0100002 0 0 0 0 12 0 0 0 0 12.6262932
3305 5 24.6599999 4.916 -4.0300002 0 0 0 2 10 2 0 0 0 13.0652933
3315 4 0.8573 -10.3100004 9.9940004 0 0 2 2 5 4 1 0 0 12.3851795
3337 5 -11.5299998 -16.5900002 1.412 0 0 0 4 6 6 0 0 0 13.2037592
3343 5 -8.0179996 18.7199993 -7.3979998 0 0 0 2 10 0 0 0 0 11.1196976
3357 4 -10.8800002 13.2700005 -8.0719996 0 0 0 1 10 2 0 0 0 12.1892338
3387 5 21.8199997 17.6499996 -19.4400006 0 0 0 1 10 4 0 0 0 12.4307957
3406 5 -12.8100004 6.829 -0.528 0 0 0 2 10 3 0 0 0 12.3328009
3414 2 21.6499996 21.1100006 -4.8709998 0 0 0 1 10 2 0 0 0 11.5236168
3433 4 1.238 17.8899994 -12.79 0 0 0 0 12 2 0 0 0 12.2910013
3438 5 16.5599995 -17.5499993 -21.6800003 0 0 1 3 5 6 0 0 0 13.780757
3444 5 10.1599999 -13.4899998 3.243 0 0 2 1 10 2 0 0 0 12.4667959
3446 4 8.092 -10.0299997 6.9959998 0 0 0 3 8 5 0 0 0 13.873086
3454 2 12.5799999 16.0499992 1.522 0 0 1 2 6 2 1 0 0 11.4421978
3465 5 -14.5200005 0.3981 -9.665 0 0 0 3 10 2 0 0 0 12.7965107
3467 4 0.9868 -5.5689998 -9.9309998 0 0 0 0 12 0 0 0 0 12.450655
3471 2 -20.0699997 -20.7199993 16.7199993 0 0 0 0 12 0 0 0 0 11.0440979
3481 4 -1.7150001 -14.4899998 -17.7900009 0 0 0 1 10 2 0 0 0 12.2264261
3489 2 -8.8120003 -7.106 -19.3899994 0 0 0 2 10 3 0 0 0 12.3296232
3497 2 20.75 12.25 8.3389998 0 0 0 4 4 7 0 0 0 11.67797
3501 4 6.0799999 -6.5100003 9.5270005 0 0 1 3 7 2 0 0 0 11.7993107
3516 4 15.3400002 -9.052 2.625 0 0 0 1 10 4 0 0 0 12.7261048
3529 5 10.1899996 -8.5559998 -1.904 0 0 0 1 10 3 0 0 0 12.7476654
3540 4 1.508 3.5480001 -7.961 0 0 0 0 10 2 0 0 0 12.0631399
3561 5 -4.4689999 12.9700004 8.1890001 0 0 0 0 12 0 0 0 0 11.2074986
3563 2 -14.4799996 -7.1040001 -22.1599999 0 0 0 1 10 2 0 0 0 12.0137911
3571 4 0.02764 10.6400004 2.2019999 0 0 1 4 6 4 1 0 0 13.3068428
3587 4 17.4899998 -20.1800003 -21.0699997 0 0 0 2 10 3 0 0 0 12.910985
3597 2 11.1199999 -0.1158 -9.7259999 0 0 1 2 5 5 0 0 0 11.9029962
3613 4 -0.2852 15.9499998 -13.8000002 0 0 1 2 7 4 0 0 0 12.8040543
3614 4 -7.0710001 1.901 7.3390002 0 0 0 1 10 2 0 0 0 11.239913
3617 5 -15.4099999 -22.1399994 0.3886 0 0 0 3 6 4 0 0 0 12.2515545
3634 5 12.7799998 -13.4499998 -6.2800002 0 0 0 1 10 4 0 0 0 12.1951904
3636 4 3.2920001 -16.1100006 -0.6143 0 0 1 2 7 3 2 0 0 12.6495428
3648 2 -5.0320001 16.1800003 5.2449999 0 0 1 3 7 1 2 0 0 12.0145388
3659 4 18.2199993 -3.5150001 21.0200005 0 0 0 2 8 4 0 0 0 12.6800986
3662 2 -3.27 4.375 19.2800007 0 0 1 3 4 4 1 0 0 11.3255091
3675 1 2.569 15.5200005 18.5200005 0 0 0 0 12 0 0 0 0 10.6879616
3678 2 -8.3299999 -2.593 -9.9370004 0 0 0 1 10 2 0 0 0 11.0898752
3690 5 -11.1700001 -14.0600004 3.089 0 0 1 2 7 4 0 1 0 13.2706499
3708 3 6.0689998 -4.276 -3.945 0 0 0 3 6 5 0 0 0 11.9800702
3714 4 3.975 -12.4499998 -21.2299996 0 0 0 1 10 5 0 0 0 13.5904284
3726 5 4.1529999 -22.2099991 -20.9400006 0 0 0 0 12 2 0 0 0 12.4349852