ITEM: TIMESTEP
0
ITEM: NUMBER OF ATOMS
50688
ITEM: BOX BOUNDS xy xz yz pp pp pp
-20.3679009 75.850975 15.9380856
-22.2159996 65.355896 0.0
-22.2159996 65.355896 0.0
ITEM: ATOMS id type x y z VoronoiIndex1 VoronoiIndex2 VoronoiIndex3 VoronoiIndex4 VoronoiIndex5 VoronoiIndex6 VoronoiIndex7 VoronoiIndex8 VoronoiIndex9 AtomicVolume
9 1 -12.7100001 -11.6899996 4.0339999 0 0 0 3 8 2 0 0 0 11.7704907
25 2 7.6399999 20.0300007 18.1000004 0 0 0 0 12 0 0 0 0 11.4774571
35 2 21.0 15.3699999 -12.9200002 0 0 1 4 3 4 2 0 0 12.2184849
42 2 21.7999993 15.5200005 -9.0799999 0 0 0 2 10 0 0 0 0 11.0186968
57 5 4.7329998 -3.5780001 -19.6100006 0 0 0 1 10 2 0 0 0 11.5114212
71 2 3.1689999 18.6200009 -14.1499996 0 0 0 1 10 2 0 0 0 11.9222632
81 4 13.0900002 -2.744 -9.3719998 0 0 0 0 12 0 0 0 0 11.0689764
82 5 -14.8900004 -13.2299996 -21.2800007 0 0 0 3 6 5 0 0 0 12.658124
91 2 2.4879999 19.8299999 -10.0699997 0 0 1 1 9 3 0 0 0 12.3263168
101 1 -10.3400002 -18.1399994 -3.6340001 0 0 1 2 5 4 0 0 0 12.0680332
105 4 2.2509999 14.0 -16.2000008 0 0 0 4 4 6 0 0 0 11.5165835
110 5 -8.6929999 -16.1499996 2.5409999 0 0 1 3 7 2 2 0 0 12.0089045
112 2 10.0600004 -3.7950001 14.8400002 0 0 0 2 8 4 0 0 0 12.7343254
128 5 -15.1899996 -13.0799999 8.2189999 0 0 1 2 7 4 0 0 0 12.6985684
141 5 3.563 8.4530001 -9.4619999 0 0 0 2 8 4 0 0 0 12.5631657
147 5 10.8999996 -2.049 11.1700001 0 0 1 1 8 3 1 0 0 11.8393974
159 4 14.3299999 -2.6229999 15.7200003 0 0 0 4 4 4 2 0 0 11.8060971
165 1 20.3999996 -10.9799996 -14.8199997 0 0 0 0 12 0 0 0 0 10.922142
168 5 3.096 -7.1539998 -15.1099997 0 0 1 0 9 3 0 0 0 11.6951962
171 2 -1.852 8.4560004 -10.5100003 0 0 0 3 6 4 0 0 0 11.5120631
174 4 -7.441 16.9799996 11.4700003 0 0 0 3 6 5 0 0 0 12.1201391
184 2 12.5200005 -1.085 12.87 0 0 0 2 7 1 1 1 0 11.4314118
186 5 13.2399998 12.9399996 -15.8400002 0 0 0 1 10 2 0 0 0 12.3146391
196 5 9.4610005 -7.184 -2.1719999 0 0 1 1 9 3 0 0 0 12.6615019
214 2 0.1595 17.5799999 -18.0900002 0 0 0 3 6 4 0 0 0 11.7922049
217 2 -16.5699997 -6.665 19.7600003 0 0 0 2 8 4 0 0 0 12.3769188
243 4 2.4089999 2.537 14.3100004 0 0 1 2 7 5 0 0 0 12.3517723
244 5 9.7550001 -11.9499998 19.0599995 0 0 0 4 6 4 0 0 0 12.7115946
245 1 -10.4300003 4.5609999 -19.6299992 0 0 0 2 10 0 0 0 0 11.3509569
247 2 10.96 14.5500002 -4.935 0 0 0 1 10 2 0 0 0 12.2002745
254 2 -7.9860002 19.0499992 -7.606 0 0 1 2 6 3 1 0 0 11.997634
273 4 18.3500004 -11.7399998 0.3656 0 0 0 2 8 4 0 0 0 12.5255614
275 4 14.79 -0.06519 11.9399996 0 0 0 4 4 6 0 0 0 12.064168
295 4 -3.964 4.6090002 -9.3199997 0 0 1 3 9 3 0 0 0 12.516449
299 5 0.185 20.0100002 -18.6599999 0 0 0 0 12 3 0 0 0 12.8969384
300 2 17.3700009 -8.316 1.662 0 0 0 3 4 5 0 0 0 11.9135866
313 5 -1.896 -12.6899996 3.3810001 0 0 1 2 7 3 2 0 0 13.1440382
314 5 -17.9799996 -20.3600006 3.895 0 0 1 0 11 1 0 0 0 12.1404457
327 4 -3.003 -1.418 14.6300001 0 0 0 2 10 2 0 0 0 11.9118824
335 1 -9.5220003 17.8299999 -14.4099999 0 0 0 2 10 0 0 0 0 11.6609001
348 4 -8.8020001 4.6880002 11.87 0 0 0 3 6 3 0 0 0 11.8070288
360 4 8.7880001 -20.4400006 -7.9190002 0 0 0 1 10 6 0 0 0 14.4887162
364 4 -7.7020002 5.0300002 -16.2099991 0 0 0 2 8 5 0 0 0 13.5669842
387 4 14.1800003 -11.4499998 0.8726 0 0 0 2 10 2 0 0 0 12.2836132
397 1 -8.1309996 3.3740001 19.2700005 0 0 0 3 6 5 0 0 0 12.2262879
401 4 -13.7299996 13.1700001 12.2200003 0 0 0 0 12 0 0 0 0 11.8264237
410 4 7.2849999 -3.48 7.7189999 0 0 0 1 10 3 0 0 0 12.5915423
412 1 -6.178 14.0500002 -5.87 0 0 1 3 6 2 1 0 0 11.829648
415 2 -7.6950002 3.569 -12.4099999 0 0 0 3 6 3 0 0 0 11.3392191
419 2 4.3990002 -9.658 -11.3299999 0 0 0 5 6 2 0 0 0 11.7833004
420 5 8.8409996 -9.717 -11.1199999 0 0 1 3 5 5 0 0 0 11.715869
432 5 3.942 10.3400002 8.3000002 0 0 1 1 9 4 0 0 0 13.0392389
438 4 -13.6999998 -19.5300007 16.6700001 0 0 1 2 8 4 1 0 0 13.0316086
439 4 -7.6880002 18.8400002 -15.5699997 0 0 1 1 9 2 2 0 0 13.1878605
442 4 5.9390002 18.3999996 -18.2199993 0 0 0 2 8 4 0 0 0 12.5808506
453 4 0.3372 2.5510001 7.79 0 0 0 3 6 5 0 0 0 12.9088832
459 4 -11.8199997 2.3640001 -20.4200001 0 0 1 1 9 3 0 0 0 12.7483225
465 3 18.5300007 -9.8570004 -15.5900002 0 0 0 1 10 2 0 0 0 11.5539847
477 5 -13.6199999 -5.0510001 -3.4159999 0 0 0 3 7 4 1 0 0 12.9986696
485 4 6.9580002 5.843 -15.6599999 0 0 0 1 10 3 0 0 0 12.4511004
515 5 -2.2449999 -12.2799997 16.8600006 0 0 0 1 10 4 0 0 0 12.3586998
520 5 3.3640001 -15.3800001 11.1700001 0 0 2 2 9 1 1 1 0 13.6420098
533 4 10.5500002 5.8280001 -4.605 0 0 0 0 12 4 0 0 0 13.1940022
537 2 16.4400006 9.158 -9.4510002 0 0 0 2 8 1 0 0 0 10.8253546
540 5 -10.6800003 -15.6400004 0.7274 0 0 0 0 12 0 0 0 0 11.8431474
550 4 6.777 -9.4729996 12.2700005 0 0 0 1 10 1 2 0 0 12.4223519
562 2 2.214 -11.5200005 -21.7800007 0 0 0 2 10 1 0 0 0 11.5430393
564 4 12.6599999 0.1341 18.2700005 0 0 1 3 5 5 0 0 0 12.2143307
567 4 5.3639999 -12.9099998 20.9699994 0 0 0 0 12 0 0 0 0 10.9583702
574 5 14.9499998 -16.1299992 -12.9799996 0 0 0 1 10 3 0 0 0 12.5609074
580 2 15.1800003 -15.0600004 -10.8500004 0 0 1 3 5 3 0 0 0 11.6085959
585 4 10.8500004 -8.4350004 -11.9200002 0 0 0 3 6 6 0 0 0 12.6666127
603 5 -11.9499998 -17.3700009 -0.4837 0 0 1 0 9 3 0 0 0 12.1836491
604 4 21.2600002 -8.4630003 16.6399994 0 0 0 2 10 2 0 0 0 12.5381556
620 4 2.6329999 17.8400002 8.0930004 0 0 1 1 9 3 2 0 0 13.8029013
622 5 0.9677 -3.234 5.5170002 0 0 0 0 12 2 0 0 0 12.3935213
634 4 -7.7399998 -22.0300007 -0.2596 0 0 0 2 8 4 0 0 0 12.2855234
642 4 -5.2989998 4.501 -20.1700001 0 0 1 2 9 3 0 0 0 12.4790077
643 5 14.4099999 0.677 -17.8299999 0 0 0 2 8 2 0 0 0 11.8321924
650 2 15.8199997 -12.7799998 17.3199997 0 0 0 0 12 0 0 0 0 11.6225052
653 4 -1.777 -15.29 3.197 0 0 0 1 11 5 1 0 0 14.7509394
654 4 0.4261 -7.198 -0.5134 0 0 1 1 8 3 1 0 0 12.1536064
656 4 4.8330002 -13.1400003 15.0900002 0 0 0 1 10 2 0 0 0 12.0997486
665 4 -9.0439997 -6.2950001 -22.0499992 0 0 0 3 6 3 1 0 0 12.1150494
666 4 -11.6400004 -10.1899996 -0.197 0 0 1 3 4 5 1 0 0 12.0263596
671 2 17.7099991 -0.3642 17.3600006 0 0 0 0 12 0 0 0 0 11.4983263
673 2 9.7810002 6.401 12.54 0 0 0 0 12 0 0 0 0 11.5485525
679 4 9.7620001 14.6599999 17.5699997 0 0 0 1 10 2 0 0 0 11.5057907
683 5 -6.8020001 12.5600004 18.3899994 0 0 0 0 12 2 0 0 0 12.3381968
687 5 13.2200003 -9.9460002 19.7900009 0 0 0 2 8 2 0 0 0 12.0815268
712 4 24.9300004 10.7799998 -15.6499996 0 0 1 1 9 4 0 0 0 12.6985722
716 4 1.002 5.987 4.3959999 0 0 0 3 8 2 0 0 0 11.6865807
717 4 4.1339998 -19.0699997 1.952 0 0 0 3 6 6 0 0 0 12.3473797
719 4 24.0200005 2.237 -11.2600002 0 0 0 2 8 3 0 0 0 11.6368065
728 5 4.975 1.347 3.932 0 0 0 1 10 4 0 0 0 13.0336428
740 2 20.9300004 4.546 17.7199993 0 0 0 3 6 4 0 0 0 11.875929
743 5 21.0300007 -14.75 -18.9400006 0 0 1 2 7 4 0 0 0 12.2592926
745 4 -0.9816 -14.0900002 -17.8299999 0 0 0 1 10 3 0 0 0 12.4891463
761 5 -5.2459998 13.5 -12.0900002 0 0 0 3 6 4 0 0 0 11.9757614
775 2 -4.5710001 -11.9700004 21.5599995 0 0 0 0 12 0 0 0 0 11.4977923
776 4 19.0 6.98 4.9429998 0 0 0 0 12 0 0 0 0 11.8508102
781 4 -9.2320004 -17.9699994 -11.3000002 0 0 0 3 6 5 0 0 0 12.9087564
799 4 23.9200002 4.6620002 -1.296 0 0 1 0 9 3 0 0 0 11.6384516
806 4 -7.5180002 6.1849999 16.9500008 0 0 0 2 9 4 1 0 0 13.44697
832 5 21.4200001 -12.1000004 8.4879999 0 0 0 2 8 2 0 0 0 11.8292504
841 5 -10.0299997 21.5200005 -12.7299996 0 0 0 4 4 7 0 0 0 12.1534271
843 2 2.4930001 -2.027 -8.4600001 0 0 0 3 8 1 0 0 0 11.4885636
846 3 16.7299996 -14.6700001 -14.4399996 0 0 0 1 9 2 1 0 0 11.7000151
860 4 22.8899994 2.3250001 14.1899996 0 0 0 2 8 4 0 0 0 12.1379385
864 2 5.0609999 -2.349 1.108 0 0 0 2 8 2 0 0 0 11.3942118
897 5 5.092 -3.27 11.3000002 0 0 0 1 10 2 0 0 0 11.8551788
902 2 -18.8500004 -21.5100003 20.5699997 0 0 0 1 10 3 0 0 0 11.6220713
905 4 18.7399998 -3.6199999 -3.013 0 0 0 0 12 2 0 0 0 12.1676149
917 5 7.6570001 -12.4300003 20.3099995 0 0 0 2 8 2 0 0 0 11.9423724
949 2 13.8100004 4.3480001 21.0200005 0 0 0 0 12 2 0 0 0 11.827735
952 2 10.5 1.449 0.9317 0 0 0 0 12 2 0 0 0 12.8658172
961 2 -3.2790001 -19.0599995 -6.105 0 0 0 4 4 5 0 0 0 11.1433468
990 4 3.207 -13.0200005 -20.1800003 0 0 0 3 6 4 0 0 0 12.6951866
996 5 12.4499998 -8.573 15.8299999 0 0 0 1 10 3 0 0 0 11.917326
999 4 2.106 10.7399998 -10.2700005 0 0 0 2 8 5 0 0 0 12.4637432
1009 5 8.3879995 12.5500002 17.8700008 0 0 0 2 10 1 0 0 0 12.2799864
1018 3 23.6800003 18.5 13.6000004 0 0 0 1 10 2 0 0 0 12.403368
1023 2 16.7999993 -2.431 -16.1599999 0 0 0 3 8 2 0 0 0 12.0032492
1027 4 -6.9840002 -8.7419997 19.0400009 0 0 1 1 9 3 0 0 0 11.7720394
1034 4 13.1199999 7.7859998 -14.4300003 0 0 0 1 10 2 0 0 0 11.4908057
1039 5 9.9099998 11.4200001 -20.8400002 0 0 1 0 9 3 0 0 0 12.4381104
1040 1 6.4109998 -13.9399996 -21.0599995 0 0 0 5 4 2 2 0 0 11.4903488
1063 5 15.4899998 -19.7299996 -14.75 0 0 0 1 10 2 0 0 0 11.8150368
1067 3 17.0699997 -6.2620001 -19.3099995 0 0 1 2 6 5 1 0 0 13.2129736
1068 5 -4.3860002 6.9400002 -1.8890002 0 0 1 2 7 4 0 0 0 11.1614323
1087 4 -13.1199999 16.1299992 -0.3702 0 0 1 3 5 6 0 0 0 11.9562636
1089 4 -3.931 -6.2969999 4.073 0 0 0 2 8 6 0 0 0 13.7989655
1091 5 -2.799 -15.0100002 8.2060003 0 0 1 1 9 3 0 0 0 12.1191855
1094 5 9.9189998 3.2720001 19.2999992 0 0 0 2 8 4 0 0 0 12.3312931
1097 1 22.7999993 0.8674 -17.5799999 0 0 0 0 12 0 0 0 0 10.9933616
1101 4 -9.5979996 -14.4499998 11.1800003 0 0 0 0 12 3 0 0 0 12.8724442
1111 4 -15.3800001 -19.0900002 20.3500004 0 0 0 2 8 2 0 0 0 12.2520704
1113 4 13.4399996 5.368 18.6000004 0 0 0 0 12 0 0 0 0 10.8130818
1119 4 16.8400002 -6.6009999 19.9200002 0 0 1 3 4 5 1 0 0 12.8127547
1127 2 -5.0100002 16.1299992 -2.3340001 0 0 1 4 5 3 0 1 0 12.238637
1129 2 18.3199997 20.3299999 20.0100002 0 0 0 0 12 0 0 0 0 11.4083815
1143 5 -4.6659999 12.9700004 0.3444 0 0 0 2 8 5 0 0 0 13.0661087
1147 4 -13.1099997 0.6236 -10.0200005 0 0 0 1 10 2 0 0 0 11.5016938
1152 2 -11.87 -11.3299999 -6.5250001 0 0 0 0 12 0 0 0 0 10.876504
1158 2 3.5950001 15.0900002 13.3699999 0 0 0 0 12 0 0 0 0 11.9465734
1161 4 9.4259997 -0.3533 -3.1819999 0 0 0 1 10 4 0 0 0 12.6742773
1167 4 19.3199997 -4.4070001 -0.6230001 0 0 0 0 12 0 0 0 0 11.6179285
1171 5 -1.419 1.176 14.0900002 0 0 0 2 8 5 0 0 0 12.1625557
1175 4 7.4120002 18.3500004 15.8299999 0 0 0 0 12 3 0 0 0 12.1977358
1185 2 8.3850002 -3.3469999 -21.5799999 0 0 0 0 12 0 0 0 0 11.036294
1190 2 -11.1499996 -13.8100004 -16.1599999 0 0 0 1 10 2 0 0 0 11.1627369
1191 4 -12.3400002 20.2099991 -11.7600003 0 0 0 2 8 5 0 0 0 13.1379681
1207 5 11.9200002 19.2299996 18.2700005 0 0 0 0 12 0 0 0 0 11.4959641
1208 4 15.6700001 18.3999996 -4.5050001 0 0 0 2 8 4 0 0 0 12.3650522
1212 4 8.4870005 -2.378 11.4099999 0 0 1 3 5 4 2 0 0 12.773284
1214 5 17.4099999 5.2519999 15.8800002 0 0 1 2 6 3 1 0 0 12.080987
1217 5 -7.7839999 11.2200003 4.198 0 0 0 1 10 4 0 0 0 12.6654787
1226 4 11.3999996 19.9500008 -16.1200008 0 0 0 4 4 6 0 0 0 11.8958264
1243 2 -0.8629 -21.1000004 18.6900006 0 0 0 2 8 2 0 0 0 11.6776743
1245 5 17.8400002 -14.4099999 1.3710001 0 0 0 1 10 2 0 0 0 12.9108458
1246 4 9.8190003 12.1000004 -10.8100004 0 0 0 1 10 5 0 0 0 13.5462113
1249 2 -9.7469998 -6.8140002 21.1000004 0 0 0 1 10 2 0 0 0 11.654418
1250 2 -5.4239998 13.4899998 6.9169998 0 0 0 0 12 0 0 0 0 11.1557379
1252 4 -16.5100003 -16.3999996 -18.9799996 0 0 0 2 10 2 0 0 0 13.4384365
1261 4 5.4829998 -0.1784 -0.5026 0 0 0 2 10 2 0 0 0 12.0906029
1269 5 -17.8400002 -18.4899998 -7.3350001 0 0 0 2 8 4 0 0 0 12.5336437
1270 2 -0.07232 7.5630002 0.2533 0 0 0 2 8 2 0 0 0 12.2294779
1295 4 -4.5409999 -20.2700005 -4.3189998 0 0 0 2 8 4 0 0 0 12.7461357
1305 5 -1.16 18.6399994 14.4600001 0 0 0 2 8 4 0 0 0 13.0529251
1306 5 -3.7149999 17.0599995 -8.4440003 0 0 0 0 12 0 0 0 0 11.5869379
1318 5 -1.541 -2.5290001 -13.7799998 0 0 0 3 7 3 1 0 0 12.6200466
1328 2 6.2090001 15.2700005 -5.178 0 0 0 0 12 0 0 0 0 11.4721985
1333 5 22.5599995 -5.8930002 11.7399998 0 0 0 4 6 5 0 0 0 12.5961905
1335 5 -4.651 1.8300001 20.9400006 0 0 2 1 7 4 1 0 0 12.8462754
1337 4 14.7299996 -13.3199997 -7.401 0 0 1 3 4 3 1 0 0 11.1890335
1340 4 15.0100002 15.4899998 -0.4921 0 0 0 3 8 3 0 0 0 12.8973476
1352 4 -19.0599995 -21.2600002 17.9300004 0 0 0 1 12 2 0 0 0 12.5805111
1357 5 15.5699997 -9.276 -5.04 0 0 0 1 10 4 0 0 0 12.8468456
1371 4 16.9400006 9.4020004 -1.64 0 0 0 1 10 2 0 0 0 11.2549629
1374 4 15.6400004 -6.7849999 1.362 0 0 0 1 10 3 0 0 0 12.4474755
1384 2 20.1900005 -12.8400002 -13.4200001 0 0 0 2 8 4 0 0 0 11.1426792
1386 2 7.0370002 2.398 4.7360001 0 0 0 3 6 4 0 0 0 11.7175894
1388 5 11.7100001 -2.4419999 -7.303 0 0 0 2 8 2 0 0 0 11.2158461
1393 4 3.0139999 -5.1009998 4.942 0 0 1 0 11 1 0 0 0 12.3285561
1410 1 24.7099991 12.4200001 0.3374 0 0 0 0 12 0 0 0 0 10.922308
1415 4 0.7067001 -12.0 -2.23 0 0 0 2 10 3 0 0 0 13.3138075
1419 4 11.0600004 -17.3799992 -13.9799996 0 0 0 3 10 1 0 0 0 12.3307896
1427 5 17.75 -16.25 -3.0009999 0 0 0 0 12 0 0 0 0 11.0964613
1433 5 -0.1043 -3.5710001 14.8000002 0 0 0 6 6 1 2 0 0 13.3005371
1444 4 -5.085 3.603 11.3400002 0 0 0 2 10 0 0 0 0 12.3749409
1447 4 1.5950001 -18.6900006 14.9799996 0 0 0 2 8 5 0 0 0 13.2435389
1450 1 17.9699994 5.7119999 -6.2880001 0 0 0 5 6 1 0 0 0 11.1003418
1452 4 -9.4989996 -7.1529999 -19.6700001 0 0 1 1 8 3 1 0 0 12.3759871
1469 2 2.131 -15.87 -1.76 0 0 0 2 10 1 0 0 0 11.3257485
1471 5 -19.1000004 -19.8400002 -11.1800003 0 0 0 0 12 2 0 0 0 11.349042
1476 5 3.2839999 -22.1399994 -1.084 0 0 0 4 4 7 0 0 0 13.1389275
1487 4 0.3327 -14.3599997 -9.0279999 0 0 0 2 10 1 0 0 0 13.2878971
1504 5 9.3879995 6.3060002 -16.7000008 0 0 0 3 6 4 0 0 0 12.3243532
1516 2 17.4200001 18.8700008 -2.741 0 0 0 0 12 0 0 0 0 10.9820224
1528 2 18.3099995 -19.7999993 17.0599995 0 0 0 0 12 0 0 0 0 11.1016226
1533 2 8.2550001 2.3610001 -5.973 0 0 0 0 12 0 0 0 0 11.4408455
1534 4 8.3529997 16.6100006 0.9314 0 0 0 3 8 3 0 0 0 12.3948374
1543 1 -19.2999992 -16.9699994 6.2550001 0 0 0 0 12 0 0 0 0 11.6629524
1548 4 9.6079998 -15.2799997 16.4599991 0 0 0 2 8 5 0 0 0 12.945139
1550 4 -3.6589999 -12.0799999 -12.9700004 0 0 0 2 8 3 1 0 0 12.7479916
1561 4 -12.3199997 3.6270001 5.2649999 0 0 0 0 12 3 0 0 0 12.659832
1566 1 7.7140003 2.322 -8.5360003 0 0 0 1 12 2 0 0 0 12.1266022
1581 2 4.0799999 10.5900002 -4.2069998 0 0 0 0 12 0 0 0 0 11.2501164
1584 2 20.0799999 19.0400009 19.0699997 0 0 0 0 12 0 0 0 0 11.0754786
1585 3 -10.1899996 -17.0100002 15.9700004 0 0 0 1 10 3 0 0 0 12.3787279
1595 5 2.478 2.695 -12.7399998 0 0 0 3 7 2 1 0 0 12.1644754
1605 5 6.1849999 -4.3509998 0.1913 0 0 0 2 9 2 0 0 0 12.2028599
1618 4 -2.5320001 -4.151 21.5499993 0 0 0 2 8 5 0 0 0 12.981514
1619 5 25.4400006 20.5900002 -12.0699997 0 0 0 2 8 5 0 0 0 12.1444511
1622 4 8.4610005 15.3900004 -1.5850001 0 0 0 1 10 5 0 0 0 13.8973466
1625 4 7.2020001 -5.967 8.5609999 0 0 0 1 12 2 0 0 0 13.05828
1630 4 -1.0190001 -14.9499998 12.6400004 0 0 0 1 12 2 0 0 0 12.8495312
1632 4 -0.8611 -4.6230002 -12.8299999 0 0 0 3 6 4 0 0 0 11.7986737
1644 4 5.9310002 14.0900002 13.9300004 0 0 0 3 8 4 0 0 0 13.4151392
1661 5 19.8099995 2.569 -19.8700008 0 0 0 1 10 2 0 0 0 13.0022631
1666 4 -19.2999992 -22.2199993 -12.0600004 0 0 1 3 7 1 2 0 0 12.0911875
1667 4 -5.4600001 11.0799999 -9.1569996 0 0 0 2 8 5 0 0 0 12.547843
1672 4 6.6240001 -18.2800007 -20.4200001 0 0 1 1 8 3 1 0 0 12.1676455
1687 5 14.3999996 -0.4825 14.6199999 0 0 1 5 5 1 0 0 0 11.3354921
1694 2 16.1499996 -0.5246001 3.2590001 0 0 1 0 9 3 0 0 0 11.2917614
1699 4 16.5400009 -7.6469999 8.3620005 0 0 0 2 10 2 0 0 0 11.9474774
1700 5 11.79 12.8500004 20.6800003 0 0 0 2 8 4 0 0 0 11.8740474
1705 1 -3.563 -12.9099998 -0.7603 0 0 0 2 10 1 0 0 0 11.5611983
1707 4 16.1000004 5.3210001 -12.3100004 0 0 0 2 8 4 0 0 0 12.4374914
1712 2 12.8299999 -13.5600004 -21.4799996 0 0 0 2 10 1 0 0 0 12.1017857
1714 4 16.2199993 0.8085 16.0699997 0 0 0 1 10 2 0 0 0 11.1433983
1724 2 -3.5179999 1.157 -12.54 0 0 0 0 12 0 0 0 0 11.6742382
1730 5 -4.322 -0.167 19.3899994 0 0 1 1 9 2 2 0 0 12.4936953
1733 1 -8.9320002 -13.1800003 19.6000004 0 0 0 3 6 4 0 0 0 11.7611895
1737 4 10.25 -19.6900006 -0.7117 0 0 0 0 12 0 0 0 0 11.4423514
1743 4 -7.9910002 -15.8900004 0.3929 0 0 0 1 10 4 0 0 0 12.5722571
1745 4 -17.1000004 -22.1000004 16.9699994 0 0 0 4 8 1 0 0 0 12.4961939
1750 4 0.3981 5.6950002 -1.5720001 0 0 0 1 10 2 0 0 0 12.1737604
1751 4 -3.2950001 -9.8100004 -3.661 0 0 0 4 5 4 0 0 0 11.8067408
1772 2 -5.4549999 21.2700005 -19.7199993 0 0 2 2 5 4 1 0 0 11.1275387
1796 2 10.5 -7.4510002 -20.7600003 0 0 0 1 10 2 0 0 0 11.9380418
1803 2 13.7399998 -3.619 -6.9660002 0 0 2 0 8 2 2 0 0 12.0281563
1805 4 20.7099991 16.7399998 -18.2700005 0 0 0 0 12 0 0 0 0 11.1069756
1813 4 -16.2199993 -2.671 -8.5120001 0 0 0 3 7 4 1 0 0 12.3183279
1834 4 18.7199993 17.9799996 20.9699994 0 0 0 1 10 3 0 0 0 13.0972061
1838 2 6.8249998 19.5400009 -2.7809999 0 0 0 0 12 0 0 0 0 10.6807127
1847 4 15.4200001 -15.5699997 -18.2999992 0 0 0 5 4 5 0 0 0 12.4212132
1849 5 -2.7049999 -6.1529999 -12.1999998 0 0 0 3 6 4 0 0 0 11.9091616
1854 4 14.5100003 -6.559 8.375 0 0 0 0 12 0 0 0 0 11.3139401
1860 2 -8.903 -3.316 -16.7999993 0 0 0 0 12 0 0 0 0 10.6156521
1864 5 22.4699993 6.2329998 20.8600006 0 0 0 4 8 2 0 0 0 11.9114924
1868 4 -13.8500004 7.1500001 7.6360002 0 0 0 0 12 2 0 0 0 11.869341
1873 4 11.2600002 -19.0799999 -8.4779997 0 0 0 0 12 0 0 0 0 11.7234373
1880 5 4.8010001 -17.7900009 20.3099995 0 0 0 1 10 2 0 0 0 12.325943
1882 2 25.2399998 16.5100003 21.5 0 0 0 5 6 2 0 0 0 11.6963578
1890 4 -13.1199999 -19.0799999 8.1619997 0 0 0 4 4 6 0 0 0 12.2032433
1893 2 8.3629999 -10.0100002 0.824 0 0 0 0 12 0 0 0 0 11.0773754
1911 4 14.3299999 -13.25 5.461 0 0 0 3 10 2 0 0 0 12.9162932
1921 4 13.3500004 16.8600006 4.2719998 0 0 0 1 10 2 0 0 0 11.908206
1925 2 11.3699999 -19.4500008 -15.0799999 0 0 0 1 10 2 0 0 0 12.4367504
1926 4 -2.973 9.6770001 -8.6289997 0 0 0 2 10 1 0 0 0 11.9650708
1928 4 -2.108 7.6339998 1.444 0 0 0 3 10 1 0 0 0 12.6131258
1934 4 -3.596 18.4699993 -6.0840001 0 0 0 0 12 2 0 0 0 12.446333
1935 4 4.882 -0.6759 5.777 0 0 0 0 12 0 0 0 0 11.6723843
1938 4 -5.6479998 -1.5930001 -8.7869997 0 0 1 2 7 3 1 0 0 12.5724964
1943 5 -6.883 21.1299992 -17.7000008 0 0 0 2 10 1 0 0 0 11.6132565
1947 5 -6.454 3.4920001 17.4099999 0 0 0 2 8 5 0 0 0 13.4841357
1948 4 -5.4289999 -2.7750001 -11.29 0 0 0 0 12 4 0 0 0 13.3869181
1954 5 -11.5100003 -8.7229996 14.3500004 0 0 0 2 10 1 0 0 0 11.3434258
1979 5 21.8899994 -9.4600001 8.6709996 0 0 0 0 12 3 0 0 0 12.5733109
1984 5 17.2700005 -21.8199997 1.24 0 0 0 1 10 4 0 0 0 12.9145566
1986 4 -4.9380002 11.8400002 12.87 0 0 0 0 12 2 0 0 0 12.2745485
1993 5 -12.7100001 -5.7550001 -16.0599995 0 0 0 2 8 4 0 0 0 12.8114271
1996 4 -5.257 16.1299992 6.6339998 0 0 1 1 9 4 0 0 0 12.1832256
1998 2 -2.089 5.5970001 7.8649998 0 0 1 4 4 4 1 0 0 11.8973018
2001 4 7.7579999 -4.6020003 5.5390001 0 0 0 2 8 6 0 0 0 13.2248974
2006 5 -13.8000002 -8.3959999 -21.3099995 0 0 0 1 10 2 0 0 0 11.2352953
2009 4 -14.0500002 -16.5900002 -1.249 0 0 0 2 10 3 0 0 0 13.2320395
2020 2 12.3900004 -2.543 3.964 0 0 0 2 7 2 1 0 0 11.9261046
2022 5 14.7399998 -11.9399996 19.2900009 0 0 0 0 12 2 0 0 0 12.8906022
2027 4 -5.4050002 -2.912 14.2100001 0 0 0 0 12 3 0 0 0 12.9907056
2028 2 -8.974 7.8940002 1.244 0 0 0 1 10 3 0 0 0 11.9225702
2050 2 -18.8899994 -18.2299996 -14.8299999 0 0 0 0 12 0 0 0 0 11.5468741
2055 4 6.6069999 -2.4649999 -10.5100003 0 0 0 1 10 4 0 0 0 13.1394072
2056 5 16.2600002 12.2799997 9.8020001 0 0 0 1 9 2 1 0 0 13.2506352
2062 2 8.4530001 16.6700001 -15.4099999 0 0 1 3 5 4 0 0 0 10.810978
2070 2 -12.3699999 -20.5799999 -14.8299999 0 0 0 0 12 0 0 0 0 11.125145
2073 4 -6.145 -13.3999996 -19.7600003 0 0 0 3 6 4 0 0 0 11.4043102
2082 2 17.2099991 16.5799999 11.5600004 0 0 0 2 8 2 0 0 0 11.5509939
2083 4 -5.2220001 -18.2299996 -14.0 0 0 0 1 10 2 0 0 0 11.279645
2087 5 -13.6499996 -8.0109997 -7.4250002 0 0 0 0 12 0 0 0 0 10.4571781
2089 1 16.7900009 -13.4799996 -18.6399994 0 0 0 4 8 1 0 0 0 11.85314
2093 5 -5.8039999 -12.9899998 11.6599999 0 0 0 0 12 0 0 0 0 11.1273823
2095 4 -3.0669999 -7.993 -20.4099999 0 0 0 1 10 2 0 0 0 11.4665623
2106 2 21.7999993 -5.0510001 7.6269999 0 0 2 2 2 6 0 0 0 11.7837734
2112 4 21.7700005 -2.3970001 10.0200005 0 0 0 1 10 2 0 0 0 12.6614094
2143 2 5.1009998 4.2989998 17.1200008 0 0 2 2 5 6 1 0 0 13.001668
2145 1 19.5599995 -21.0 -20.0699997 0 0 0 1 10 2 0 0 0 11.123868
2154 4 17.3799992 14.8400002 -1.648 0 0 0 3 6 3 0 0 0 12.5763827
2160 2 11.25 9.9630004 2.7230001 0 0 0 3 6 4 0 0 0 11.2256241
2167 5 16.9300004 14.9799996 9.4870005 0 0 2 1 9 4 1 0 0 13.4345131
2176 5 7.9770002 14.2200003 0.9505 0 0 0 3 8 1 0 0 0 11.6526137
2178 4 -14.4499998 -18.5799999 -5.481 0 0 0 2 10 2 0 0 0 12.7265892
2181 4 -10.6599999 9.731 16.5799999 0 0 0 3 8 4 0 0 0 12.7742682
2185 2 -18.7399998 -20.7900009 -7.3260002 0 0 0 0 10 2 0 0 0 12.4747858
2187 2 -4.8049999 11.1499996 18.2000008 0 0 0 0 12 0 0 0 0 10.7698803
2197 2 19.6700001 17.4899998 5.9829998 0 0 0 2 8 1 0 0 0 11.9557372
2207 5 11.7799998 -7.9710002 -8.1940003 0 0 0 5 5 3 1 0 0 13.0713224
2212 4 -12.8299999 -3.3580001 -17.0 0 0 0 2 8 4 0 0 0 11.91562
2222 2 1.03 -22.0499992 3.1919999 0 0 0 2 8 1 2 0 0 12.2302446
2241 4 3.234 -4.053 0.9676 0 0 0 1 10 4 0 0 0 12.8290062
2274 1 -9.764 -17.7900009 0.7939 0 0 0 0 12 0 0 0 0 11.2053442
2290 4 -6.869 -18.3899994 12.8500004 0 0 0 3 6 6 0 0 0 12.0252438
2295 1 5.2350001 -0.2469 17.8299999 0 0 2 0 9 2 1 0 0 12.887064
2306 4 22.0499992 9.1459999 4.7649999 0 0 0 1 10 2 0 0 0 12.3163452
2309 5 -7.573 -20.7199993 -6.6409998 0 0 0 2 8 4 0 0 0 12.8765012
2315 4 14.8000002 0.7789001 -21.3799992 0 0 0 1 10 2 0 0 0 11.919404
2324 1 10.6800003 -9.092 10.2299996 0 0 1 4 3 5 0 0 0 12.2336445
2334 5 -1.614 10.3699999 15.1899996 0 0 0 2 10 2 0 0 0 12.1498098
2341 4 20.4699993 9.125 -9.9090004 0 0 0 2 8 4 0 0 0 12.2976637
2342 3 -0.06273 8.3719998 -16.2000008 0 0 1 1 9 4 0 0 0 12.762516
2356 3 17.5400009 -1.5420001 -9.8979998 0 0 2 4 4 5 0 0 0 12.8362017
2376 5 23.4500008 10.9300004 -18.5900002 0 0 0 3 6 5 0 0 0 12.5619173
2377 4 2.5290001 -18.6599999 21.2900009 0 0 0 0 12 0 0 0 0 10.7871437
2388 4 -5.9910002 8.7600003 -1.696 0 0 0 4 5 5 1 0 0 13.241642
2389 2 -18.3299999 -15.0100002 -17.9899998 0 0 0 0 12 0 0 0 0 11.2159338
2400 2 -14.8400002 0.6635 20.9200002 0 0 0 3 6 4 0 0 0 12.2077961
2411 4 14.29 -17.6299992 -2.56 0 0 0 3 8 2 0 0 0 11.9742584
2414 1 0.767 9.5039997 15.6499996 0 0 1 5 3 3 2 0 0 12.1641865
2428 4 -6.8920002 14.8800002 13.96 0 0 1 3 8 2 1 0 0 12.3007155
2437 2 -12.6199999 11.2299996 20.5599995 0 0 0 2 8 2 0 0 0 11.3666687
2438 1 7.927 -9.0129995 -1.362 0 0 0 0 12 0 0 0 0 10.9150392
2440 4 8.8500004 -11.3900004 -1.136 0 0 0 2 8 4 0 0 0 12.4959688
2465 5 -4.4029999 -9.2080002 6.7140003 0 0 0 1 10 3 0 0 0 11.5869465
2476 1 8.5290003 -21.0599995 19.3400002 0 0 0 2 8 2 0 0 0 11.0423422
2480 4 12.4099999 12.3400002 -20.3099995 0 0 0 3 7 5 1 0 0 13.3538542
2502 4 -8.0080004 -8.823 -3.0840001 0 0 0 2 8 2 0 0 0 11.625082
2504 2 -10.9099998 -7.3590002 -14.8900004 0 0 1 0 11 1 0 0 0 11.5190411
2509 4 -10.0900002 19.5100003 -20.5 0 0 0 2 10 3 0 0 0 13.0839033
2510 4 21.8899994 -0.04723 6.645 0 0 0 1 10 3 0 0 0 11.7998648
2511 5 -7.1589999 7.434 -3.8269999 0 0 0 2 8 5 0 0 0 12.4630146
2519 4 5.5949998 -7.606 17.1800003 0 0 0 1 10 2 0 0 0 12.025651
2520 4 0.2643 -17.4200001 -6.026 0 0 0 4 4 6 0 0 0 12.1799622
2521 2 4.6440001 6.6560002 13.4600001 0 0 0 1 10 2 0 0 0 11.5371876
2526 2 -6.3829999 17.8700008 18.3099995 0 0 0 3 6 5 0 0 0 12.2680798
2534 5 -7.744 9.877 -17.8999996 0 0 0 3 6 4 0 0 0 11.9008962
2535 5 -7.5089998 -3.5109999 3.8369999 0 0 0 1 9 3 1 0 0 13.6446896
2577 3 -2.6930001 -1.2460001 10.5299998 0 0 0 0 12 3 0 0 0 12.9890652
2582 2 2.3580001 15.9899998 -11.8999996 0 0 0 2 8 4 0 0 0 12.2066536
2587 4 23.2199993 16.6800003 9.2980003 0 0 0 1 10 4 0 0 0 13.1789732
2588 2 21.3099995 13.4700003 -10.1499996 0 0 1 2 6 3 1 0 0 11.4971295
2590 4 -7.2059999 12.8400002 11.8500004 0 0 0 2 8 5 0 0 0 12.688385
2594 2 3.1440001 4.882 -17.3099995 0 0 0 2 8 3 0 0 0 11.7801676
2600 1 12.1300001 19.3299999 10.2399998 0 0 0 3 6 4 0 0 0 11.1637383
2608 5 1.148 -8.962 9.7019997 0 0 1 3 5 4 0 0 0 12.2662602
2613 5 -12.9200002 -9.8529998 20.8299999 0 0 0 0 12 3 0 0 0 12.7933922
2615 2 4.8060003 -19.6499996 6.6440001 0 0 1 2 7 3 0 0 0 10.5952912
2648 2 0.7485 -3.8710002 -14.3900004 0 0 0 3 6 4 0 0 0 11.7955771
2651 4 10.8100004 -19.7099991 9.9090004 0 0 0 0 12 2 0 0 0 12.1761952
2659 4 15.5100003 -2.6170001 -8.7709999 0 0 0 1 10 3 0 0 0 12.1587372
2672 2 -11.75 -12.6300001 11.54 0 0 0 1 12 1 0 0 0 12.8319836
2677 4 21.3099995 19.3400002 6.1240001 0 0 0 1 10 2 0 0 0 12.2255821
2680 4 14.8100004 -6.3010001 18.4599991 0 0 0 4 4 6 0 0 0 12.7579346
2706 4 13.3999996 4.876 -12.7100001 0 0 0 1 10 3 0 0 0 12.6793061
2715 4 4.1939998 -3.882 18.0699997 0 0 1 2 7 3 2 0 0 12.3355971
2719 4 -0.1409 -6.9200002 -11.3500004 0 0 2 1 7 2 1 1 0 13.0131903
2723 4 21.3600006 10.3900004 2.813 0 0 0 0 12 4 0 0 0 13.4270745
2741 5 12.79 13.9799996 1.364 0 0 0 2 8 2 0 0 0 11.287755
2771 5 5.138 -16.7800007 10.0500002 0 0 0 1 10 2 0 0 0 12.294549
2773 2 7.099 -17.1700001 -15.4600001 0 0 0 0 10 2 0 0 0 11.765604
2784 5 -4.923 -18.5499993 1.926 0 0 0 1 10 2 0 0 0 11.5073443
2803 5 -10.7600003 -12.9700004 -7.9460002 0 0 0 2 8 4 0 0 0 12.1106644
2805 4 13.8999996 12.0500002 -2.6570001 0 0 0 2 8 5 0 0 0 13.0849457
2813 4 -9.2449999 -4.6300001 -10.6300001 0 0 0 2 8 4 0 0 0 12.2586413
2823 4 -1.622 -19.5499993 20.3799992 0 0 0 0 12 2 0 0 0 12.7925263
2840 2 -4.8590002 20.7999993 3.85 0 0 0 2 8 2 0 0 0 11.2290621
2848 4 -5.1599999 -6.2259998 6.8210001 0 0 0 4 6 4 0 0 0 12.7487021
2850 4 -4.1760001 5.7820001 11.2100001 0 0 0 0 12 0 0 0 0 11.8147726
2860 1 2.408 0.453 -18.75 0 0 0 3 5 5 1 0 0 11.6605273
2862 3 16.0599995 -20.2800007 -10.5500002 0 0 1 1 9 2 2 0 0 12.5360623
2864 4 -3.6300001 19.4799996 20.7600003 0 0 0 3 6 4 0 0 0 12.2896195
2871 5 -8.8830004 16.0400009 -12.75 0 0 0 1 10 3 0 0 0 12.7549305
2878 2 -0.07852 -5.2350001 8.8149996 0 0 0 0 12 0 0 0 0 11.2102852
2900 4 2.2000001 6.3829999 -21.3600006 0 0 0 2 8 3 0 0 0 12.0123739
2911 4 2.451 20.7000008 -12.3900004 0 0 0 0 12 2 0 0 0 12.0627146
2921 5 18.7800007 -13.96 3.935 0 0 0 1 10 3 0 0 0 13.2886887
2929 4 -15.6499996 -11.4099999 -13.0600004 0 0 1 1 7 5 0 0 0 12.0140419
2942 4 -6.2800002 -16.3099995 14.2399998 0 0 0 1 10 4 0 0 0 12.9371282
2945 4 26.1700001 16.3799992 15.9799996 0 0 0 3 8 4 0 0 0 12.8972254
2961 4 -0.1418 -9.0950003 -10.1899996 0 0 1 1 8 4 1 0 0 12.2353592
2994 4 -6.2610002 -7.626 -1.722 0 0 0 2 10 2 0 0 0 11.9239598
2995 2 6.4899998 -0.9339 15.4200001 0 0 0 0 12 1 1 0 0 12.7356129
3019 4 19.8199997 17.1200008 -8.901 0 0 0 1 10 5 0 0 0 13.7330904
3020 5 15.9200002 6.8060003 -19.3400002 0 0 0 4 6 4 0 0 0 12.4727078
3021 5 -5.1939998 -8.092 0.4579 0 0 0 0 11 1 0 0 0 11.7198944
3024 5 -2.717 10.0600004 -21.5100003 0 0 0 4 8 0 0 0 0 11.5590344
3048 4 3.5350001 12.5799999 14.5299998 0 0 0 0 12 3 0 0 0 13.9239818
3056 4 10.4099999 -14.4099999 -7.5390001 0 0 2 3 3 6 1 0 0 13.0762672
3064 2 14.7399998 -13.8800002 -19.9699994 0 0 0 3 6 5 0 0 0 12.0657549
3070 4 13.5699997 5.711 14.4700003 0 0 1 2 8 2 1 0 0 11.8769866
3072 4 -14.1000004 -3.27 -19.0900002 0 0 0 0 12 0 0 0 0 11.4022255
3083 4 -14.1499996 -10.4700003 -7.2969999 0 0 0 2 8 5 0 0 0 12.2373524
3101 5 20.0599995 1.773 -6.2550001 0 0 0 3 6 4 0 0 0 12.0136318
3110 2 6.704 18.0100002 1.607 0 0 0 3 6 4 0 0 0 11.6811228
3119 5 13.9200002 12.0 14.0 0 0 0 0 12 2 0 0 0 12.5435066
3126 2 -15.1000004 -1.0039999 17.7600003 0 0 0 2 8 1 0 0 0 11.16253
3129 2 2.6930001 17.0 -7.4419999 0 0 0 0 12 0 0 0 0 11.4619732
3137 2 3.1110001 -1.749 -19.3400002 0 0 2 1 7 2 1 0 0 11.4369593
3142 2 -8.7790003 14.3999996 -16.6399994 0 0 0 0 12 0 0 0 0 11.213481
3145 2 -5.7490001 -20.3099995 -9.0430002 0 0 0 2 10 1 0 0 0 11.5852928
3160 2 20.4099999 -13.6700001 13.6000004 0 0 0 0 12 0 0 0 0 11.8776074
3164 2 15.79 -15.2600002 0.3495 0 0 0 0 12 0 0 0 0 11.3485489
3169 5 -1.85 18.5499993 7.2340002 0 0 0 0 12 3 0 0 0 12.8545362
3174 4 -4.8649998 -2.6199999 18.2299996 0 0 0 1 12 1 0 0 0 11.5203419
3190 2 0.9896 15.6099997 9.0299997 0 0 0 5 3 6 1 0 0 11.909401
3193 2 16.6200009 2.8150001 8.8079996 0 0 0 2 8 2 0 0 0 11.537488
3219 4 -4.2249999 9.3940001 19.5499993 0 0 0 2 8 4 0 0 0 12.237627
3223 4 16.7999993 -15.1999998 -20.8500004 0 0 0 4 6 4 0 0 0 12.886694
3231 5 13.0600004 19.7399998 3.299 0 0 0 1 10 4 0 0 0 12.7124491
3238 5 1.045 -19.7099991 19.3400002 0 0 0 1 10 4 0 0 0 12.8120022
3242 2 -3.3840001 2.296 13.1099997 0 0 0 3 6 4 0 0 0 11.8074551
3253 5 8.2510004 5.7589998 10.7200003 0 0 0 2 8 5 0 0 0 12.8684112
3257 4 0.0753 -14.8299999 -21.25 0 0 0 0 12 0 0 0 0 11.0819807
3274 2 -1.204 17.6900006 17.1000004 0 0 0 1 10 3 0 0 0 11.6748467
3278 4 15.04 -7.5879998 -18.6200009 0 0 1 2 7 1 2 0 0 11.5715695
3282 5 6.6129999 16.3700009 20.6000004 0 0 0 2 12 1 0 0 0 12.9951582
3298 5 -5.776 2.0309999 9.0290003 0 0 2 1 10 1 2 0 0 13.2053022
3303 5 -7.6490002 -6.1030002 15.4700003 0 0 1 2 7 3 0 0 0 11.7823944
3313 2 -3.017 -7.086 6.1199999 0 0 0 2 8 2 0 0 0 11.4703293
3317 5 13.9799996 5.059 1.169 0 0 0 0 12 0 0 0 0 11.003171
3323 5 12.7600003 15.25 -16.2600002 0 0 0 1 10 3 0 0 0 12.2335653
3338 5 -0.05903 -3.708 -19.2900009 0 0 1 0 9 3 0 0 0 11.5141049
3351 1 -9.0979996 18.8299999 10.6099997 0 0 0 0 12 0 0 0 0 11.2769604
3361 5 -11.2200003 9.231 12.6499996 0 0 1 2 7 2 2 0 0 11.5167113
3366 1 6.3810001 20.7000008 -19.9400006 0 0 1 1 9 3 0 0 0 12.091816
3370 4 8.5839997 1.5700001 6.2719998 0 0 1 4 5 4 0 0 0 12.3578396
3383 4 -12.3400002 2.224 7.2620001 0 0 0 1 10 2 0 0 0 11.885006
3386 2 -15.1300001 -1.995 8.8310004 0 0 0 0 12 0 0 0 0 11.1188126
3387 5 -5.592 -5.612 -17.2800007 0 0 0 2 8 2 0 0 0 11.579176
3390 4 13.9799996 16.0699997 15.5600004 0 0 1 3 5 5 0 0 0 11.8540212
3403 5 -15.0100002 2.708 -18.2999992 0 0 0 3 6 4 0 0 0 11.4687081
3432 4 4.8530002 1.038 -18.0799999 0 0 1 1 8 3 1 0 0 12.7960701
3434 2 -9.9910002 0.7444 0.3685 0 0 0 2 8 2 0 0 0 10.7673455
3439 5 10.3100004 -9.3039999 -0.6914 0 0 0 2 8 4 0 0 0 12.5681944
3449 4 1.6360001 9.7489996 20.2900009 0 0 0 3 6 6 0 0 0 12.7695475
3451 1 0.07312 -13.4300003 -6.816 0 0 1 1 8 3 1 0 0 12.2918129
3454 2 -8.0489998 18.4099999 -21.2999992 0 0 0 1 10 2 0 0 0 11.7607842