ITEM: TIMESTEP
0
ITEM: NUMBER OF ATOMS
16384
ITEM: BOX BOUNDS pp pp pp
0.0000000000000000e+00 2.5373418389727799e+01
0.0000000000000000e+00 2.5373418389727799e+01
0.0000000000000000e+00 2.5373418389727799e+01
ITEM: ATOMS id type x y z
1 4 0 0 0
2 4 0.799213 0.799213 0
3 4 2.39764 0.799213 0
4 4 2.39764 0 0.799213
5 4 1.59843 0.799213 0.799213
7 4 3.19685 0.799213 0.799213
32 4 0.799213 1.59843 0.799213
33 4 0 2.39764 0.799213
34 4 2.39764 1.59843 0.799213
35 4 1.59843 2.39764 0.799213
36 4 3.19685 1.59843 0
39 4 3.19685 2.39764 0.799213
73 4 0.799213 3.19685 0.799213
74 4 2.39764 3.19685 0.799213
522 4 2.39764 0 2.39764
523 4 1.59843 0.799213 2.39764
553 4 0.799213 2.39764 1.59843
554 4 0 2.39764 2.39764
555 4 2.39764 2.39764 1.59843
556 4 2.39764 1.59843 2.39764
557 4 1.59843 2.39764 2.39764
558 4 3.19685 1.59843 1.59843
560 4 3.19685 2.39764 2.39764
587 4 0 3.19685 1.59843
589 4 0.799213 3.19685 2.39764
1037 4 2.39764 0.799213 3.19685
1075 4 1.59843 1.59843 3.19685
1105 4 1.59843 3.19685 3.19685
8193 2 0 0 0
8194 2 0.799213 0.799213 0
8195 2 0.799213 0 0.799213
8196 2 0 0.799213 0.799213
8197 2 2.39764 0 0.799213
8198 2 3.19685 0 0
8226 2 0 1.59843 0
8227 2 0.799213 2.39764 0
8228 2 2.39764 1.59843 0.799213
8229 2 3.19685 1.59843 0
8256 2 0.799213 3.19685 0.799213
8258 2 1.59843 3.19685 0
8260 2 3.19685 3.19685 0
8730 2 0.799213 0.799213 1.59843
8731 2 0 0.799213 2.39764
8732 2 2.39764 0.799213 1.59843
8733 2 2.39764 0 2.39764
8734 2 1.59843 0.799213 2.39764
8735 2 3.19685 0 1.59843
8737 2 3.19685 0.799213 2.39764
8760 2 1.59843 1.59843 1.59843
8761 2 2.39764 2.39764 1.59843
8790 2 0 3.19685 1.59843
8791 2 0.799213 3.19685 2.39764
8793 2 1.59843 3.19685 1.59843
9232 2 0 0 3.19685
9233 2 0.799213 0.799213 3.19685
9234 2 1.59843 0 3.19685
9236 2 3.19685 0 3.19685
9265 2 0.799213 2.39764 3.19685
9267 2 1.59843 1.59843 3.19685
6 4 3.99606 0 0.799213
8 4 5.59449 0.799213 0
9 4 5.59449 0 0.799213
10 4 4.79528 0.799213 0.799213
11 4 6.3937 0 0
12 4 6.3937 0.799213 0.799213
37 4 3.99606 2.39764 0
38 4 3.99606 1.59843 0.799213
40 4 5.59449 2.39764 0
41 4 5.59449 1.59843 0.799213
42 4 4.79528 2.39764 0.799213
43 4 6.3937 1.59843 0
44 4 7.19291 2.39764 0
45 4 6.3937 2.39764 0.799213
76 4 4.79528 3.19685 0
77 4 5.59449 3.19685 0.799213
78 4 7.19291 3.19685 0.799213
524 4 3.99606 0 2.39764
525 4 5.59449 0.799213 1.59843
526 4 5.59449 0 2.39764
527 4 4.79528 0.799213 2.39764
528 4 6.3937 0 1.59843
529 4 7.19291 0 2.39764
559 4 3.99606 1.59843 2.39764
561 4 4.79528 1.59843 1.59843
562 4 5.59449 2.39764 1.59843
563 4 7.19291 2.39764 1.59843
564 4 7.19291 1.59843 2.39764
592 4 6.3937 3.19685 1.59843
593 4 7.19291 3.19685 2.39764
1040 4 3.99606 0.799213 3.19685
1042 4 4.79528 0 3.19685
1043 4 5.59449 0.799213 3.19685
1045 4 6.3937 0 3.19685
1046 4 7.19291 0.799213 3.19685
1077 4 3.99606 2.39764 3.19685
1080 4 4.79528 1.59843 3.19685
1081 4 5.59449 2.39764 3.19685
1110 4 6.3937 3.19685 3.19685
8199 2 3.99606 0.799213 0
8200 2 5.59449 0.799213 0
8201 2 7.19291 0 0.799213
8230 2 3.99606 2.39764 0
8231 2 6.3937 1.59843 0
8232 2 7.19291 1.59843 0.799213
8261 2 3.99606 3.19685 0.799213
8263 2 4.79528 3.19685 0
8265 2 6.3937 3.19685 0
8267 2 7.19291 3.19685 0.799213
8736 2 3.99606 0 2.39764
8738 2 5.59449 0 2.39764
8739 2 4.79528 0.799213 2.39764
8740 2 6.3937 0 1.59843
8741 2 6.3937 0.799213 2.39764
8762 2 3.99606 2.39764 1.59843
8763 2 3.99606 1.59843 2.39764
8764 2 4.79528 2.39764 2.39764
8765 2 7.19291 2.39764 1.59843
8766 2 7.19291 1.59843 2.39764
8767 2 6.3937 2.39764 2.39764
8796 2 3.99606 3.19685 2.39764
9237 2 3.99606 0.799213 3.19685
9239 2 5.59449 0.799213 3.19685
9240 2 6.3937 0 3.19685
9269 2 3.99606 2.39764 3.19685
9272 2 4.79528 1.59843 3.19685
9273 2 5.59449 2.39764 3.19685
9275 2 6.3937 1.59843 3.19685
9309 2 6.3937 3.19685 3.19685
13 4 9.59055 0 0
46 4 8.79134 1.59843 0.799213
47 4 7.99213 2.39764 0.799213
48 4 9.59055 1.59843 0
49 4 10.3898 2.39764 0
50 4 10.3898 1.59843 0.799213
51 4 9.59055 2.39764 0.799213
80 4 8.79134 3.19685 0.799213
81 4 9.59055 3.19685 0
82 4 10.3898 3.19685 0.799213
530 4 8.79134 0 2.39764
531 4 7.99213 0.799213 2.39764
532 4 10.3898 0.799213 1.59843
533 4 10.3898 0 2.39764
565 4 7.99213 1.59843 1.59843
566 4 8.79134 2.39764 1.59843
567 4 8.79134 1.59843 2.39764
568 4 9.59055 1.59843 1.59843
569 4 10.3898 2.39764 1.59843
570 4 10.3898 1.59843 2.39764
594 4 7.99213 3.19685 1.59843
596 4 9.59055 3.19685 1.59843
597 4 10.3898 3.19685 2.39764
1049 4 10.3898 0.799213 3.19685
1083 4 7.99213 1.59843 3.19685
1085 4 9.59055 1.59843 3.19685
1113 4 7.99213 3.19685 3.19685
8202 2 8.79134 0 0.799213
8203 2 7.99213 0.799213 0.799213
8204 2 9.59055 0 0
8205 2 10.3898 0.799213 0
8206 2 9.59055 0.799213 0.799213
8233 2 8.79134 2.39764 0
8234 2 10.3898 2.39764 0
8235 2 10.3898 1.59843 0.799213
8268 2 7.99213 3.19685 0
8270 2 8.79134 3.19685 0.799213
8742 2 7.99213 0.799213 2.39764
8743 2 9.59055 0 1.59843
8744 2 10.3898 0.799213 1.59843
8745 2 9.59055 0.799213 2.39764
8768 2 8.79134 2.39764 1.59843
8769 2 7.99213 2.39764 2.39764
8770 2 9.59055 1.59843 1.59843
8771 2 10.3898 2.39764 1.59843
8772 2 9.59055 2.39764 2.39764
8802 2 8.79134 3.19685 2.39764
9242 2 8.79134 0.799213 3.19685
9245 2 10.3898 0.799213 3.19685
9280 2 9.59055 1.59843 3.19685
9312 2 7.99213 3.19685 3.19685
9314 2 9.59055 3.19685 3.19685
14 4 11.189 0 0
15 4 11.9882 0 0.799213
16 4 11.189 0.799213 0.799213
17 4 12.7874 0 0
18 4 13.5866 0.799213 0
19 4 13.5866 0 0.799213
52 4 11.189 2.39764 0.799213
53 4 12.7874 1.59843 0
54 4 13.5866 2.39764 0
55 4 13.5866 1.59843 0.799213
56 4 12.7874 2.39764 0.799213
57 4 14.3858 1.59843 0
59 4 14.3858 2.39764 0.799213
84 4 13.5866 3.19685 0.799213
534 4 11.189 0 1.59843
535 4 11.189 0.799213 2.39764
536 4 12.7874 0 1.59843
537 4 13.5866 0.799213 1.59843
538 4 13.5866 0 2.39764
539 4 12.7874 0.799213 2.39764
571 4 12.7874 1.59843 1.59843
572 4 13.5866 2.39764 1.59843
573 4 13.5866 1.59843 2.39764
574 4 12.7874 2.39764 2.39764
575 4 14.3858 1.59843 1.59843
577 4 14.3858 2.39764 2.39764
598 4 11.189 3.19685 1.59843
600 4 11.9882 3.19685 2.39764
603 4 14.3858 3.19685 1.59843
1051 4 11.9882 0.799213 3.19685
1053 4 12.7874 0 3.19685
1054 4 13.5866 0.799213 3.19685
1087 4 11.189 1.59843 3.19685
1088 4 11.9882 2.39764 3.19685
1090 4 13.5866 2.39764 3.19685
1092 4 14.3858 1.59843 3.19685
1120 4 14.3858 3.19685 3.19685
8207 2 11.189 0 0
8208 2 11.9882 0 0.799213
8209 2 13.5866 0.799213 0
8212 2 14.3858 0.799213 0.799213
8236 2 11.189 1.59843 0
8237 2 11.189 2.39764 0.799213
8238 2 12.7874 1.59843 0
8239 2 13.5866 2.39764 0
8241 2 14.3858 2.39764 0.799213
8274 2 12.7874 3.19685 0
8277 2 14.3858 3.19685 0
8746 2 11.189 0 1.59843
8747 2 11.9882 0 2.39764
8748 2 12.7874 0 1.59843
8749 2 12.7874 0.799213 2.39764
8752 2 14.3858 0.799213 2.39764
8773 2 11.189 1.59843 1.59843
8774 2 11.9882 1.59843 2.39764
8775 2 11.189 2.39764 2.39764
8776 2 13.5866 2.39764 1.59843
8777 2 12.7874 2.39764 2.39764
8778 2 14.3858 1.59843 1.59843
8804 2 11.189 3.19685 1.59843
8806 2 13.5866 3.19685 2.39764
9249 2 12.7874 0 3.19685
9250 2 13.5866 0.799213 3.19685
9252 2 14.3858 0 3.19685
9283 2 11.9882 2.39764 3.19685
9285 2 12.7874 1.59843 3.19685
9286 2 13.5866 2.39764 3.19685
9317 2 11.189 3.19685 3.19685
9321 2 14.3858 3.19685 3.19685
20 4 15.185 0.799213 0
21 4 15.185 0 0.799213
22 4 16.7835 0.799213 0
23 4 17.5827 0 0
58 4 15.185 2.39764 0
60 4 16.7835 1.59843 0.799213
61 4 15.9843 2.39764 0.799213
87 4 16.7835 3.19685 0.799213
540 4 15.9843 0 1.59843
541 4 17.5827 0 1.59843
576 4 15.185 2.39764 1.59843
578 4 15.9843 2.39764 2.39764
581 4 17.5827 2.39764 2.39764
604 4 17.5827 3.19685 1.59843
1056 4 15.185 0.799213 3.19685
1061 4 17.5827 0 3.19685
1093 4 15.185 2.39764 3.19685
1095 4 17.5827 1.59843 3.19685
1125 4 17.5827 3.19685 3.19685
8210 2 15.185 0.799213 0
8211 2 15.185 0 0.799213
8213 2 15.9843 0 0
8214 2 16.7835 0 0.799213
8215 2 15.9843 0.799213 0.799213
8217 2 17.5827 0.799213 0.799213
8240 2 15.185 1.59843 0.799213
8242 2 16.7835 1.59843 0.799213
8243 2 17.5827 1.59843 0
8279 2 15.185 3.19685 0.799213
8281 2 15.9843 3.19685 0
8283 2 16.7835 3.19685 0.799213
8750 2 15.185 0.799213 1.59843
8751 2 15.185 0 2.39764
8753 2 15.9843 0.799213 2.39764
8779 2 16.7835 1.59843 2.39764
8780 2 15.9843 2.39764 2.39764
8782 2 17.5827 2.39764 2.39764
8810 2 16.7835 3.19685 2.39764
8812 2 17.5827 3.19685 1.59843
9253 2 15.185 0.799213 3.19685
9255 2 15.9843 0 3.19685
9289 2 15.9843 1.59843 3.19685
9290 2 16.7835 2.39764 3.19685
9291 2 17.5827 1.59843 3.19685
9325 2 15.9843 3.19685 3.19685
24 4 18.3819 0.799213 0
25 4 19.9803 0.799213 0
26 4 21.5787 0.799213 0
62 4 18.3819 1.59843 0.799213
63 4 19.1811 1.59843 0
64 4 19.9803 2.39764 0
65 4 19.9803 1.59843 0.799213
66 4 21.5787 2.39764 0
67 4 21.5787 1.59843 0.799213
89 4 18.3819 3.19685 0.799213
542 4 18.3819 0.799213 1.59843
543 4 19.9803 0.799213 1.59843
544 4 19.9803 0 2.39764
545 4 19.1811 0.799213 2.39764
546 4 20.7795 0 1.59843
547 4 21.5787 0.799213 1.59843
548 4 21.5787 0 2.39764
549 4 20.7795 0.799213 2.39764
579 4 18.3819 2.39764 1.59843
580 4 18.3819 1.59843 2.39764
582 4 19.9803 2.39764 1.59843
583 4 20.7795 1.59843 1.59843
584 4 21.5787 2.39764 1.59843
606 4 21.5787 3.19685 2.39764
1062 4 18.3819 0.799213 3.19685
1065 4 19.1811 0 3.19685
1067 4 20.7795 0 3.19685
1096 4 18.3819 2.39764 3.19685
1097 4 19.9803 2.39764 3.19685
1099 4 20.7795 1.59843 3.19685
1100 4 21.5787 2.39764 3.19685
1128 4 19.1811 3.19685 3.19685
8216 2 18.3819 0.799213 0
8218 2 19.1811 0 0
8219 2 19.9803 0.799213 0
8220 2 19.1811 0.799213 0.799213
8221 2 20.7795 0 0
8222 2 21.5787 0 0.799213
8223 2 20.7795 0.799213 0.799213
8244 2 18.3819 2.39764 0
8245 2 19.1811 1.59843 0
8246 2 19.9803 1.59843 0.799213
8247 2 20.7795 1.59843 0
8248 2 21.5787 2.39764 0
8249 2 21.5787 1.59843 0.799213
8250 2 20.7795 2.39764 0.799213
8285 2 19.1811 3.19685 0
8287 2 21.5787 3.19685 0.799213
8754 2 18.3819 0.799213 1.59843
8755 2 18.3819 0 2.39764
8756 2 19.1811 0.799213 2.39764
8757 2 20.7795 0 1.59843
8758 2 21.5787 0 2.39764
8781 2 18.3819 1.59843 2.39764
8783 2 19.1811 1.59843 1.59843
8784 2 19.9803 2.39764 1.59843
8785 2 19.1811 2.39764 2.39764
8786 2 20.7795 2.39764 2.39764
8814 2 18.3819 3.19685 2.39764
8816 2 19.1811 3.19685 1.59843
8818 2 19.9803 3.19685 2.39764
8820 2 21.5787 3.19685 2.39764
9258 2 19.9803 0.799213 3.19685
9293 2 20.7795 1.59843 3.19685
9332 2 20.7795 3.19685 3.19685
27 4 22.378 0 0
28 4 23.1772 0 0.799213
29 4 22.378 0.799213 0.799213
30 4 23.9764 0 0
31 4 24.7756 0.799213 0
68 4 22.378 1.59843 0
69 4 23.1772 2.39764 0
70 4 23.9764 1.59843 0
71 4 24.7756 2.39764 0
72 4 23.9764 2.39764 0.799213
94 4 22.378 3.19685 0
95 4 23.9764 3.19685 0
550 4 22.378 0.799213 2.39764
551 4 23.9764 0 1.59843
552 4 23.9764 0.799213 2.39764
585 4 23.1772 1.59843 2.39764
586 4 24.7756 2.39764 1.59843
609 4 23.9764 3.19685 1.59843
1069 4 23.1772 0.799213 3.19685
1070 4 23.9764 0 3.19685
1071 4 24.7756 0.799213 3.19685
1102 4 23.1772 2.39764 3.19685
1103 4 24.7756 2.39764 3.19685
1133 4 22.378 3.19685 3.19685
8224 2 23.1772 0 0.799213
8225 2 23.9764 0 0
8251 2 22.378 1.59843 0
8252 2 23.9764 1.59843 0
8253 2 24.7756 2.39764 0
8254 2 24.7756 1.59843 0.799213
8255 2 23.9764 2.39764 0.799213
8289 2 22.378 3.19685 0
8292 2 23.9764 3.19685 0
8759 2 24.7756 0.799213 1.59843
8787 2 22.378 1.59843 1.59843
8788 2 23.1772 1.59843 2.39764
8789 2 24.7756 2.39764 1.59843
8823 2 24.7756 3.19685 2.39764
9261 2 22.378 0 3.19685
9262 2 23.1772 0.799213 3.19685
9264 2 24.7756 0.799213 3.19685
9294 2 22.378 1.59843 3.19685
9295 2 23.1772 2.39764 3.19685
9298 2 23.9764 1.59843 3.19685
9299 2 24.7756 2.39764 3.19685
9335 2 23.9764 3.19685 3.19685
75 4 1.59843 3.99606 0.799213
98 4 0.799213 5.59449 0
99 4 0.799213 4.79528 0.799213
100 4 0 5.59449 0.799213
101 4 1.59843 4.79528 0
102 4 2.39764 5.59449 0
103 4 2.39764 4.79528 0.799213
104 4 3.19685 4.79528 0
132 4 0.799213 7.19291 0
133 4 2.39764 7.19291 0
588 4 0.799213 3.99606 1.59843
590 4 2.39764 3.99606 1.59843
591 4 1.59843 3.99606 2.39764
611 4 0 5.59449 2.39764
612 4 2.39764 5.59449 1.59843
613 4 3.19685 4.79528 1.59843
615 4 3.19685 5.59449 2.39764
640 4 0.799213 7.19291 1.59843
641 4 0.799213 6.3937 2.39764
642 4 0 7.19291 2.39764
643 4 2.39764 6.3937 2.39764
1106 4 2.39764 3.99606 3.19685
1138 4 1.59843 4.79528 3.19685
1140 4 3.19685 4.79528 3.19685
1169 4 1.59843 6.3937 3.19685
1170 4 2.39764 7.19291 3.19685
1171 4 3.19685 6.3937 3.19685
8257 2 0 3.99606 0.799213
8259 2 2.39764 3.99606 0
8262 2 3.19685 3.99606 0.799213
8295 2 0 4.79528 0
8296 2 1.59843 4.79528 0
8297 2 2.39764 5.59449 0
8298 2 2.39764 4.79528 0.799213
8299 2 3.19685 4.79528 0
8326 2 0.799213 7.19291 0
8327 2 0.799213 6.3937 0.799213
8328 2 0 7.19291 0.799213
8329 2 1.59843 6.3937 0
8330 2 2.39764 7.19291 0
8331 2 2.39764 6.3937 0.799213
8332 2 1.59843 7.19291 0.799213
8333 2 3.19685 6.3937 0
8335 2 3.19685 7.19291 0.799213
8792 2 0 3.99606 2.39764
8794 2 2.39764 3.99606 1.59843
8795 2 1.59843 3.99606 2.39764
8797 2 3.19685 3.99606 2.39764
8824 2 0 4.79528 1.59843
8825 2 0.799213 5.59449 1.59843
8826 2 1.59843 4.79528 1.59843
8827 2 3.19685 4.79528 1.59843
8852 2 0 6.3937 1.59843
8853 2 0.799213 7.19291 1.59843
8854 2 0.799213 6.3937 2.39764
8855 2 0 7.19291 2.39764
8856 2 1.59843 6.3937 1.59843
8857 2 2.39764 7.19291 1.59843
8858 2 2.39764 6.3937 2.39764
8859 2 1.59843 7.19291 2.39764
8861 2 3.19685 7.19291 2.39764
9302 2 0.799213 3.99606 3.19685
9339 2 0 4.79528 3.19685
9340 2 0.799213 5.59449 3.19685
9342 2 1.59843 4.79528 3.19685
9343 2 3.19685 4.79528 3.19685
9377 2 0 6.3937 3.19685
9378 2 1.59843 6.3937 3.19685
9379 2 2.39764 7.19291 3.19685
9382 2 3.19685 6.3937 3.19685
105 4 3.99606 4.79528 0.799213
106 4 5.59449 5.59449 0
107 4 5.59449 4.79528 0.799213
134 4 3.99606 6.3937 0.799213
135 4 4.79528 7.19291 0.799213
136 4 6.3937 7.19291 0.799213
614 4 3.99606 5.59449 1.59843
616 4 5.59449 5.59449 1.59843
617 4 4.79528 5.59449 2.39764
644 4 5.59449 6.3937 2.39764
645 4 4.79528 7.19291 2.39764
646 4 7.19291 6.3937 2.39764
647 4 6.3937 7.19291 2.39764
1111 4 7.19291 3.99606 3.19685
1141 4 3.99606 5.59449 3.19685
1142 4 4.79528 4.79528 3.19685
1144 4 6.3937 4.79528 3.19685
1145 4 7.19291 5.59449 3.19685
1172 4 3.99606 7.19291 3.19685
1175 4 4.79528 6.3937 3.19685
1178 4 6.3937 6.3937 3.19685
1179 4 7.19291 7.19291 3.19685
8264 2 4.79528 3.99606 0.799213
8266 2 7.19291 3.99606 0
8300 2 3.99606 5.59449 0
8301 2 4.79528 4.79528 0
8302 2 5.59449 5.59449 0
8303 2 4.79528 5.59449 0.799213
8304 2 7.19291 5.59449 0
8305 2 7.19291 4.79528 0.799213
8334 2 3.99606 7.19291 0
8336 2 5.59449 7.19291 0
8337 2 7.19291 7.19291 0
8338 2 7.19291 6.3937 0.799213
8339 2 6.3937 7.19291 0.799213
8798 2 5.59449 3.99606 1.59843
8799 2 4.79528 3.99606 2.39764
8800 2 6.3937 3.99606 2.39764
8828 2 3.99606 5.59449 1.59843
8829 2 5.59449 5.59449 1.59843
8830 2 4.79528 5.59449 2.39764
8831 2 6.3937 4.79528 1.59843
8832 2 6.3937 5.59449 2.39764
8860 2 3.99606 7.19291 1.59843
8862 2 4.79528 7.19291 2.39764
8863 2 7.19291 7.19291 1.59843
9306 2 5.59449 3.99606 3.19685
9310 2 7.19291 3.99606 3.19685
9344 2 3.99606 5.59449 3.19685
9347 2 4.79528 4.79528 3.19685
9348 2 5.59449 5.59449 3.19685
9383 2 3.99606 7.19291 3.19685
9386 2 4.79528 6.3937 3.19685
79 4 8.79134 3.99606 0
108 4 7.99213 4.79528 0
109 4 8.79134 5.59449 0
110 4 8.79134 4.79528 0.799213
111 4 9.59055 4.79528 0
112 4 10.3898 4.79528 0.799213
113 4 9.59055 5.59449 0.799213
137 4 7.99213 6.3937 0
138 4 8.79134 7.19291 0
139 4 9.59055 6.3937 0
140 4 10.3898 7.19291 0
595 4 8.79134 3.99606 1.59843
618 4 7.99213 4.79528 1.59843
619 4 8.79134 4.79528 2.39764
620 4 10.3898 5.59449 1.59843
648 4 8.79134 6.3937 2.39764
649 4 7.99213 7.19291 2.39764
650 4 10.3898 6.3937 2.39764
651 4 9.59055 7.19291 2.39764
1115 4 10.3898 3.99606 3.19685
1146 4 7.99213 4.79528 3.19685
1148 4 9.59055 4.79528 3.19685
1183 4 10.3898 7.19291 3.19685
8269 2 8.79134 3.99606 0
8271 2 10.3898 3.99606 0
8272 2 9.59055 3.99606 0.799213
8306 2 8.79134 5.59449 0
8307 2 10.3898 5.59449 0
8308 2 9.59055 5.59449 0.799213
8340 2 7.99213 6.3937 0
8341 2 8.79134 6.3937 0.799213
8342 2 7.99213 7.19291 0.799213
8343 2 10.3898 7.19291 0
8344 2 10.3898 6.3937 0.799213
8345 2 9.59055 7.19291 0.799213
8801 2 8.79134 3.99606 1.59843
8803 2 9.59055 3.99606 2.39764
8833 2 10.3898 5.59449 1.59843
8864 2 7.99213 6.3937 1.59843
8865 2 8.79134 6.3937 2.39764
8866 2 9.59055 6.3937 1.59843
8867 2 10.3898 7.19291 1.59843
9313 2 8.79134 3.99606 3.19685
9353 2 9.59055 4.79528 3.19685
9354 2 10.3898 5.59449 3.19685
9389 2 8.79134 7.19291 3.19685
9391 2 9.59055 6.3937 3.19685
9392 2 10.3898 7.19291 3.19685
83 4 11.189 3.99606 0.799213
86 4 14.3858 3.99606 0.799213
114 4 11.189 4.79528 0
115 4 11.9882 5.59449 0
116 4 11.9882 4.79528 0.799213
117 4 11.189 5.59449 0.799213
118 4 12.7874 5.59449 0.799213
119 4 14.3858 4.79528 0
122 4 14.3858 5.59449 0.799213
141 4 11.9882 7.19291 0
142 4 11.189 7.19291 0.799213
143 4 13.5866 6.3937 0.799213
144 4 12.7874 7.19291 0.799213
147 4 14.3858 7.19291 0.799213
599 4 11.9882 3.99606 1.59843
601 4 13.5866 3.99606 1.59843
602 4 12.7874 3.99606 2.39764
621 4 11.9882 5.59449 1.59843
622 4 11.189 5.59449 2.39764
623 4 12.7874 4.79528 1.59843
624 4 13.5866 5.59449 1.59843
625 4 12.7874 5.59449 2.39764
626 4 14.3858 4.79528 1.59843
652 4 11.9882 7.19291 1.59843
653 4 11.189 7.19291 2.39764
654 4 12.7874 6.3937 1.59843
655 4 13.5866 7.19291 1.59843
656 4 13.5866 6.3937 2.39764
657 4 14.3858 6.3937 1.59843
1149 4 11.189 4.79528 3.19685
1152 4 13.5866 5.59449 3.19685
1186 4 11.9882 7.19291 3.19685
1188 4 12.7874 6.3937 3.19685
1189 4 13.5866 7.19291 3.19685
1191 4 14.3858 6.3937 3.19685
8273 2 11.189 3.99606 0.799213
8275 2 13.5866 3.99606 0
8276 2 12.7874 3.99606 0.799213
8280 2 14.3858 3.99606 0.799213
8309 2 11.189 4.79528 0
8310 2 11.9882 4.79528 0.799213
8311 2 11.189 5.59449 0.799213
8312 2 12.7874 4.79528 0
8313 2 13.5866 5.59449 0
8314 2 14.3858 4.79528 0
8346 2 11.189 7.19291 0.799213
8347 2 13.5866 7.19291 0
8348 2 12.7874 7.19291 0.799213
8350 2 14.3858 7.19291 0.799213
8805 2 13.5866 3.99606 1.59843
8807 2 12.7874 3.99606 2.39764
8808 2 14.3858 3.99606 2.39764
8834 2 11.9882 5.59449 1.59843
8835 2 12.7874 4.79528 1.59843
8836 2 13.5866 5.59449 1.59843
8837 2 12.7874 5.59449 2.39764
8868 2 11.189 6.3937 1.59843
8869 2 11.9882 7.19291 1.59843
8870 2 13.5866 7.19291 1.59843
8873 2 14.3858 7.19291 2.39764
9318 2 11.9882 3.99606 3.19685
9319 2 13.5866 3.99606 3.19685
9356 2 11.189 4.79528 3.19685
9357 2 11.9882 5.59449 3.19685
9360 2 14.3858 4.79528 3.19685
9393 2 11.189 6.3937 3.19685
9395 2 12.7874 6.3937 3.19685
85 4 15.185 3.99606 0
88 4 15.9843 3.99606 0.799213
90 4 17.5827 3.99606 0.799213
120 4 15.185 5.59449 0
121 4 15.185 4.79528 0.799213
123 4 15.9843 4.79528 0
124 4 16.7835 4.79528 0.799213
145 4 15.185 7.19291 0
146 4 15.185 6.3937 0.799213
148 4 15.9843 6.3937 0
149 4 16.7835 7.19291 0
150 4 15.9843 7.19291 0.799213
627 4 15.185 4.79528 2.39764
628 4 15.9843 4.79528 1.59843
629 4 16.7835 5.59449 1.59843
630 4 15.9843 5.59449 2.39764
632 4 17.5827 5.59449 2.39764
658 4 15.185 7.19291 1.59843
659 4 16.7835 7.19291 1.59843
660 4 17.5827 6.3937 1.59843
1192 4 15.185 7.19291 3.19685
1194 4 15.9843 6.3937 3.19685
1195 4 16.7835 7.19291 3.19685
8278 2 15.185 3.99606 0
8282 2 16.7835 3.99606 0
8315 2 15.185 4.79528 0.799213
8316 2 15.9843 4.79528 0
8317 2 17.5827 4.79528 0
8318 2 17.5827 5.59449 0.799213
8349 2 15.185 6.3937 0.799213
8351 2 16.7835 7.19291 0
8352 2 15.9843 7.19291 0.799213
8353 2 17.5827 6.3937 0
8355 2 17.5827 7.19291 0.799213
8809 2 16.7835 3.99606 1.59843
8811 2 15.9843 3.99606 2.39764
8815 2 17.5827 3.99606 2.39764
8838 2 15.185 5.59449 1.59843
8839 2 15.9843 4.79528 1.59843
8840 2 16.7835 5.59449 1.59843
8841 2 16.7835 4.79528 2.39764
8842 2 15.9843 5.59449 2.39764
8844 2 17.5827 5.59449 2.39764
8871 2 15.185 7.19291 1.59843
8872 2 15.185 6.3937 2.39764
8874 2 16.7835 7.19291 1.59843
8875 2 16.7835 6.3937 2.39764
8876 2 15.9843 7.19291 2.39764
9322 2 15.185 3.99606 3.19685
9326 2 16.7835 3.99606 3.19685
9361 2 15.185 5.59449 3.19685
9364 2 15.9843 4.79528 3.19685
9365 2 16.7835 5.59449 3.19685
9367 2 17.5827 4.79528 3.19685
9396 2 15.185 7.19291 3.19685
9398 2 16.7835 7.19291 3.19685
9401 2 17.5827 6.3937 3.19685
91 4 19.9803 3.99606 0
92 4 19.1811 3.99606 0.799213
93 4 20.7795 3.99606 0.799213
125 4 19.9803 5.59449 0
126 4 19.9803 4.79528 0.799213
127 4 19.1811 5.59449 0.799213
128 4 20.7795 4.79528 0
129 4 21.5787 4.79528 0.799213
151 4 18.3819 7.19291 0
152 4 19.1811 6.3937 0
153 4 19.9803 7.19291 0
154 4 19.1811 7.19291 0.799213
155 4 20.7795 6.3937 0
156 4 21.5787 6.3937 0.799213
157 4 20.7795 7.19291 0.799213
605 4 19.1811 3.99606 2.39764
607 4 20.7795 3.99606 2.39764
631 4 18.3819 4.79528 2.39764
633 4 19.1811 4.79528 1.59843
634 4 20.7795 5.59449 2.39764
661 4 18.3819 7.19291 1.59843
662 4 19.1811 6.3937 1.59843
663 4 19.9803 7.19291 1.59843
664 4 20.7795 6.3937 1.59843
665 4 21.5787 6.3937 2.39764
666 4 20.7795 7.19291 2.39764
1126 4 18.3819 3.99606 3.19685
1130 4 21.5787 3.99606 3.19685
1156 4 18.3819 5.59449 3.19685
1158 4 19.1811 4.79528 3.19685
1160 4 21.5787 5.59449 3.19685
1198 4 18.3819 7.19291 3.19685
1199 4 20.7795 6.3937 3.19685
8284 2 18.3819 3.99606 0
8286 2 21.5787 3.99606 0
8288 2 20.7795 3.99606 0.799213
8319 2 21.5787 4.79528 0.799213
8320 2 20.7795 5.59449 0.799213
8354 2 18.3819 6.3937 0.799213
8356 2 19.1811 6.3937 0
8357 2 19.9803 6.3937 0.799213
8358 2 19.1811 7.19291 0.799213
8359 2 21.5787 6.3937 0.799213
8360 2 20.7795 7.19291 0.799213
8813 2 18.3819 3.99606 1.59843
8817 2 19.9803 3.99606 1.59843
8819 2 19.1811 3.99606 2.39764
8843 2 18.3819 5.59449 1.59843
8845 2 19.1811 5.59449 2.39764
8846 2 20.7795 5.59449 2.39764
8877 2 19.9803 6.3937 2.39764
8878 2 20.7795 6.3937 1.59843
9329 2 19.9803 3.99606 3.19685
9369 2 19.1811 4.79528 3.19685
9370 2 21.5787 5.59449 3.19685
9403 2 20.7795 6.3937 3.19685
96 4 24.7756 3.99606 0
97 4 23.9764 3.99606 0.799213
130 4 22.378 4.79528 0
131 4 24.7756 5.59449 0
158 4 22.378 6.3937 0
159 4 23.9764 7.19291 0.799213
608 4 22.378 3.99606 2.39764
610 4 24.7756 3.99606 1.59843
635 4 23.1772 5.59449 1.59843
636 4 22.378 5.59449 2.39764
637 4 23.9764 4.79528 1.59843
638 4 24.7756 4.79528 2.39764
639 4 23.9764 5.59449 2.39764
667 4 22.378 6.3937 1.59843
668 4 23.1772 7.19291 1.59843
669 4 23.1772 6.3937 2.39764
670 4 24.7756 6.3937 2.39764
671 4 23.9764 7.19291 2.39764
1136 4 24.7756 3.99606 3.19685
1161 4 22.378 4.79528 3.19685
1162 4 23.1772 5.59449 3.19685
1164 4 23.9764 4.79528 3.19685
1165 4 24.7756 5.59449 3.19685
1201 4 22.378 6.3937 3.19685
1203 4 23.9764 6.3937 3.19685
1204 4 24.7756 7.19291 3.19685
8290 2 23.1772 3.99606 0
8291 2 22.378 3.99606 0.799213
8293 2 24.7756 3.99606 0
8294 2 23.9764 3.99606 0.799213
8321 2 22.378 4.79528 0
8322 2 22.378 5.59449 0.799213
8323 2 23.9764 4.79528 0
8324 2 24.7756 5.59449 0
8325 2 23.9764 5.59449 0.799213
8361 2 23.1772 7.19291 0
8362 2 23.9764 6.3937 0
8363 2 24.7756 7.19291 0
8364 2 24.7756 6.3937 0.799213
8365 2 23.9764 7.19291 0.799213
8821 2 22.378 3.99606 2.39764
8822 2 24.7756 3.99606 1.59843
8847 2 22.378 4.79528 1.59843
8848 2 23.1772 5.59449 1.59843
8849 2 23.1772 4.79528 2.39764
8850 2 22.378 5.59449 2.39764
8851 2 24.7756 5.59449 1.59843
8879 2 24.7756 6.3937 2.39764
9336 2 24.7756 3.99606 3.19685
9372 2 22.378 4.79528 3.19685
9373 2 23.1772 5.59449 3.19685
9375 2 23.9764 4.79528 3.19685
9405 2 22.378 6.3937 3.19685
9406 2 23.1772 7.19291 3.19685
9409 2 24.7756 7.19291 3.19685
160 4 0 7.99213 0
161 4 0.799213 8.79134 0
162 4 0.799213 7.99213 0.799213
163 4 0 8.79134 0.799213
164 4 1.59843 7.99213 0
165 4 2.39764 7.99213 0.799213
168 4 3.19685 8.79134 0.799213
193 4 0.799213 10.3898 0
194 4 0.799213 9.59055 0.799213
195 4 0 10.3898 0.799213
196 4 1.59843 9.59055 0
197 4 2.39764 10.3898 0
198 4 3.19685 9.59055 0
201 4 3.19685 10.3898 0.799213
672 4 0 7.99213 1.59843
673 4 0.799213 7.99213 2.39764
674 4 0 8.79134 2.39764
675 4 1.59843 7.99213 1.59843
676 4 2.39764 8.79134 1.59843
677 4 2.39764 7.99213 2.39764
678 4 1.59843 8.79134 2.39764
679 4 3.19685 7.99213 1.59843
711 4 0 9.59055 1.59843
712 4 0.799213 10.3898 1.59843
713 4 1.59843 9.59055 1.59843
714 4 1.59843 10.3898 2.39764
717 4 3.19685 10.3898 2.39764
1207 4 0 7.99213 3.19685
1208 4 0.799213 8.79134 3.19685
1243 4 1.59843 9.59055 3.19685
8366 2 0 7.99213 0
8367 2 0.799213 8.79134 0
8368 2 0.799213 7.99213 0.799213
8369 2 0 8.79134 0.799213
8370 2 1.59843 7.99213 0
8371 2 2.39764 8.79134 0
8372 2 2.39764 7.99213 0.799213
8373 2 1.59843 8.79134 0.799213
8374 2 3.19685 7.99213 0
8404 2 1.59843 9.59055 0
8405 2 1.59843 10.3898 0.799213
8406 2 3.19685 9.59055 0
8880 2 0 7.99213 1.59843
8881 2 0.799213 7.99213 2.39764
8882 2 0 8.79134 2.39764
8883 2 1.59843 7.99213 1.59843
8884 2 2.39764 8.79134 1.59843
8885 2 2.39764 7.99213 2.39764
8886 2 3.19685 7.99213 1.59843
8918 2 0 9.59055 1.59843
8919 2 0.799213 10.3898 1.59843
8920 2 1.59843 9.59055 1.59843
8921 2 2.39764 10.3898 1.59843
8922 2 2.39764 9.59055 2.39764
8923 2 3.19685 9.59055 1.59843
9412 2 0 7.99213 3.19685
9413 2 0.799213 8.79134 3.19685
9416 2 1.59843 7.99213 3.19685
9417 2 2.39764 8.79134 3.19685
9420 2 3.19685 7.99213 3.19685
9446 2 1.59843 9.59055 3.19685
9447 2 3.19685 9.59055 3.19685
166 4 3.99606 8.79134 0
167 4 3.99606 7.99213 0.799213
169 4 5.59449 7.99213 0.799213
170 4 4.79528 8.79134 0.799213
171 4 6.3937 7.99213 0
172 4 7.19291 8.79134 0
173 4 7.19291 7.99213 0.799213
174 4 6.3937 8.79134 0.799213
199 4 3.99606 10.3898 0
200 4 3.99606 9.59055 0.799213
202 4 4.79528 9.59055 0
203 4 5.59449 10.3898 0
204 4 5.59449 9.59055 0.799213
205 4 7.19291 10.3898 0
206 4 7.19291 9.59055 0.799213
680 4 3.99606 8.79134 1.59843
681 4 3.99606 7.99213 2.39764
682 4 4.79528 7.99213 1.59843
683 4 5.59449 8.79134 1.59843
684 4 4.79528 8.79134 2.39764
685 4 6.3937 7.99213 1.59843
686 4 7.19291 8.79134 1.59843
687 4 7.19291 7.99213 2.39764
715 4 3.99606 10.3898 1.59843
716 4 3.99606 9.59055 2.39764
718 4 4.79528 9.59055 1.59843
719 4 5.59449 10.3898 1.59843
720 4 4.79528 10.3898 2.39764
721 4 6.3937 9.59055 1.59843
722 4 6.3937 10.3898 2.39764
1211 4 3.99606 8.79134 3.19685
1212 4 4.79528 7.99213 3.19685
1213 4 5.59449 8.79134 3.19685
1214 4 6.3937 7.99213 3.19685
1215 4 7.19291 8.79134 3.19685
1247 4 4.79528 9.59055 3.19685
1248 4 5.59449 10.3898 3.19685
1251 4 6.3937 9.59055 3.19685
1252 4 7.19291 10.3898 3.19685
8375 2 3.99606 8.79134 0
8376 2 5.59449 8.79134 0
8377 2 5.59449 7.99213 0.799213
8378 2 6.3937 7.99213 0
8379 2 7.19291 8.79134 0
8380 2 7.19291 7.99213 0.799213
8381 2 6.3937 8.79134 0.799213
8407 2 3.99606 10.3898 0
8408 2 4.79528 9.59055 0
8409 2 4.79528 10.3898 0.799213
8410 2 6.3937 9.59055 0
8411 2 7.19291 10.3898 0
8412 2 6.3937 10.3898 0.799213
8887 2 3.99606 8.79134 1.59843
8888 2 5.59449 8.79134 1.59843
8889 2 4.79528 8.79134 2.39764
8890 2 6.3937 7.99213 1.59843
8891 2 7.19291 8.79134 1.59843
8924 2 3.99606 10.3898 1.59843
8925 2 3.99606 9.59055 2.39764
8926 2 4.79528 9.59055 1.59843
8927 2 5.59449 10.3898 1.59843
8928 2 6.3937 9.59055 1.59843
8929 2 7.19291 9.59055 2.39764
9421 2 3.99606 8.79134 3.19685
9422 2 4.79528 7.99213 3.19685
9423 2 5.59449 8.79134 3.19685
9425 2 6.3937 7.99213 3.19685
9426 2 7.19291 8.79134 3.19685
9448 2 3.99606 10.3898 3.19685
9451 2 4.79528 9.59055 3.19685
9453 2 7.19291 10.3898 3.19685
175 4 7.99213 7.99213 0
176 4 7.99213 8.79134 0.799213
177 4 9.59055 7.99213 0
178 4 10.3898 8.79134 0
207 4 8.79134 10.3898 0
208 4 7.99213 10.3898 0.799213
209 4 9.59055 9.59055 0
210 4 10.3898 10.3898 0
688 4 7.99213 7.99213 1.59843
689 4 8.79134 8.79134 1.59843
690 4 8.79134 7.99213 2.39764
691 4 10.3898 8.79134 1.59843
692 4 10.3898 7.99213 2.39764
693 4 9.59055 8.79134 2.39764
723 4 8.79134 10.3898 1.59843
724 4 8.79134 9.59055 2.39764
725 4 10.3898 9.59055 2.39764
726 4 9.59055 10.3898 2.39764
1219 4 9.59055 7.99213 3.19685
1220 4 10.3898 8.79134 3.19685
1254 4 7.99213 9.59055 3.19685
1255 4 8.79134 10.3898 3.19685
1257 4 9.59055 9.59055 3.19685
1258 4 10.3898 10.3898 3.19685
8382 2 8.79134 8.79134 0
8383 2 8.79134 7.99213 0.799213
8384 2 10.3898 8.79134 0
8385 2 10.3898 7.99213 0.799213
8413 2 7.99213 9.59055 0
8414 2 8.79134 9.59055 0.799213
8415 2 10.3898 10.3898 0
8416 2 10.3898 9.59055 0.799213
8892 2 8.79134 8.79134 1.59843
8893 2 8.79134 7.99213 2.39764
8894 2 9.59055 7.99213 1.59843
8895 2 10.3898 8.79134 1.59843
8896 2 9.59055 8.79134 2.39764
8930 2 8.79134 10.3898 1.59843
8931 2 8.79134 9.59055 2.39764
8932 2 9.59055 10.3898 2.39764
9454 2 7.99213 9.59055 3.19685
9455 2 8.79134 10.3898 3.19685
9456 2 9.59055 9.59055 3.19685
9457 2 10.3898 10.3898 3.19685
179 4 11.9882 8.79134 0
180 4 14.3858 7.99213 0
182 4 14.3858 8.79134 0.799213
211 4 11.9882 10.3898 0
212 4 12.7874 9.59055 0
213 4 13.5866 10.3898 0
214 4 13.5866 9.59055 0.799213
215 4 12.7874 10.3898 0.799213
694 4 13.5866 7.99213 2.39764
695 4 12.7874 8.79134 2.39764
727 4 11.9882 10.3898 1.59843
728 4 12.7874 9.59055 1.59843
729 4 13.5866 10.3898 1.59843
730 4 13.5866 9.59055 2.39764
731 4 14.3858 9.59055 1.59843
733 4 14.3858 10.3898 2.39764
1222 4 11.189 7.99213 3.19685
1223 4 11.9882 8.79134 3.19685
1261 4 13.5866 10.3898 3.19685
8386 2 11.189 7.99213 0
8387 2 11.9882 8.79134 0
8388 2 12.7874 8.79134 0.799213
8417 2 11.189 9.59055 0
8418 2 11.9882 9.59055 0.799213
8419 2 12.7874 9.59055 0
8420 2 13.5866 9.59055 0.799213
8421 2 14.3858 9.59055 0
8897 2 11.189 7.99213 1.59843
8898 2 13.5866 8.79134 1.59843
8901 2 14.3858 8.79134 2.39764
8933 2 11.189 9.59055 1.59843
8934 2 11.9882 10.3898 1.59843
8935 2 11.189 10.3898 2.39764
8936 2 13.5866 10.3898 1.59843
8937 2 14.3858 9.59055 1.59843
8940 2 14.3858 10.3898 2.39764
9430 2 11.9882 8.79134 3.19685
9432 2 14.3858 7.99213 3.19685
9460 2 13.5866 10.3898 3.19685
9463 2 14.3858 9.59055 3.19685
181 4 15.185 8.79134 0
183 4 15.9843 7.99213 0
184 4 17.5827 7.99213 0
185 4 17.5827 8.79134 0.799213
216 4 15.185 10.3898 0
217 4 15.185 9.59055 0.799213
218 4 15.9843 9.59055 0
219 4 16.7835 9.59055 0.799213
220 4 17.5827 9.59055 0