ITEM: TIMESTEP
0
ITEM: NUMBER OF ATOMS
16384
ITEM: BOX BOUNDS pp pp pp
0.0000000000000000e+00 5.8621345934888602e+01
0.0000000000000000e+00 5.8621345934888602e+01
0.0000000000000000e+00 5.8621345934888602e+01
ITEM: ATOMS id type x y z
1 4 0 0 0
2 4 1.84646 1.84646 0
8193 2 0 0 0
8194 2 1.84646 1.84646 0
8195 2 1.84646 0 1.84646
8196 2 0 1.84646 1.84646
3 4 5.53937 1.84646 0
4 4 5.53937 0 1.84646
5 4 3.69291 1.84646 1.84646
8197 2 5.53937 0 1.84646
6 4 9.23228 0 1.84646
7 4 7.38583 1.84646 1.84646
8198 2 7.38583 0 0
8199 2 9.23228 1.84646 0
8 4 12.9252 1.84646 0
9 4 12.9252 0 1.84646
10 4 11.0787 1.84646 1.84646
8200 2 12.9252 1.84646 0
11 4 14.7717 0 0
12 4 14.7717 1.84646 1.84646
8201 2 16.6181 0 1.84646
8203 2 18.4646 1.84646 1.84646
13 4 22.1575 0 0
8202 2 20.311 0 1.84646
8204 2 22.1575 0 0
8206 2 22.1575 1.84646 1.84646
14 4 25.8504 0 0
16 4 25.8504 1.84646 1.84646
8205 2 24.0039 1.84646 0
8207 2 25.8504 0 0
15 4 27.6969 0 1.84646
8208 2 27.6969 0 1.84646
17 4 29.5433 0 0
18 4 31.3898 1.84646 0
19 4 31.3898 0 1.84646
8209 2 31.3898 1.84646 0
20 4 35.0827 1.84646 0
21 4 35.0827 0 1.84646
8210 2 35.0827 1.84646 0
8211 2 35.0827 0 1.84646
8212 2 33.2362 1.84646 1.84646
22 4 38.7756 1.84646 0
8213 2 36.9291 0 0
8214 2 38.7756 0 1.84646
8215 2 36.9291 1.84646 1.84646
23 4 40.622 0 0
8217 2 40.622 1.84646 1.84646
24 4 42.4685 1.84646 0
8216 2 42.4685 1.84646 0
8218 2 44.315 0 0
8220 2 44.315 1.84646 1.84646
25 4 46.1614 1.84646 0
8219 2 46.1614 1.84646 0
8221 2 48.0079 0 0
8223 2 48.0079 1.84646 1.84646
26 4 49.8543 1.84646 0
27 4 51.7008 0 0
29 4 51.7008 1.84646 1.84646
8222 2 49.8543 0 1.84646
28 4 53.5472 0 1.84646
8224 2 53.5472 0 1.84646
30 4 55.3937 0 0
31 4 57.2402 1.84646 0
8225 2 55.3937 0 0
32 4 1.84646 3.69291 1.84646
33 4 0 5.53937 1.84646
8226 2 0 3.69291 0
8227 2 1.84646 5.53937 0
34 4 5.53937 3.69291 1.84646
35 4 3.69291 5.53937 1.84646
8228 2 5.53937 3.69291 1.84646
36 4 7.38583 3.69291 0
37 4 9.23228 5.53937 0
38 4 9.23228 3.69291 1.84646
39 4 7.38583 5.53937 1.84646
8229 2 7.38583 3.69291 0
8230 2 9.23228 5.53937 0
40 4 12.9252 5.53937 0
41 4 12.9252 3.69291 1.84646
42 4 11.0787 5.53937 1.84646
43 4 14.7717 3.69291 0
45 4 14.7717 5.53937 1.84646
8231 2 14.7717 3.69291 0
44 4 16.6181 5.53937 0
47 4 18.4646 5.53937 1.84646
8232 2 16.6181 3.69291 1.84646
46 4 20.311 3.69291 1.84646
48 4 22.1575 3.69291 0
51 4 22.1575 5.53937 1.84646
8233 2 20.311 5.53937 0
49 4 24.0039 5.53937 0
50 4 24.0039 3.69291 1.84646
52 4 25.8504 5.53937 1.84646
8234 2 24.0039 5.53937 0
8235 2 24.0039 3.69291 1.84646
8236 2 25.8504 3.69291 0
8237 2 25.8504 5.53937 1.84646
53 4 29.5433 3.69291 0
54 4 31.3898 5.53937 0
55 4 31.3898 3.69291 1.84646
56 4 29.5433 5.53937 1.84646
8238 2 29.5433 3.69291 0
8239 2 31.3898 5.53937 0
57 4 33.2362 3.69291 0
58 4 35.0827 5.53937 0
59 4 33.2362 5.53937 1.84646
8240 2 35.0827 3.69291 1.84646
8241 2 33.2362 5.53937 1.84646
60 4 38.7756 3.69291 1.84646
61 4 36.9291 5.53937 1.84646
8242 2 38.7756 3.69291 1.84646
8243 2 40.622 3.69291 0
62 4 42.4685 3.69291 1.84646
63 4 44.315 3.69291 0
8244 2 42.4685 5.53937 0
8245 2 44.315 3.69291 0
64 4 46.1614 5.53937 0
65 4 46.1614 3.69291 1.84646
8246 2 46.1614 3.69291 1.84646
8247 2 48.0079 3.69291 0
8250 2 48.0079 5.53937 1.84646
66 4 49.8543 5.53937 0
67 4 49.8543 3.69291 1.84646
68 4 51.7008 3.69291 0
8248 2 49.8543 5.53937 0
8249 2 49.8543 3.69291 1.84646
8251 2 51.7008 3.69291 0
69 4 53.5472 5.53937 0
70 4 55.3937 3.69291 0
71 4 57.2402 5.53937 0
72 4 55.3937 5.53937 1.84646
8252 2 55.3937 3.69291 0
8253 2 57.2402 5.53937 0
8254 2 57.2402 3.69291 1.84646
8255 2 55.3937 5.53937 1.84646
73 4 1.84646 7.38583 1.84646
8256 2 1.84646 7.38583 1.84646
8257 2 0 9.23228 1.84646
74 4 5.53937 7.38583 1.84646
75 4 3.69291 9.23228 1.84646
8258 2 3.69291 7.38583 0
8259 2 5.53937 9.23228 0
8260 2 7.38583 7.38583 0
8261 2 9.23228 7.38583 1.84646
8262 2 7.38583 9.23228 1.84646
76 4 11.0787 7.38583 0
77 4 12.9252 7.38583 1.84646
8263 2 11.0787 7.38583 0
8264 2 11.0787 9.23228 1.84646
8265 2 14.7717 7.38583 0
78 4 16.6181 7.38583 1.84646
8266 2 16.6181 9.23228 0
8267 2 16.6181 7.38583 1.84646
8268 2 18.4646 7.38583 0
79 4 20.311 9.23228 0
80 4 20.311 7.38583 1.84646
81 4 22.1575 7.38583 0
8269 2 20.311 9.23228 0
8270 2 20.311 7.38583 1.84646
8272 2 22.1575 9.23228 1.84646
82 4 24.0039 7.38583 1.84646
83 4 25.8504 9.23228 1.84646
8271 2 24.0039 9.23228 0
8273 2 25.8504 9.23228 1.84646
84 4 31.3898 7.38583 1.84646
8274 2 29.5433 7.38583 0
8275 2 31.3898 9.23228 0
8276 2 29.5433 9.23228 1.84646
85 4 35.0827 9.23228 0
86 4 33.2362 9.23228 1.84646
8277 2 33.2362 7.38583 0
8278 2 35.0827 9.23228 0
8279 2 35.0827 7.38583 1.84646
8280 2 33.2362 9.23228 1.84646
87 4 38.7756 7.38583 1.84646
88 4 36.9291 9.23228 1.84646
8281 2 36.9291 7.38583 0
8282 2 38.7756 9.23228 0
8283 2 38.7756 7.38583 1.84646
90 4 40.622 9.23228 1.84646
89 4 42.4685 7.38583 1.84646
92 4 44.315 9.23228 1.84646
8284 2 42.4685 9.23228 0
8285 2 44.315 7.38583 0
91 4 46.1614 9.23228 0
93 4 48.0079 9.23228 1.84646
8288 2 48.0079 9.23228 1.84646
94 4 51.7008 7.38583 0
8286 2 49.8543 9.23228 0
8287 2 49.8543 7.38583 1.84646
8289 2 51.7008 7.38583 0
8291 2 51.7008 9.23228 1.84646
8290 2 53.5472 9.23228 0
95 4 55.3937 7.38583 0
96 4 57.2402 9.23228 0
97 4 55.3937 9.23228 1.84646
8292 2 55.3937 7.38583 0
8293 2 57.2402 9.23228 0
8294 2 55.3937 9.23228 1.84646
98 4 1.84646 12.9252 0
99 4 1.84646 11.0787 1.84646
100 4 0 12.9252 1.84646
8295 2 0 11.0787 0
101 4 3.69291 11.0787 0
102 4 5.53937 12.9252 0
103 4 5.53937 11.0787 1.84646
8296 2 3.69291 11.0787 0
8297 2 5.53937 12.9252 0
8298 2 5.53937 11.0787 1.84646
104 4 7.38583 11.0787 0
105 4 9.23228 11.0787 1.84646
8299 2 7.38583 11.0787 0
8300 2 9.23228 12.9252 0
106 4 12.9252 12.9252 0
107 4 12.9252 11.0787 1.84646
8301 2 11.0787 11.0787 0
8302 2 12.9252 12.9252 0
8303 2 11.0787 12.9252 1.84646
108 4 18.4646 11.0787 0
8304 2 16.6181 12.9252 0
8305 2 16.6181 11.0787 1.84646
109 4 20.311 12.9252 0
110 4 20.311 11.0787 1.84646
111 4 22.1575 11.0787 0
113 4 22.1575 12.9252 1.84646
8306 2 20.311 12.9252 0
8308 2 22.1575 12.9252 1.84646
112 4 24.0039 11.0787 1.84646
114 4 25.8504 11.0787 0
117 4 25.8504 12.9252 1.84646
8307 2 24.0039 12.9252 0
8309 2 25.8504 11.0787 0
8311 2 25.8504 12.9252 1.84646
115 4 27.6969 12.9252 0
116 4 27.6969 11.0787 1.84646
8310 2 27.6969 11.0787 1.84646
118 4 29.5433 12.9252 1.84646
8312 2 29.5433 11.0787 0
8313 2 31.3898 12.9252 0
119 4 33.2362 11.0787 0
120 4 35.0827 12.9252 0
121 4 35.0827 11.0787 1.84646
122 4 33.2362 12.9252 1.84646
8314 2 33.2362 11.0787 0
8315 2 35.0827 11.0787 1.84646
123 4 36.9291 11.0787 0
124 4 38.7756 11.0787 1.84646
8316 2 36.9291 11.0787 0
8317 2 40.622 11.0787 0
8318 2 40.622 12.9252 1.84646
127 4 44.315 12.9252 1.84646
125 4 46.1614 12.9252 0
126 4 46.1614 11.0787 1.84646
128 4 48.0079 11.0787 0
8320 2 48.0079 12.9252 1.84646
129 4 49.8543 11.0787 1.84646
130 4 51.7008 11.0787 0
8319 2 49.8543 11.0787 1.84646
8321 2 51.7008 11.0787 0
8322 2 51.7008 12.9252 1.84646
131 4 57.2402 12.9252 0
8323 2 55.3937 11.0787 0
8324 2 57.2402 12.9252 0
8325 2 55.3937 12.9252 1.84646
8327 2 1.84646 14.7717 1.84646
8329 2 3.69291 14.7717 0
8331 2 5.53937 14.7717 1.84646
134 4 9.23228 14.7717 1.84646
8333 2 7.38583 14.7717 0
137 4 18.4646 14.7717 0
8338 2 16.6181 14.7717 1.84646
8340 2 18.4646 14.7717 0
139 4 22.1575 14.7717 0
8341 2 20.311 14.7717 1.84646
8344 2 24.0039 14.7717 1.84646
143 4 31.3898 14.7717 1.84646
146 4 35.0827 14.7717 1.84646
8349 2 35.0827 14.7717 1.84646
148 4 36.9291 14.7717 0
8353 2 40.622 14.7717 0
152 4 44.315 14.7717 0
8354 2 42.4685 14.7717 1.84646
8356 2 44.315 14.7717 0
155 4 48.0079 14.7717 0
8357 2 46.1614 14.7717 1.84646
156 4 49.8543 14.7717 1.84646
158 4 51.7008 14.7717 0
8359 2 49.8543 14.7717 1.84646
8362 2 55.3937 14.7717 0
8364 2 57.2402 14.7717 1.84646
132 4 1.84646 16.6181 0
160 4 0 18.4646 0
162 4 1.84646 18.4646 1.84646
8326 2 1.84646 16.6181 0
8328 2 0 16.6181 1.84646
8366 2 0 18.4646 0
8368 2 1.84646 18.4646 1.84646
133 4 5.53937 16.6181 0
164 4 3.69291 18.4646 0
165 4 5.53937 18.4646 1.84646
8330 2 5.53937 16.6181 0
8332 2 3.69291 16.6181 1.84646
8370 2 3.69291 18.4646 0
8372 2 5.53937 18.4646 1.84646
167 4 9.23228 18.4646 1.84646
8334 2 9.23228 16.6181 0
8335 2 7.38583 16.6181 1.84646
8374 2 7.38583 18.4646 0
135 4 11.0787 16.6181 1.84646
169 4 12.9252 18.4646 1.84646
8336 2 12.9252 16.6181 0
8377 2 12.9252 18.4646 1.84646
136 4 14.7717 16.6181 1.84646
171 4 14.7717 18.4646 0
8339 2 14.7717 16.6181 1.84646
8378 2 14.7717 18.4646 0
173 4 16.6181 18.4646 1.84646
175 4 18.4646 18.4646 0
8337 2 16.6181 16.6181 0
8342 2 18.4646 16.6181 1.84646
8380 2 16.6181 18.4646 1.84646
138 4 20.311 16.6181 0
177 4 22.1575 18.4646 0
8345 2 22.1575 16.6181 1.84646
8383 2 20.311 18.4646 1.84646
140 4 24.0039 16.6181 0
142 4 25.8504 16.6181 1.84646
8343 2 24.0039 16.6181 0
8346 2 25.8504 16.6181 1.84646
8385 2 24.0039 18.4646 1.84646
8386 2 25.8504 18.4646 0
141 4 27.6969 16.6181 0
144 4 29.5433 16.6181 1.84646
8347 2 31.3898 16.6181 0
8348 2 29.5433 16.6181 1.84646
145 4 35.0827 16.6181 0
147 4 33.2362 16.6181 1.84646
180 4 33.2362 18.4646 0
8350 2 33.2362 16.6181 1.84646
8390 2 35.0827 18.4646 1.84646
149 4 38.7756 16.6181 0
150 4 36.9291 16.6181 1.84646
183 4 36.9291 18.4646 0
8351 2 38.7756 16.6181 0
8352 2 36.9291 16.6181 1.84646
8391 2 36.9291 18.4646 0
8393 2 38.7756 18.4646 1.84646
184 4 40.622 18.4646 0
8355 2 40.622 16.6181 1.84646
151 4 42.4685 16.6181 0
154 4 44.315 16.6181 1.84646
8358 2 44.315 16.6181 1.84646
8395 2 44.315 18.4646 0
153 4 46.1614 16.6181 0
157 4 48.0079 16.6181 1.84646
186 4 46.1614 18.4646 1.84646
8360 2 48.0079 16.6181 1.84646
8396 2 46.1614 18.4646 1.84646
8398 2 48.0079 18.4646 0
188 4 49.8543 18.4646 1.84646
8399 2 49.8543 18.4646 1.84646
8401 2 51.7008 18.4646 0
8361 2 53.5472 16.6181 0
159 4 55.3937 16.6181 1.84646
192 4 57.2402 18.4646 1.84646
8363 2 57.2402 16.6181 0
8365 2 55.3937 16.6181 1.84646
161 4 1.84646 20.311 0
163 4 0 20.311 1.84646
194 4 1.84646 22.1575 1.84646
8367 2 1.84646 20.311 0
8369 2 0 20.311 1.84646
196 4 3.69291 22.1575 0
8371 2 5.53937 20.311 0
8373 2 3.69291 20.311 1.84646
8404 2 3.69291 22.1575 0
166 4 9.23228 20.311 0
168 4 7.38583 20.311 1.84646
198 4 7.38583 22.1575 0
200 4 9.23228 22.1575 1.84646
8375 2 9.23228 20.311 0
8406 2 7.38583 22.1575 0
170 4 11.0787 20.311 1.84646
202 4 11.0787 22.1575 0
204 4 12.9252 22.1575 1.84646
8376 2 12.9252 20.311 0
8408 2 11.0787 22.1575 0
174 4 14.7717 20.311 1.84646
8381 2 14.7717 20.311 1.84646
8410 2 14.7717 22.1575 0
172 4 16.6181 20.311 0
176 4 18.4646 20.311 1.84646
206 4 16.6181 22.1575 1.84646
8379 2 16.6181 20.311 0
8413 2 18.4646 22.1575 0
209 4 22.1575 22.1575 0
8382 2 20.311 20.311 0
8414 2 20.311 22.1575 1.84646
178 4 24.0039 20.311 0
8384 2 24.0039 20.311 0
8416 2 24.0039 22.1575 1.84646
8417 2 25.8504 22.1575 0
179 4 27.6969 20.311 0
8387 2 27.6969 20.311 0
8418 2 27.6969 22.1575 1.84646
212 4 29.5433 22.1575 0
214 4 31.3898 22.1575 1.84646
8388 2 29.5433 20.311 1.84646
8419 2 29.5433 22.1575 0
8420 2 31.3898 22.1575 1.84646
181 4 35.0827 20.311 0
182 4 33.2362 20.311 1.84646
217 4 35.0827 22.1575 1.84646
8389 2 35.0827 20.311 0
8421 2 33.2362 22.1575 0
8423 2 35.0827 22.1575 1.84646
218 4 36.9291 22.1575 0
219 4 38.7756 22.1575 1.84646
8392 2 38.7756 20.311 0
8424 2 36.9291 22.1575 0
185 4 40.622 20.311 1.84646
220 4 40.622 22.1575 0
8394 2 40.622 20.311 1.84646
8397 2 44.315 20.311 1.84646
189 4 48.0079 20.311 1.84646
223 4 46.1614 22.1575 1.84646
224 4 48.0079 22.1575 0
8400 2 48.0079 20.311 1.84646
187 4 49.8543 20.311 0
226 4 51.7008 22.1575 0
8429 2 49.8543 22.1575 1.84646
190 4 53.5472 20.311 0
8402 2 53.5472 20.311 0
191 4 57.2402 20.311 0
8403 2 57.2402 20.311 0
193 4 1.84646 24.0039 0
195 4 0 24.0039 1.84646
230 4 0 25.8504 0
232 4 1.84646 25.8504 1.84646
8431 2 0 25.8504 0
8433 2 1.84646 25.8504 1.84646
197 4 5.53937 24.0039 0
235 4 5.53937 25.8504 1.84646
8405 2 3.69291 24.0039 1.84646
8436 2 5.53937 25.8504 1.84646
199 4 9.23228 24.0039 0
201 4 7.38583 24.0039 1.84646
237 4 9.23228 25.8504 1.84646
8407 2 9.23228 24.0039 0
8437 2 7.38583 25.8504 0
8439 2 9.23228 25.8504 1.84646
203 4 12.9252 24.0039 0
239 4 11.0787 25.8504 0
240 4 12.9252 25.8504 1.84646
8409 2 11.0787 24.0039 1.84646
8412 2 14.7717 24.0039 1.84646
205 4 16.6181 24.0039 0
208 4 18.4646 24.0039 1.84646
243 4 16.6181 25.8504 1.84646
8411 2 16.6181 24.0039 0
8441 2 16.6181 25.8504 1.84646
207 4 20.311 24.0039 0
245 4 22.1575 25.8504 0
8443 2 20.311 25.8504 1.84646
210 4 24.0039 24.0039 0
246 4 24.0039 25.8504 1.84646
8415 2 24.0039 24.0039 0
8445 2 24.0039 25.8504 1.84646
8446 2 25.8504 25.8504 0
211 4 27.6969 24.0039 0
248 4 27.6969 25.8504 1.84646
213 4 31.3898 24.0039 0
215 4 29.5433 24.0039 1.84646
8447 2 29.5433 25.8504 0
216 4 35.0827 24.0039 0
251 4 33.2362 25.8504 0
8422 2 35.0827 24.0039 0
8449 2 33.2362 25.8504 0
8450 2 35.0827 25.8504 1.84646
252 4 36.9291 25.8504 0
253 4 38.7756 25.8504 1.84646
8425 2 38.7756 24.0039 0
8451 2 36.9291 25.8504 0
8453 2 38.7756 25.8504 1.84646
8427 2 40.622 24.0039 1.84646
8454 2 40.622 25.8504 0
221 4 42.4685 24.0039 0
8426 2 42.4685 24.0039 0
8428 2 44.315 24.0039 1.84646
8456 2 44.315 25.8504 0
222 4 46.1614 24.0039 0
225 4 48.0079 24.0039 1.84646
256 4 46.1614 25.8504 1.84646
228 4 51.7008 24.0039 1.84646
227 4 53.5472 24.0039 0
8430 2 53.5472 24.0039 0
229 4 57.2402 24.0039 0
259 4 57.2402 25.8504 1.84646
231 4 1.84646 27.6969 0
233 4 0 27.6969 1.84646
8432 2 1.84646 27.6969 0
8434 2 0 27.6969 1.84646
234 4 5.53937 27.6969 0
236 4 3.69291 27.6969 1.84646
8435 2 5.53937 27.6969 0
238 4 7.38583 27.6969 1.84646
8438 2 9.23228 27.6969 0
8440 2 7.38583 27.6969 1.84646
241 4 11.0787 27.6969 1.84646
244 4 14.7717 27.6969 1.84646
242 4 16.6181 27.6969 0
8442 2 20.311 27.6969 0
249 4 25.8504 27.6969 1.84646
8444 2 24.0039 27.6969 0
247 4 27.6969 27.6969 0
250 4 29.5433 27.6969 1.84646
8448 2 31.3898 27.6969 0
8452 2 38.7756 27.6969 0
8455 2 40.622 27.6969 1.84646
254 4 42.4685 27.6969 0
8458 2 44.315 27.6969 1.84646
255 4 46.1614 27.6969 0
257 4 48.0079 27.6969 1.84646
8457 2 46.1614 27.6969 0
8459 2 49.8543 27.6969 0
8461 2 51.7008 27.6969 1.84646
258 4 53.5472 27.6969 0
8460 2 53.5472 27.6969 0
8462 2 57.2402 27.6969 0
260 4 0 29.5433 0
261 4 1.84646 31.3898 0
262 4 0 31.3898 1.84646
8463 2 1.84646 31.3898 0
8464 2 1.84646 29.5433 1.84646
8465 2 0 31.3898 1.84646
263 4 3.69291 29.5433 0
264 4 5.53937 31.3898 0
265 4 5.53937 29.5433 1.84646
266 4 3.69291 31.3898 1.84646
8466 2 3.69291 29.5433 0
267 4 7.38583 29.5433 0
268 4 9.23228 29.5433 1.84646
8467 2 7.38583 29.5433 0
8468 2 9.23228 31.3898 0
8469 2 9.23228 29.5433 1.84646
269 4 11.0787 29.5433 0
270 4 12.9252 31.3898 0
271 4 11.0787 31.3898 1.84646
8470 2 11.0787 29.5433 0
272 4 14.7717 31.3898 1.84646
8472 2 14.7717 31.3898 1.84646
275 4 18.4646 31.3898 1.84646
8471 2 16.6181 29.5433 1.84646
273 4 20.311 31.3898 0
274 4 20.311 29.5433 1.84646
277 4 22.1575 31.3898 1.84646
8473 2 20.311 31.3898 0
8474 2 22.1575 29.5433 0
276 4 24.0039 29.5433 1.84646
278 4 25.8504 29.5433 0
279 4 25.8504 31.3898 1.84646
280 4 29.5433 29.5433 0
281 4 31.3898 29.5433 1.84646
8475 2 29.5433 29.5433 0
8476 2 31.3898 31.3898 0
8477 2 31.3898 29.5433 1.84646
282 4 33.2362 29.5433 0
283 4 35.0827 31.3898 0
284 4 35.0827 29.5433 1.84646
8478 2 33.2362 29.5433 0
8479 2 35.0827 31.3898 0
285 4 36.9291 31.3898 1.84646
8480 2 36.9291 29.5433 0
8481 2 38.7756 31.3898 0
8482 2 38.7756 29.5433 1.84646
8483 2 36.9291 31.3898 1.84646
286 4 40.622 29.5433 0
8485 2 40.622 31.3898 1.84646
287 4 42.4685 31.3898 0
290 4 44.315 31.3898 1.84646
8484 2 42.4685 29.5433 1.84646
288 4 46.1614 31.3898 0
289 4 46.1614 29.5433 1.84646
8486 2 46.1614 31.3898 0
8487 2 46.1614 29.5433 1.84646
8490 2 48.0079 31.3898 1.84646
8488 2 49.8543 31.3898 0
8489 2 49.8543 29.5433 1.84646
8491 2 51.7008 29.5433 0
291 4 53.5472 29.5433 1.84646
8492 2 53.5472 31.3898 0
292 4 57.2402 29.5433 1.84646
293 4 55.3937 31.3898 1.84646
8493 2 57.2402 29.5433 1.84646
8494 2 55.3937 31.3898 1.84646
294 4 1.84646 35.0827 0
8495 2 0 33.2362 0
8496 2 1.84646 35.0827 0
295 4 3.69291 33.2362 0
296 4 5.53937 35.0827 0
8497 2 5.53937 35.0827 0
8498 2 5.53937 33.2362 1.84646
297 4 9.23228 33.2362 1.84646
8499 2 7.38583 33.2362 0
8500 2 7.38583 35.0827 1.84646
298 4 12.9252 35.0827 0
299 4 12.9252 33.2362 1.84646
300 4 11.0787 35.0827 1.84646
8501 2 12.9252 35.0827 0
8502 2 12.9252 33.2362 1.84646
8503 2 11.0787 35.0827 1.84646
301 4 14.7717 33.2362 0
8504 2 14.7717 33.2362 0
8507 2 14.7717 35.0827 1.84646
302 4 16.6181 33.2362 1.84646
304 4 18.4646 35.0827 1.84646
8505 2 16.6181 35.0827 0
8506 2 16.6181 33.2362 1.84646
8508 2 18.4646 33.2362 0
303 4 20.311 35.0827 0
8509 2 20.311 35.0827 0
8510 2 22.1575 33.2362 0
8512 2 22.1575 35.0827 1.84646
305 4 24.0039 35.0827 0
306 4 24.0039 33.2362 1.84646
8511 2 24.0039 35.0827 0
8513 2 25.8504 33.2362 0
307 4 27.6969 35.0827 0
308 4 29.5433 33.2362 0
309 4 31.3898 35.0827 0
8514 2 31.3898 35.0827 0
8515 2 31.3898 33.2362 1.84646
8516 2 29.5433 35.0827 1.84646
8517 2 35.0827 35.0827 0
8518 2 33.2362 35.0827 1.84646
310 4 38.7756 35.0827 0
311 4 38.7756 33.2362 1.84646
312 4 36.9291 35.0827 1.84646
8519 2 36.9291 33.2362 0
8520 2 38.7756 33.2362 1.84646
8521 2 36.9291 35.0827 1.84646
313 4 42.4685 35.0827 0
314 4 44.315 33.2362 0
8522 2 42.4685 35.0827 0
8523 2 44.315 33.2362 0
315 4 46.1614 35.0827 0
316 4 48.0079 33.2362 0
319 4 48.0079 35.0827 1.84646
317 4 49.8543 35.0827 0
318 4 49.8543 33.2362 1.84646
320 4 51.7008 33.2362 0
8524 2 49.8543 35.0827 0
8525 2 51.7008 33.2362 0
8526 2 53.5472 33.2362 1.84646
321 4 57.2402 35.0827 0
8527 2 57.2402 35.0827 0
322 4 1.84646 38.7756 0
323 4 1.84646 36.9291 1.84646
8528 2 0 36.9291 0
8529 2 0 38.7756 1.84646
324 4 3.69291 36.9291 0
325 4 5.53937 36.9291 1.84646
8530 2 5.53937 38.7756 0
8531 2 3.69291 38.7756 1.84646
326 4 9.23228 36.9291 1.84646
327 4 7.38583 38.7756 1.84646
8532 2 7.38583 36.9291 0
8533 2 9.23228 38.7756 0
328 4 12.9252 36.9291 1.84646
8534 2 12.9252 38.7756 0
329 4 14.7717 36.9291 0
331 4 14.7717 38.7756 1.84646
330 4 16.6181 38.7756 0
332 4 18.4646 36.9291 0
8535 2 16.6181 38.7756 0
8536 2 16.6181 36.9291 1.84646
8537 2 18.4646 36.9291 0
8539 2 18.4646 38.7756 1.84646
333 4 20.311 38.7756 0
334 4 22.1575 36.9291 0
336 4 22.1575 38.7756 1.84646
8538 2 20.311 36.9291 1.84646
8540 2 22.1575 36.9291 0
8543 2 22.1575 38.7756 1.84646
335 4 24.0039 38.7756 0
8541 2 24.0039 38.7756 0
8542 2 24.0039 36.9291 1.84646
337 4 27.6969 38.7756 0
338 4 27.6969 36.9291 1.84646
8544 2 27.6969 38.7756 0
8545 2 27.6969 36.9291 1.84646
339 4 29.5433 36.9291 0
340 4 31.3898 38.7756 0
341 4 31.3898 36.9291 1.84646
342 4 29.5433 38.7756 1.84646
8546 2 29.5433 36.9291 0
8547 2 31.3898 38.7756 0
8548 2 31.3898 36.9291 1.84646
8549 2 29.5433 38.7756 1.84646
343 4 33.2362 36.9291 0
344 4 35.0827 38.7756 0
345 4 35.0827 36.9291 1.84646
8550 2 35.0827 36.9291 1.84646
8551 2 33.2362 38.7756 1.84646
346 4 36.9291 36.9291 0
8552 2 38.7756 36.9291 1.84646
8553 2 36.9291 38.7756 1.84646
347 4 40.622 36.9291 0
348 4 44.315 36.9291 0
350 4 44.315 38.7756 1.84646
8555 2 44.315 38.7756 1.84646
349 4 46.1614 36.9291 1.84646
8554 2 46.1614 38.7756 0
8556 2 48.0079 36.9291 0
351 4 49.8543 38.7756 0
352 4 51.7008 36.9291 0
8557 2 49.8543 36.9291 1.84646
353 4 53.5472 38.7756 0
354 4 53.5472 36.9291 1.84646
8558 2 53.5472 38.7756 0
355 4 57.2402 38.7756 0
356 4 55.3937 38.7756 1.84646
8559 2 57.2402 38.7756 0
8560 2 55.3937 38.7756 1.84646
357 4 0 40.622 0
359 4 1.84646 40.622 1.84646
8561 2 0 40.622 0
8562 2 1.84646 40.622 1.84646
361 4 3.69291 40.622 0
8563 2 3.69291 40.622 0
8564 2 5.53937 40.622 1.84646
363 4 7.38583 40.622 0
364 4 9.23228 40.622 1.84646
8565 2 7.38583 40.622 0
8566 2 9.23228 40.622 1.84646
365 4 11.0787 40.622 0
366 4 12.9252 40.622 1.84646
8569 2 12.9252 40.622 1.84646
368 4 16.6181 40.622 1.84646
8570 2 16.6181 40.622 1.84646
370 4 20.311 40.622 1.84646
372 4 24.0039 40.622 1.84646
374 4 25.8504 40.622 0
8573 2 24.0039 40.622 1.84646
8575 2 25.8504 40.622 0
376 4 27.6969 40.622 1.84646
8576 2 27.6969 40.622 1.84646
378 4 29.5433 40.622 0
379 4 31.3898 40.622 1.84646
380 4 33.2362 40.622 0
381 4 35.0827 40.622 1.84646
8578 2 33.2362 40.622 0
383 4 38.7756 40.622 1.84646
385 4 42.4685 40.622 1.84646
8581 2 42.4685 40.622 1.84646
387 4 48.0079 40.622 0
390 4 51.7008 40.622 0
8582 2 49.8543 40.622 1.84646
391 4 53.5472 40.622 1.84646
8584 2 53.5472 40.622 1.84646
8586 2 57.2402 40.622 1.84646
358 4 1.84646 42.4685 0
360 4 0 42.4685 1.84646
362 4 3.69291 42.4685 1.84646
395 4 3.69291 44.315 0
8591 2 5.53937 44.315 1.84646
397 4 7.38583 44.315 0
399 4 9.23228 44.315 1.84646
8567 2 7.38583 42.4685 1.84646
8593 2 7.38583 44.315 0
8595 2 9.23228 44.315 1.84646
367 4 11.0787 42.4685 1.84646
401 4 12.9252 44.315 1.84646
8568 2 12.9252 42.4685 0
402 4 14.7717 44.315 0
371 4 18.4646 42.4685 1.84646
8572 2 18.4646 42.4685 1.84646
8597 2 16.6181 44.315 1.84646
8598 2 18.4646 44.315 0
369 4 20.311 42.4685 0
373 4 22.1575 42.4685 1.84646
406 4 22.1575 44.315 0
8571 2 20.311 42.4685 0
8574 2 22.1575 42.4685 1.84646
8599 2 20.311 44.315 1.84646
8600 2 22.1575 44.315 0
377 4 25.8504 42.4685 1.84646
407 4 25.8504 44.315 0
8577 2 25.8504 42.4685 1.84646
8601 2 24.0039 44.315 1.84646
8602 2 25.8504 44.315 0
375 4 27.6969 42.4685 0
8605 2 31.3898 44.315 1.84646
408 4 35.0827 44.315 1.84646
8579 2 33.2362 42.4685 1.84646
8607 2 33.2362 44.315 0
8608 2 35.0827 44.315 1.84646
382 4 38.7756 42.4685 0
410 4 36.9291 44.315 0
412 4 38.7756 44.315 1.84646
8580 2 38.7756 42.4685 0
8610 2 36.9291 44.315 0
8612 2 38.7756 44.315 1.84646
413 4 40.622 44.315 0
8614 2 40.622 44.315 0
384 4 42.4685 42.4685 0
386 4 44.315 42.4685 1.84646
415 4 42.4685 44.315 1.84646
8615 2 42.4685 44.315 1.84646
8616 2 44.315 44.315 0
389 4 48.0079 42.4685 1.84646
418 4 48.0079 44.315 0
8617 2 46.1614 44.315 1.84646
8618 2 48.0079 44.315 0
388 4 49.8543 42.4685 0
419 4 49.8543 44.315 1.84646
420 4 51.7008 44.315 0
8585 2 51.7008 42.4685 1.84646
8583 2 53.5472 42.4685 0
392 4 57.2402 42.4685 0
393 4 55.3937 42.4685 1.84646
422 4 55.3937 44.315 0
8587 2 55.3937 42.4685 1.84646
8622 2 55.3937 44.315 0
394 4 0 46.1614 1.84646
8588 2 1.84646 46.1614 0
8589 2 0 46.1614 1.84646
8623 2 0 48.0079 0
8624 2 1.84646 48.0079 1.84646
396 4 3.69291 46.1614 1.84646
426 4 3.69291 48.0079 0
8590 2 5.53937 46.1614 0
8592 2 3.69291 46.1614 1.84646
8625 2 5.53937 48.0079 1.84646
398 4 9.23228 46.1614 0
400 4 7.38583 46.1614 1.84646
8594 2 9.23228 46.1614 0
8627 2 7.38583 48.0079 0
8628 2 9.23228 48.0079 1.84646
429 4 11.0787 48.0079 0
8596 2 12.9252 46.1614 0
8631 2 12.9252 48.0079 1.84646
404 4 14.7717 46.1614 1.84646
432 4 14.7717 48.0079 0
403 4 16.6181 46.1614 0
405 4 18.4646 46.1614 1.84646
435 4 18.4646 48.0079 0
436 4 22.1575 48.0079 0
8635 2 20.311 48.0079 1.84646
8636 2 22.1575 48.0079 0
438 4 24.0039 48.0079 1.84646
8603 2 25.8504 46.1614 1.84646
440 4 27.6969 48.0079 1.84646
8638 2 27.6969 48.0079 1.84646
441 4 29.5433 48.0079 0
8604 2 31.3898 46.1614 0
8606 2 29.5433 46.1614 1.84646
409 4 33.2362 46.1614 1.84646
443 4 35.0827 48.0079 1.84646
8609 2 33.2362 46.1614 1.84646
8641 2 35.0827 48.0079 1.84646
411 4 38.7756 46.1614 0
445 4 36.9291 48.0079 0
8611 2 38.7756 46.1614 0
8613 2 36.9291 46.1614 1.84646
448 4 40.622 48.0079 0
8644 2 40.622 48.0079 0
414 4 42.4685 46.1614 0
417 4 44.315 46.1614 1.84646
449 4 42.4685 48.0079 1.84646
450 4 44.315 48.0079 0
416 4 46.1614 46.1614 0
452 4 46.1614 48.0079 1.84646
454 4 48.0079 48.0079 0
8620 2 48.0079 46.1614 1.84646
8647 2 46.1614 48.0079 1.84646
8649 2 48.0079 48.0079 0
456 4 49.8543 48.0079 1.84646
8619 2 49.8543 46.1614 0
8621 2 51.7008 46.1614 1.84646
8651 2 49.8543 48.0079 1.84646
8652 2 51.7008 48.0079 0
421 4 53.5472 46.1614 0
457 4 53.5472 48.0079 1.84646
423 4 57.2402 46.1614 0
424 4 55.3937 46.1614 1.84646
459 4 55.3937 48.0079 0
460 4 57.2402 48.0079 1.84646
8655 2 55.3937 48.0079 0
8657 2 57.2402 48.0079 1.84646
425 4 0 49.8543 1.84646
8658 2 0 51.7008 0
8660 2 1.84646 51.7008 1.84646
427 4 3.69291 49.8543 1.84646
8626 2 3.69291 49.8543 1.84646
428 4 9.23228 49.8543 0
463 4 9.23228 51.7008 1.84646
8629 2 7.38583 49.8543 1.84646
8662 2 7.38583 51.7008 0
430 4 12.9252 49.8543 0
431 4 11.0787 49.8543 1.84646
464 4 11.0787 51.7008 0
8630 2 12.9252 49.8543 0
8632 2 11.0787 49.8543 1.84646
8665 2 11.0787 51.7008 0
8667 2 12.9252 51.7008 1.84646
434 4 14.7717 49.8543 1.84646
465 4 14.7717 51.7008 0
8634 2 14.7717 49.8543 1.84646
8668 2 14.7717 51.7008 0
433 4 16.6181 49.8543 0
467 4 18.4646 51.7008 0
8633 2 16.6181 49.8543 0
8669 2 18.4646 51.7008 0
468 4 20.311 51.7008 1.84646
8671 2 22.1575 51.7008 0
437 4 24.0039 49.8543 0
470 4 24.0039 51.7008 1.84646
471 4 25.8504 51.7008 0
8637 2 24.0039 49.8543 0
8639 2 25.8504 49.8543 1.84646
439 4 27.6969 49.8543 0
473 4 27.6969 51.7008 1.84646
8673 2 27.6969 51.7008 1.84646
475 4 31.3898 51.7008 1.84646
8640 2 29.5433 49.8543 1.84646
8674 2 29.5433 51.7008 0
442 4 35.0827 49.8543 0
444 4 33.2362 49.8543 1.84646
477 4 35.0827 51.7008 1.84646
8676 2 33.2362 51.7008 0
8677 2 35.0827 51.7008 1.84646
446 4 38.7756 49.8543 0
447 4 36.9291 49.8543 1.84646
478 4 36.9291 51.7008 0
479 4 38.7756 51.7008 1.84646
8642 2 38.7756 49.8543 0
8643 2 36.9291 49.8543 1.84646
8680 2 38.7756 51.7008 1.84646
8646 2 40.622 49.8543 1.84646
453 4 44.315 49.8543 1.84646
481 4 42.4685 51.7008 1.84646
483 4 44.315 51.7008 0
8645 2 42.4685 49.8543 0
8648 2 44.315 49.8543 1.84646
451 4 46.1614 49.8543 0
484 4 46.1614 51.7008 1.84646
8684 2 48.0079 51.7008 0
455 4 49.8543 49.8543 0
458 4 51.7008 49.8543 1.84646
8650 2 49.8543 49.8543 0
8654 2 51.7008 49.8543 1.84646
8687 2 51.7008 51.7008 0
488 4 53.5472 51.7008 1.84646
8653 2 53.5472 49.8543 0
489 4 55.3937 51.7008 0
491 4 57.2402 51.7008 1.84646
8656 2 57.2402 49.8543 0
8659 2 1.84646 53.5472 0
461 4 5.53937 53.5472 0
8661 2 3.69291 53.5472 1.84646
462 4 9.23228 53.5472 0
8663 2 9.23228 53.5472 0
8664 2 7.38583 53.5472 1.84646
8666 2 12.9252 53.5472 0
466 4 14.7717 53.5472 1.84646
469 4 18.4646 53.5472 1.84646
8670 2 20.311 53.5472 0
8672 2 22.1575 53.5472 1.84646
474 4 25.8504 53.5472 1.84646
472 4 27.6969 53.5472 0
8675 2 31.3898 53.5472 0
476 4 35.0827 53.5472 0
8678 2 33.2362 53.5472 1.84646
8679 2 38.7756 53.5472 0
8681 2 36.9291 53.5472 1.84646
482 4 40.622 53.5472 1.84646
8682 2 40.622 53.5472 1.84646
480 4 42.4685 53.5472 0
8683 2 44.315 53.5472 1.84646
486 4 48.0079 53.5472 1.84646
8686 2 48.0079 53.5472 1.84646
485 4 49.8543 53.5472 0
8685 2 49.8543 53.5472 0
487 4 53.5472 53.5472 0
8688 2 53.5472 53.5472 0
490 4 57.2402 53.5472 0
492 4 1.84646 57.2402 0
8689 2 0 55.3937 0
8690 2 1.84646 57.2402 0
8691 2 0 57.2402 1.84646
493 4 3.69291 55.3937 0
494 4 5.53937 57.2402 0
495 4 3.69291 57.2402 1.84646
8692 2 3.69291 55.3937 0
8693 2 5.53937 55.3937 1.84646
8694 2 3.69291 57.2402 1.84646
496 4 7.38583 55.3937 0
497 4 9.23228 55.3937 1.84646
8695 2 9.23228 57.2402 0
8696 2 7.38583 57.2402 1.84646
498 4 12.9252 57.2402 0
8697 2 11.0787 55.3937 0
8698 2 12.9252 55.3937 1.84646
8699 2 14.7717 55.3937 0
8702 2 14.7717 57.2402 1.84646
501 4 18.4646 57.2402 1.84646
8700 2 16.6181 57.2402 0
8701 2 16.6181 55.3937 1.84646
8703 2 18.4646 55.3937 0
499 4 20.311 57.2402 0
500 4 20.311 55.3937 1.84646
502 4 22.1575 55.3937 0
8706 2 22.1575 57.2402 1.84646
503 4 25.8504 55.3937 0
8704 2 24.0039 57.2402 0
8705 2 24.0039 55.3937 1.84646
8707 2 25.8504 55.3937 0
8709 2 25.8504 57.2402 1.84646
504 4 27.6969 57.2402 0
505 4 27.6969 55.3937 1.84646
8708 2 27.6969 55.3937 1.84646
506 4 31.3898 57.2402 0
507 4 31.3898 55.3937 1.84646
508 4 29.5433 57.2402 1.84646
8710 2 31.3898 57.2402 0
8711 2 29.5433 57.2402 1.84646
509 4 33.2362 55.3937 0
510 4 35.0827 57.2402 0
511 4 35.0827 55.3937 1.84646
8712 2 33.2362 55.3937 0
8713 2 35.0827 55.3937 1.84646
8714 2 33.2362 57.2402 1.84646
512 4 36.9291 55.3937 0
8715 2 36.9291 55.3937 0
8716 2 38.7756 57.2402 0
8717 2 38.7756 55.3937 1.84646
8718 2 36.9291 57.2402 1.84646
513 4 40.622 55.3937 0
8719 2 40.622 55.3937 0
514 4 42.4685 55.3937 1.84646
516 4 44.315 57.2402 1.84646
8720 2 42.4685 57.2402 0
515 4 46.1614 55.3937 1.84646
517 4 48.0079 55.3937 0
519 4 48.0079 57.2402 1.84646
8721 2 46.1614 55.3937 1.84646
8722 2 48.0079 55.3937 0
8725 2 48.0079 57.2402 1.84646
518 4 49.8543 55.3937 1.84646
8723 2 49.8543 57.2402 0
8724 2 49.8543 55.3937 1.84646
8726 2 53.5472 57.2402 0
8727 2 53.5472 55.3937 1.84646
520 4 57.2402 57.2402 0
521 4 57.2402 55.3937 1.84646
8728 2 57.2402 57.2402 0
8729 2 57.2402 55.3937 1.84646
8730 2 1.84646 1.84646 3.69291
8731 2 0 1.84646 5.53937
522 4 5.53937 0 5.53937
523 4 3.69291 1.84646 5.53937
8732 2 5.53937 1.84646 3.69291
8733 2 5.53937 0 5.53937
8734 2 3.69291 1.84646 5.53937
524 4 9.23228 0 5.53937
8735 2 7.38583 0 3.69291
8736 2 9.23228 0 5.53937
8737 2 7.38583 1.84646 5.53937
525 4 12.9252 1.84646 3.69291
526 4 12.9252 0 5.53937
527 4 11.0787 1.84646 5.53937
8738 2 12.9252 0 5.53937
8739 2 11.0787 1.84646 5.53937
528 4 14.7717 0 3.69291
8740 2 14.7717 0 3.69291
8741 2 14.7717 1.84646 5.53937
529 4 16.6181 0 5.53937
531 4 18.4646 1.84646 5.53937
8742 2 18.4646 1.84646 5.53937
530 4 20.311 0 5.53937
8743 2 22.1575 0 3.69291
8745 2 22.1575 1.84646 5.53937
532 4 24.0039 1.84646 3.69291
533 4 24.0039 0 5.53937
534 4 25.8504 0 3.69291
535 4 25.8504 1.84646 5.53937
8744 2 24.0039 1.84646 3.69291
8746 2 25.8504 0 3.69291
8747 2 27.6969 0 5.53937
536 4 29.5433 0 3.69291
537 4 31.3898 1.84646 3.69291
538 4 31.3898 0 5.53937
539 4 29.5433 1.84646 5.53937
8748 2 29.5433 0 3.69291
8749 2 29.5433 1.84646 5.53937
8750 2 35.0827 1.84646 3.69291
8751 2 35.0827 0 5.53937
8752 2 33.2362 1.84646 5.53937
540 4 36.9291 0 3.69291
8753 2 36.9291 1.84646 5.53937
541 4 40.622 0 3.69291
542 4 42.4685 1.84646 3.69291
545 4 44.315 1.84646 5.53937
8754 2 42.4685 1.84646 3.69291
8755 2 42.4685 0 5.53937
8756 2 44.315 1.84646 5.53937
543 4 46.1614 1.84646 3.69291
544 4 46.1614 0 5.53937
546 4 48.0079 0 3.69291
549 4 48.0079 1.84646 5.53937