ITEM: TIMESTEP
0
ITEM: NUMBER OF ATOMS
16384
ITEM: BOX BOUNDS pp pp pp
0.0000000000000000e+00 6.3521040520491297e+01
0.0000000000000000e+00 6.3521040520491297e+01
0.0000000000000000e+00 6.3521040520491297e+01
ITEM: ATOMS id type x y z
1 4 0 0 0
2 4 2.00079 2.00079 0
8193 2 0 0 0
8194 2 2.00079 2.00079 0
8195 2 2.00079 0 2.00079
8196 2 0 2.00079 2.00079
3 4 6.00236 2.00079 0
4 4 6.00236 0 2.00079
5 4 4.00157 2.00079 2.00079
8197 2 6.00236 0 2.00079
6 4 10.0039 0 2.00079
7 4 8.00315 2.00079 2.00079
8198 2 8.00315 0 0
8199 2 10.0039 2.00079 0
10 4 12.0047 2.00079 2.00079
8 4 14.0055 2.00079 0
9 4 14.0055 0 2.00079
11 4 16.0063 0 0
12 4 16.0063 2.00079 2.00079
8200 2 14.0055 2.00079 0
8201 2 18.0071 0 2.00079
8203 2 20.0079 2.00079 2.00079
8202 2 22.0087 0 2.00079
13 4 24.0094 0 0
8204 2 24.0094 0 0
8205 2 26.0102 2.00079 0
8206 2 24.0094 2.00079 2.00079
14 4 28.011 0 0
15 4 30.0118 0 2.00079
16 4 28.011 2.00079 2.00079
8207 2 28.011 0 0
8208 2 30.0118 0 2.00079
17 4 32.0126 0 0
18 4 34.0134 2.00079 0
19 4 34.0134 0 2.00079
8209 2 34.0134 2.00079 0
8212 2 36.0142 2.00079 2.00079
20 4 38.015 2.00079 0
21 4 38.015 0 2.00079
8210 2 38.015 2.00079 0
8211 2 38.015 0 2.00079
8213 2 40.0157 0 0
8215 2 40.0157 2.00079 2.00079
22 4 42.0165 2.00079 0
8214 2 42.0165 0 2.00079
23 4 44.0173 0 0
24 4 46.0181 2.00079 0
8216 2 46.0181 2.00079 0
8217 2 44.0173 2.00079 2.00079
25 4 50.0197 2.00079 0
8218 2 48.0189 0 0
8219 2 50.0197 2.00079 0
8220 2 48.0189 2.00079 2.00079
8221 2 52.0205 0 0
8223 2 52.0205 2.00079 2.00079
26 4 54.0213 2.00079 0
27 4 56.022 0 0
29 4 56.022 2.00079 2.00079
8222 2 54.0213 0 2.00079
28 4 58.0228 0 2.00079
30 4 60.0236 0 0
8224 2 58.0228 0 2.00079
8225 2 60.0236 0 0
31 4 62.0244 2.00079 0
32 4 2.00079 4.00157 2.00079
33 4 0 6.00236 2.00079
8226 2 0 4.00157 0
8227 2 2.00079 6.00236 0
34 4 6.00236 4.00157 2.00079
35 4 4.00157 6.00236 2.00079
8228 2 6.00236 4.00157 2.00079
36 4 8.00315 4.00157 0
37 4 10.0039 6.00236 0
38 4 10.0039 4.00157 2.00079
39 4 8.00315 6.00236 2.00079
8229 2 8.00315 4.00157 0
8230 2 10.0039 6.00236 0
42 4 12.0047 6.00236 2.00079
40 4 14.0055 6.00236 0
41 4 14.0055 4.00157 2.00079
43 4 16.0063 4.00157 0
45 4 16.0063 6.00236 2.00079
8231 2 16.0063 4.00157 0
44 4 18.0071 6.00236 0
47 4 20.0079 6.00236 2.00079
8232 2 18.0071 4.00157 2.00079
46 4 22.0087 4.00157 2.00079
8233 2 22.0087 6.00236 0
48 4 24.0094 4.00157 0
49 4 26.0102 6.00236 0
50 4 26.0102 4.00157 2.00079
51 4 24.0094 6.00236 2.00079
8234 2 26.0102 6.00236 0
8235 2 26.0102 4.00157 2.00079
52 4 28.011 6.00236 2.00079
8236 2 28.011 4.00157 0
8237 2 28.011 6.00236 2.00079
53 4 32.0126 4.00157 0
56 4 32.0126 6.00236 2.00079
8238 2 32.0126 4.00157 0
54 4 34.0134 6.00236 0
55 4 34.0134 4.00157 2.00079
57 4 36.0142 4.00157 0
59 4 36.0142 6.00236 2.00079
8239 2 34.0134 6.00236 0
8241 2 36.0142 6.00236 2.00079
58 4 38.015 6.00236 0
61 4 40.0157 6.00236 2.00079
8240 2 38.015 4.00157 2.00079
60 4 42.0165 4.00157 2.00079
8242 2 42.0165 4.00157 2.00079
62 4 46.0181 4.00157 2.00079
8243 2 44.0173 4.00157 0
8244 2 46.0181 6.00236 0
63 4 48.0189 4.00157 0
64 4 50.0197 6.00236 0
65 4 50.0197 4.00157 2.00079
8245 2 48.0189 4.00157 0
8246 2 50.0197 4.00157 2.00079
8247 2 52.0205 4.00157 0
8250 2 52.0205 6.00236 2.00079
66 4 54.0213 6.00236 0
67 4 54.0213 4.00157 2.00079
68 4 56.022 4.00157 0
8248 2 54.0213 6.00236 0
8249 2 54.0213 4.00157 2.00079
8251 2 56.022 4.00157 0
69 4 58.0228 6.00236 0
70 4 60.0236 4.00157 0
72 4 60.0236 6.00236 2.00079
8252 2 60.0236 4.00157 0
8255 2 60.0236 6.00236 2.00079
71 4 62.0244 6.00236 0
8253 2 62.0244 6.00236 0
8254 2 62.0244 4.00157 2.00079
73 4 2.00079 8.00315 2.00079
8256 2 2.00079 8.00315 2.00079
8257 2 0 10.0039 2.00079
74 4 6.00236 8.00315 2.00079
75 4 4.00157 10.0039 2.00079
8258 2 4.00157 8.00315 0
8259 2 6.00236 10.0039 0
8260 2 8.00315 8.00315 0
8261 2 10.0039 8.00315 2.00079
8262 2 8.00315 10.0039 2.00079
76 4 12.0047 8.00315 0
8263 2 12.0047 8.00315 0
8264 2 12.0047 10.0039 2.00079
77 4 14.0055 8.00315 2.00079
8265 2 16.0063 8.00315 0
78 4 18.0071 8.00315 2.00079
8266 2 18.0071 10.0039 0
8267 2 18.0071 8.00315 2.00079
8268 2 20.0079 8.00315 0
79 4 22.0087 10.0039 0
80 4 22.0087 8.00315 2.00079
8269 2 22.0087 10.0039 0
8270 2 22.0087 8.00315 2.00079
81 4 24.0094 8.00315 0
82 4 26.0102 8.00315 2.00079
8271 2 26.0102 10.0039 0
8272 2 24.0094 10.0039 2.00079
83 4 28.011 10.0039 2.00079
8273 2 28.011 10.0039 2.00079
8274 2 32.0126 8.00315 0
8276 2 32.0126 10.0039 2.00079
84 4 34.0134 8.00315 2.00079
86 4 36.0142 10.0039 2.00079
8275 2 34.0134 10.0039 0
8277 2 36.0142 8.00315 0
8280 2 36.0142 10.0039 2.00079
85 4 38.015 10.0039 0
88 4 40.0157 10.0039 2.00079
8278 2 38.015 10.0039 0
8279 2 38.015 8.00315 2.00079
8281 2 40.0157 8.00315 0
87 4 42.0165 8.00315 2.00079
8282 2 42.0165 10.0039 0
8283 2 42.0165 8.00315 2.00079
89 4 46.0181 8.00315 2.00079
90 4 44.0173 10.0039 2.00079
8284 2 46.0181 10.0039 0
91 4 50.0197 10.0039 0
92 4 48.0189 10.0039 2.00079
8285 2 48.0189 8.00315 0
93 4 52.0205 10.0039 2.00079
8288 2 52.0205 10.0039 2.00079
94 4 56.022 8.00315 0
8286 2 54.0213 10.0039 0
8287 2 54.0213 8.00315 2.00079
8289 2 56.022 8.00315 0
8291 2 56.022 10.0039 2.00079
95 4 60.0236 8.00315 0
97 4 60.0236 10.0039 2.00079
8290 2 58.0228 10.0039 0
8292 2 60.0236 8.00315 0
8294 2 60.0236 10.0039 2.00079
96 4 62.0244 10.0039 0
8293 2 62.0244 10.0039 0
99 4 2.00079 12.0047 2.00079
8295 2 0 12.0047 0
101 4 4.00157 12.0047 0
103 4 6.00236 12.0047 2.00079
8296 2 4.00157 12.0047 0
8298 2 6.00236 12.0047 2.00079
104 4 8.00315 12.0047 0
105 4 10.0039 12.0047 2.00079
8299 2 8.00315 12.0047 0
8301 2 12.0047 12.0047 0
107 4 14.0055 12.0047 2.00079
108 4 20.0079 12.0047 0
8305 2 18.0071 12.0047 2.00079
110 4 22.0087 12.0047 2.00079
111 4 24.0094 12.0047 0
112 4 26.0102 12.0047 2.00079
114 4 28.011 12.0047 0
116 4 30.0118 12.0047 2.00079
8309 2 28.011 12.0047 0
8310 2 30.0118 12.0047 2.00079
8312 2 32.0126 12.0047 0
119 4 36.0142 12.0047 0
8314 2 36.0142 12.0047 0
121 4 38.015 12.0047 2.00079
123 4 40.0157 12.0047 0
8315 2 38.015 12.0047 2.00079
8316 2 40.0157 12.0047 0
124 4 42.0165 12.0047 2.00079
8317 2 44.0173 12.0047 0
126 4 50.0197 12.0047 2.00079
128 4 52.0205 12.0047 0
129 4 54.0213 12.0047 2.00079
130 4 56.022 12.0047 0
8319 2 54.0213 12.0047 2.00079
8321 2 56.022 12.0047 0
8323 2 60.0236 12.0047 0
98 4 2.00079 14.0055 0
100 4 0 14.0055 2.00079
8327 2 2.00079 16.0063 2.00079
102 4 6.00236 14.0055 0
8297 2 6.00236 14.0055 0
8329 2 4.00157 16.0063 0
8331 2 6.00236 16.0063 2.00079
134 4 10.0039 16.0063 2.00079
8300 2 10.0039 14.0055 0
8333 2 8.00315 16.0063 0
8303 2 12.0047 14.0055 2.00079
106 4 14.0055 14.0055 0
8302 2 14.0055 14.0055 0
137 4 20.0079 16.0063 0
8304 2 18.0071 14.0055 0
8338 2 18.0071 16.0063 2.00079
8340 2 20.0079 16.0063 0
109 4 22.0087 14.0055 0
8306 2 22.0087 14.0055 0
8341 2 22.0087 16.0063 2.00079
113 4 24.0094 14.0055 2.00079
139 4 24.0094 16.0063 0
8307 2 26.0102 14.0055 0
8308 2 24.0094 14.0055 2.00079
8344 2 26.0102 16.0063 2.00079
115 4 30.0118 14.0055 0
117 4 28.011 14.0055 2.00079
8311 2 28.011 14.0055 2.00079
118 4 32.0126 14.0055 2.00079
122 4 36.0142 14.0055 2.00079
143 4 34.0134 16.0063 2.00079
8313 2 34.0134 14.0055 0
120 4 38.015 14.0055 0
146 4 38.015 16.0063 2.00079
148 4 40.0157 16.0063 0
8349 2 38.015 16.0063 2.00079
8318 2 44.0173 14.0055 2.00079
8353 2 44.0173 16.0063 0
8354 2 46.0181 16.0063 2.00079
125 4 50.0197 14.0055 0
127 4 48.0189 14.0055 2.00079
152 4 48.0189 16.0063 0
8356 2 48.0189 16.0063 0
8357 2 50.0197 16.0063 2.00079
155 4 52.0205 16.0063 0
8320 2 52.0205 14.0055 2.00079
156 4 54.0213 16.0063 2.00079
158 4 56.022 16.0063 0
8322 2 56.022 14.0055 2.00079
8359 2 54.0213 16.0063 2.00079
8325 2 60.0236 14.0055 2.00079
8362 2 60.0236 16.0063 0
131 4 62.0244 14.0055 0
8324 2 62.0244 14.0055 0
8364 2 62.0244 16.0063 2.00079
132 4 2.00079 18.0071 0
160 4 0 20.0079 0
162 4 2.00079 20.0079 2.00079
8326 2 2.00079 18.0071 0
8328 2 0 18.0071 2.00079
8366 2 0 20.0079 0
8368 2 2.00079 20.0079 2.00079
133 4 6.00236 18.0071 0
164 4 4.00157 20.0079 0
165 4 6.00236 20.0079 2.00079
8330 2 6.00236 18.0071 0
8332 2 4.00157 18.0071 2.00079
8370 2 4.00157 20.0079 0
8372 2 6.00236 20.0079 2.00079
167 4 10.0039 20.0079 2.00079
8334 2 10.0039 18.0071 0
8335 2 8.00315 18.0071 2.00079
8374 2 8.00315 20.0079 0
135 4 12.0047 18.0071 2.00079
136 4 16.0063 18.0071 2.00079
169 4 14.0055 20.0079 2.00079
171 4 16.0063 20.0079 0
8336 2 14.0055 18.0071 0
8339 2 16.0063 18.0071 2.00079
8377 2 14.0055 20.0079 2.00079
8378 2 16.0063 20.0079 0
173 4 18.0071 20.0079 2.00079
175 4 20.0079 20.0079 0
8337 2 18.0071 18.0071 0
8342 2 20.0079 18.0071 2.00079
8380 2 18.0071 20.0079 2.00079
138 4 22.0087 18.0071 0
8383 2 22.0087 20.0079 2.00079
140 4 26.0102 18.0071 0
177 4 24.0094 20.0079 0
8343 2 26.0102 18.0071 0
8345 2 24.0094 18.0071 2.00079
8385 2 26.0102 20.0079 2.00079
141 4 30.0118 18.0071 0
142 4 28.011 18.0071 2.00079
8346 2 28.011 18.0071 2.00079
8386 2 28.011 20.0079 0
144 4 32.0126 18.0071 2.00079
8348 2 32.0126 18.0071 2.00079
147 4 36.0142 18.0071 2.00079
180 4 36.0142 20.0079 0
8347 2 34.0134 18.0071 0
8350 2 36.0142 18.0071 2.00079
145 4 38.015 18.0071 0
150 4 40.0157 18.0071 2.00079
183 4 40.0157 20.0079 0
8352 2 40.0157 18.0071 2.00079
8390 2 38.015 20.0079 2.00079
8391 2 40.0157 20.0079 0
149 4 42.0165 18.0071 0
8351 2 42.0165 18.0071 0
8393 2 42.0165 20.0079 2.00079
151 4 46.0181 18.0071 0
184 4 44.0173 20.0079 0
8355 2 44.0173 18.0071 2.00079
153 4 50.0197 18.0071 0
154 4 48.0189 18.0071 2.00079
186 4 50.0197 20.0079 2.00079
8358 2 48.0189 18.0071 2.00079
8395 2 48.0189 20.0079 0
8396 2 50.0197 20.0079 2.00079
157 4 52.0205 18.0071 2.00079
8360 2 52.0205 18.0071 2.00079
8398 2 52.0205 20.0079 0
188 4 54.0213 20.0079 2.00079
8399 2 54.0213 20.0079 2.00079
8401 2 56.022 20.0079 0
159 4 60.0236 18.0071 2.00079
8361 2 58.0228 18.0071 0
8365 2 60.0236 18.0071 2.00079
192 4 62.0244 20.0079 2.00079
8363 2 62.0244 18.0071 0
161 4 2.00079 22.0087 0
163 4 0 22.0087 2.00079
8367 2 2.00079 22.0087 0
8369 2 0 22.0087 2.00079
8371 2 6.00236 22.0087 0
8373 2 4.00157 22.0087 2.00079
166 4 10.0039 22.0087 0
168 4 8.00315 22.0087 2.00079
8375 2 10.0039 22.0087 0
170 4 12.0047 22.0087 2.00079
174 4 16.0063 22.0087 2.00079
8376 2 14.0055 22.0087 0
8381 2 16.0063 22.0087 2.00079
172 4 18.0071 22.0087 0
176 4 20.0079 22.0087 2.00079
8379 2 18.0071 22.0087 0
8382 2 22.0087 22.0087 0
178 4 26.0102 22.0087 0
8384 2 26.0102 22.0087 0
179 4 30.0118 22.0087 0
8387 2 30.0118 22.0087 0
8388 2 32.0126 22.0087 2.00079
182 4 36.0142 22.0087 2.00079
181 4 38.015 22.0087 0
8389 2 38.015 22.0087 0
8392 2 42.0165 22.0087 0
185 4 44.0173 22.0087 2.00079
8394 2 44.0173 22.0087 2.00079
8397 2 48.0189 22.0087 2.00079
189 4 52.0205 22.0087 2.00079
8400 2 52.0205 22.0087 2.00079
187 4 54.0213 22.0087 0
190 4 58.0228 22.0087 0
8402 2 58.0228 22.0087 0
191 4 62.0244 22.0087 0
8403 2 62.0244 22.0087 0
193 4 2.00079 26.0102 0
194 4 2.00079 24.0094 2.00079
195 4 0 26.0102 2.00079
196 4 4.00157 24.0094 0
197 4 6.00236 26.0102 0
8404 2 4.00157 24.0094 0
8405 2 4.00157 26.0102 2.00079
198 4 8.00315 24.0094 0
199 4 10.0039 26.0102 0
200 4 10.0039 24.0094 2.00079
201 4 8.00315 26.0102 2.00079
8406 2 8.00315 24.0094 0
8407 2 10.0039 26.0102 0
202 4 12.0047 24.0094 0
8408 2 12.0047 24.0094 0
8409 2 12.0047 26.0102 2.00079
203 4 14.0055 26.0102 0
204 4 14.0055 24.0094 2.00079
8410 2 16.0063 24.0094 0
8412 2 16.0063 26.0102 2.00079
205 4 18.0071 26.0102 0
206 4 18.0071 24.0094 2.00079
208 4 20.0079 26.0102 2.00079
8411 2 18.0071 26.0102 0
8413 2 20.0079 24.0094 0
207 4 22.0087 26.0102 0
8414 2 22.0087 24.0094 2.00079
209 4 24.0094 24.0094 0
210 4 26.0102 26.0102 0
8415 2 26.0102 26.0102 0
8416 2 26.0102 24.0094 2.00079
211 4 30.0118 26.0102 0
8417 2 28.011 24.0094 0
8418 2 30.0118 24.0094 2.00079
212 4 32.0126 24.0094 0
215 4 32.0126 26.0102 2.00079
8419 2 32.0126 24.0094 0
213 4 34.0134 26.0102 0
214 4 34.0134 24.0094 2.00079
8420 2 34.0134 24.0094 2.00079
8421 2 36.0142 24.0094 0
216 4 38.015 26.0102 0
217 4 38.015 24.0094 2.00079
218 4 40.0157 24.0094 0
8422 2 38.015 26.0102 0
8423 2 38.015 24.0094 2.00079
8424 2 40.0157 24.0094 0
219 4 42.0165 24.0094 2.00079
8425 2 42.0165 26.0102 0
220 4 44.0173 24.0094 0
221 4 46.0181 26.0102 0
8426 2 46.0181 26.0102 0
8427 2 44.0173 26.0102 2.00079
222 4 50.0197 26.0102 0
223 4 50.0197 24.0094 2.00079
8428 2 48.0189 26.0102 2.00079
224 4 52.0205 24.0094 0
225 4 52.0205 26.0102 2.00079
226 4 56.022 24.0094 0
228 4 56.022 26.0102 2.00079
8429 2 54.0213 24.0094 2.00079
227 4 58.0228 26.0102 0
8430 2 58.0228 26.0102 0
229 4 62.0244 26.0102 0
230 4 0 28.011 0
231 4 2.00079 30.0118 0
232 4 2.00079 28.011 2.00079
233 4 0 30.0118 2.00079
8431 2 0 28.011 0
8432 2 2.00079 30.0118 0
8433 2 2.00079 28.011 2.00079
8434 2 0 30.0118 2.00079
234 4 6.00236 30.0118 0
235 4 6.00236 28.011 2.00079
236 4 4.00157 30.0118 2.00079
8435 2 6.00236 30.0118 0
8436 2 6.00236 28.011 2.00079
237 4 10.0039 28.011 2.00079
238 4 8.00315 30.0118 2.00079
8437 2 8.00315 28.011 0
8438 2 10.0039 30.0118 0
8439 2 10.0039 28.011 2.00079
8440 2 8.00315 30.0118 2.00079
239 4 12.0047 28.011 0
241 4 12.0047 30.0118 2.00079
240 4 14.0055 28.011 2.00079
244 4 16.0063 30.0118 2.00079
242 4 18.0071 30.0118 0
243 4 18.0071 28.011 2.00079
8441 2 18.0071 28.011 2.00079
8442 2 22.0087 30.0118 0
8443 2 22.0087 28.011 2.00079
245 4 24.0094 28.011 0
246 4 26.0102 28.011 2.00079
8444 2 26.0102 30.0118 0
8445 2 26.0102 28.011 2.00079
247 4 30.0118 30.0118 0
248 4 30.0118 28.011 2.00079
249 4 28.011 30.0118 2.00079
8446 2 28.011 28.011 0
250 4 32.0126 30.0118 2.00079
8447 2 32.0126 28.011 0
251 4 36.0142 28.011 0
8448 2 34.0134 30.0118 0
8449 2 36.0142 28.011 0
252 4 40.0157 28.011 0
8450 2 38.015 28.011 2.00079
8451 2 40.0157 28.011 0
253 4 42.0165 28.011 2.00079
8452 2 42.0165 30.0118 0
8453 2 42.0165 28.011 2.00079
254 4 46.0181 30.0118 0
8454 2 44.0173 28.011 0
8455 2 44.0173 30.0118 2.00079
255 4 50.0197 30.0118 0
256 4 50.0197 28.011 2.00079
8456 2 48.0189 28.011 0
8457 2 50.0197 30.0118 0
8458 2 48.0189 30.0118 2.00079
257 4 52.0205 30.0118 2.00079
8459 2 54.0213 30.0118 0
8461 2 56.022 30.0118 2.00079
258 4 58.0228 30.0118 0
8460 2 58.0228 30.0118 0
259 4 62.0244 28.011 2.00079
8462 2 62.0244 30.0118 0
260 4 0 32.0126 0
8464 2 2.00079 32.0126 2.00079
263 4 4.00157 32.0126 0
265 4 6.00236 32.0126 2.00079
8466 2 4.00157 32.0126 0
267 4 8.00315 32.0126 0
268 4 10.0039 32.0126 2.00079
8467 2 8.00315 32.0126 0
8469 2 10.0039 32.0126 2.00079
269 4 12.0047 32.0126 0
8470 2 12.0047 32.0126 0
8471 2 18.0071 32.0126 2.00079
274 4 22.0087 32.0126 2.00079
276 4 26.0102 32.0126 2.00079
8474 2 24.0094 32.0126 0
278 4 28.011 32.0126 0
280 4 32.0126 32.0126 0
8475 2 32.0126 32.0126 0
281 4 34.0134 32.0126 2.00079
282 4 36.0142 32.0126 0
8477 2 34.0134 32.0126 2.00079
8478 2 36.0142 32.0126 0
284 4 38.015 32.0126 2.00079
8480 2 40.0157 32.0126 0
8482 2 42.0165 32.0126 2.00079
286 4 44.0173 32.0126 0
8484 2 46.0181 32.0126 2.00079
289 4 50.0197 32.0126 2.00079
8487 2 50.0197 32.0126 2.00079
8489 2 54.0213 32.0126 2.00079
8491 2 56.022 32.0126 0
291 4 58.0228 32.0126 2.00079
292 4 62.0244 32.0126 2.00079
8493 2 62.0244 32.0126 2.00079
261 4 2.00079 34.0134 0
262 4 0 34.0134 2.00079
8463 2 2.00079 34.0134 0
8465 2 0 34.0134 2.00079
8495 2 0 36.0142 0
264 4 6.00236 34.0134 0
266 4 4.00157 34.0134 2.00079
295 4 4.00157 36.0142 0
8498 2 6.00236 36.0142 2.00079
297 4 10.0039 36.0142 2.00079
8468 2 10.0039 34.0134 0
8499 2 8.00315 36.0142 0
271 4 12.0047 34.0134 2.00079
270 4 14.0055 34.0134 0
272 4 16.0063 34.0134 2.00079
299 4 14.0055 36.0142 2.00079
301 4 16.0063 36.0142 0
8472 2 16.0063 34.0134 2.00079
8502 2 14.0055 36.0142 2.00079
8504 2 16.0063 36.0142 0
275 4 20.0079 34.0134 2.00079
302 4 18.0071 36.0142 2.00079
8506 2 18.0071 36.0142 2.00079
8508 2 20.0079 36.0142 0
273 4 22.0087 34.0134 0
8473 2 22.0087 34.0134 0
277 4 24.0094 34.0134 2.00079
306 4 26.0102 36.0142 2.00079
8510 2 24.0094 36.0142 0
279 4 28.011 34.0134 2.00079
8513 2 28.011 36.0142 0
308 4 32.0126 36.0142 0
8476 2 34.0134 34.0134 0
8515 2 34.0134 36.0142 2.00079
283 4 38.015 34.0134 0
285 4 40.0157 34.0134 2.00079
8479 2 38.015 34.0134 0
8483 2 40.0157 34.0134 2.00079
8519 2 40.0157 36.0142 0
311 4 42.0165 36.0142 2.00079
8481 2 42.0165 34.0134 0
8520 2 42.0165 36.0142 2.00079
287 4 46.0181 34.0134 0
8485 2 44.0173 34.0134 2.00079
288 4 50.0197 34.0134 0
290 4 48.0189 34.0134 2.00079
314 4 48.0189 36.0142 0
8486 2 50.0197 34.0134 0
8523 2 48.0189 36.0142 0
316 4 52.0205 36.0142 0
8490 2 52.0205 34.0134 2.00079
318 4 54.0213 36.0142 2.00079
320 4 56.022 36.0142 0
8488 2 54.0213 34.0134 0
8525 2 56.022 36.0142 0
293 4 60.0236 34.0134 2.00079
8492 2 58.0228 34.0134 0
8494 2 60.0236 34.0134 2.00079
8526 2 58.0228 36.0142 2.00079
294 4 2.00079 38.015 0
323 4 2.00079 40.0157 2.00079
8496 2 2.00079 38.015 0
8528 2 0 40.0157 0
296 4 6.00236 38.015 0
324 4 4.00157 40.0157 0
325 4 6.00236 40.0157 2.00079
8497 2 6.00236 38.015 0
326 4 10.0039 40.0157 2.00079
8500 2 8.00315 38.015 2.00079
8532 2 8.00315 40.0157 0
300 4 12.0047 38.015 2.00079
8503 2 12.0047 38.015 2.00079
298 4 14.0055 38.015 0
328 4 14.0055 40.0157 2.00079
329 4 16.0063 40.0157 0
8501 2 14.0055 38.015 0
8507 2 16.0063 38.015 2.00079
304 4 20.0079 38.015 2.00079
332 4 20.0079 40.0157 0
8505 2 18.0071 38.015 0
8536 2 18.0071 40.0157 2.00079
8537 2 20.0079 40.0157 0
303 4 22.0087 38.015 0
8509 2 22.0087 38.015 0
8538 2 22.0087 40.0157 2.00079
305 4 26.0102 38.015 0
334 4 24.0094 40.0157 0
8511 2 26.0102 38.015 0
8512 2 24.0094 38.015 2.00079
8540 2 24.0094 40.0157 0
8542 2 26.0102 40.0157 2.00079
307 4 30.0118 38.015 0
338 4 30.0118 40.0157 2.00079
8545 2 30.0118 40.0157 2.00079
339 4 32.0126 40.0157 0
8516 2 32.0126 38.015 2.00079
8546 2 32.0126 40.0157 0
309 4 34.0134 38.015 0
341 4 34.0134 40.0157 2.00079
343 4 36.0142 40.0157 0
8514 2 34.0134 38.015 0
8518 2 36.0142 38.015 2.00079
8548 2 34.0134 40.0157 2.00079
312 4 40.0157 38.015 2.00079
345 4 38.015 40.0157 2.00079
346 4 40.0157 40.0157 0
8517 2 38.015 38.015 0
8521 2 40.0157 38.015 2.00079
8550 2 38.015 40.0157 2.00079
310 4 42.0165 38.015 0
8552 2 42.0165 40.0157 2.00079
313 4 46.0181 38.015 0
347 4 44.0173 40.0157 0
8522 2 46.0181 38.015 0
315 4 50.0197 38.015 0
348 4 48.0189 40.0157 0
349 4 50.0197 40.0157 2.00079
319 4 52.0205 38.015 2.00079
8556 2 52.0205 40.0157 0
317 4 54.0213 38.015 0
352 4 56.022 40.0157 0
8524 2 54.0213 38.015 0
8557 2 54.0213 40.0157 2.00079
354 4 58.0228 40.0157 2.00079
321 4 62.0244 38.015 0
8527 2 62.0244 38.015 0
322 4 2.00079 42.0165 0
8529 2 0 42.0165 2.00079
8530 2 6.00236 42.0165 0
8531 2 4.00157 42.0165 2.00079
327 4 8.00315 42.0165 2.00079
8533 2 10.0039 42.0165 0
331 4 16.0063 42.0165 2.00079
8534 2 14.0055 42.0165 0
330 4 18.0071 42.0165 0
8535 2 18.0071 42.0165 0
8539 2 20.0079 42.0165 2.00079
333 4 22.0087 42.0165 0
335 4 26.0102 42.0165 0
336 4 24.0094 42.0165 2.00079
8541 2 26.0102 42.0165 0
8543 2 24.0094 42.0165 2.00079
337 4 30.0118 42.0165 0
8544 2 30.0118 42.0165 0
342 4 32.0126 42.0165 2.00079
8549 2 32.0126 42.0165 2.00079
340 4 34.0134 42.0165 0
8547 2 34.0134 42.0165 0
8551 2 36.0142 42.0165 2.00079
344 4 38.015 42.0165 0
8553 2 40.0157 42.0165 2.00079
350 4 48.0189 42.0165 2.00079
8554 2 50.0197 42.0165 0
8555 2 48.0189 42.0165 2.00079
351 4 54.0213 42.0165 0
353 4 58.0228 42.0165 0
356 4 60.0236 42.0165 2.00079
8558 2 58.0228 42.0165 0
8560 2 60.0236 42.0165 2.00079
355 4 62.0244 42.0165 0
8559 2 62.0244 42.0165 0
357 4 0 44.0173 0
358 4 2.00079 46.0181 0
359 4 2.00079 44.0173 2.00079
360 4 0 46.0181 2.00079
8561 2 0 44.0173 0
8562 2 2.00079 44.0173 2.00079
361 4 4.00157 44.0173 0
362 4 4.00157 46.0181 2.00079
8563 2 4.00157 44.0173 0
8564 2 6.00236 44.0173 2.00079
363 4 8.00315 44.0173 0
364 4 10.0039 44.0173 2.00079
8565 2 8.00315 44.0173 0
8566 2 10.0039 44.0173 2.00079
8567 2 8.00315 46.0181 2.00079
365 4 12.0047 44.0173 0
367 4 12.0047 46.0181 2.00079
366 4 14.0055 44.0173 2.00079
8568 2 14.0055 46.0181 0
8569 2 14.0055 44.0173 2.00079
368 4 18.0071 44.0173 2.00079
371 4 20.0079 46.0181 2.00079
8570 2 18.0071 44.0173 2.00079
8572 2 20.0079 46.0181 2.00079
369 4 22.0087 46.0181 0
370 4 22.0087 44.0173 2.00079
8571 2 22.0087 46.0181 0
372 4 26.0102 44.0173 2.00079
373 4 24.0094 46.0181 2.00079
8573 2 26.0102 44.0173 2.00079
8574 2 24.0094 46.0181 2.00079
374 4 28.011 44.0173 0
375 4 30.0118 46.0181 0
376 4 30.0118 44.0173 2.00079
377 4 28.011 46.0181 2.00079
8575 2 28.011 44.0173 0
8576 2 30.0118 44.0173 2.00079
8577 2 28.011 46.0181 2.00079
378 4 32.0126 44.0173 0
379 4 34.0134 44.0173 2.00079
380 4 36.0142 44.0173 0
8578 2 36.0142 44.0173 0
8579 2 36.0142 46.0181 2.00079
381 4 38.015 44.0173 2.00079
382 4 42.0165 46.0181 0
383 4 42.0165 44.0173 2.00079
8580 2 42.0165 46.0181 0
384 4 46.0181 46.0181 0
385 4 46.0181 44.0173 2.00079
8581 2 46.0181 44.0173 2.00079
386 4 48.0189 46.0181 2.00079
387 4 52.0205 44.0173 0
389 4 52.0205 46.0181 2.00079
388 4 54.0213 46.0181 0
390 4 56.022 44.0173 0
8582 2 54.0213 44.0173 2.00079
8585 2 56.022 46.0181 2.00079
391 4 58.0228 44.0173 2.00079
393 4 60.0236 46.0181 2.00079
8583 2 58.0228 46.0181 0
8584 2 58.0228 44.0173 2.00079
8587 2 60.0236 46.0181 2.00079
392 4 62.0244 46.0181 0
8586 2 62.0244 44.0173 2.00079
394 4 0 50.0197 2.00079
8588 2 2.00079 50.0197 0
8589 2 0 50.0197 2.00079
395 4 4.00157 48.0189 0
396 4 4.00157 50.0197 2.00079
8590 2 6.00236 50.0197 0
8591 2 6.00236 48.0189 2.00079
8592 2 4.00157 50.0197 2.00079
397 4 8.00315 48.0189 0
398 4 10.0039 50.0197 0
399 4 10.0039 48.0189 2.00079
400 4 8.00315 50.0197 2.00079
8593 2 8.00315 48.0189 0
8594 2 10.0039 50.0197 0
8595 2 10.0039 48.0189 2.00079
401 4 14.0055 48.0189 2.00079
402 4 16.0063 48.0189 0
404 4 16.0063 50.0197 2.00079
8596 2 14.0055 50.0197 0
403 4 18.0071 50.0197 0
405 4 20.0079 50.0197 2.00079
8597 2 18.0071 48.0189 2.00079
8598 2 20.0079 48.0189 0
8599 2 22.0087 48.0189 2.00079
406 4 24.0094 48.0189 0
8600 2 24.0094 48.0189 0
8601 2 26.0102 48.0189 2.00079
407 4 28.011 48.0189 0
8602 2 28.011 48.0189 0
8603 2 28.011 50.0197 2.00079
8606 2 32.0126 50.0197 2.00079
409 4 36.0142 50.0197 2.00079
8604 2 34.0134 50.0197 0
8605 2 34.0134 48.0189 2.00079
8607 2 36.0142 48.0189 0
8609 2 36.0142 50.0197 2.00079
408 4 38.015 48.0189 2.00079
410 4 40.0157 48.0189 0
8608 2 38.015 48.0189 2.00079
8610 2 40.0157 48.0189 0
8613 2 40.0157 50.0197 2.00079
411 4 42.0165 50.0197 0
412 4 42.0165 48.0189 2.00079
8611 2 42.0165 50.0197 0
8612 2 42.0165 48.0189 2.00079
413 4 44.0173 48.0189 0
414 4 46.0181 50.0197 0
415 4 46.0181 48.0189 2.00079
8614 2 44.0173 48.0189 0
8615 2 46.0181 48.0189 2.00079
416 4 50.0197 50.0197 0
417 4 48.0189 50.0197 2.00079
8616 2 48.0189 48.0189 0
8617 2 50.0197 48.0189 2.00079
418 4 52.0205 48.0189 0
8618 2 52.0205 48.0189 0
8620 2 52.0205 50.0197 2.00079
419 4 54.0213 48.0189 2.00079
420 4 56.022 48.0189 0
8619 2 54.0213 50.0197 0
8621 2 56.022 50.0197 2.00079
421 4 58.0228 50.0197 0
422 4 60.0236 48.0189 0
424 4 60.0236 50.0197 2.00079
8622 2 60.0236 48.0189 0
423 4 62.0244 50.0197 0
8623 2 0 52.0205 0
8624 2 2.00079 52.0205 2.00079
426 4 4.00157 52.0205 0
8625 2 6.00236 52.0205 2.00079
8627 2 8.00315 52.0205 0
8628 2 10.0039 52.0205 2.00079
429 4 12.0047 52.0205 0
432 4 16.0063 52.0205 0
8631 2 14.0055 52.0205 2.00079
435 4 20.0079 52.0205 0
8635 2 22.0087 52.0205 2.00079
436 4 24.0094 52.0205 0
438 4 26.0102 52.0205 2.00079
8636 2 24.0094 52.0205 0
440 4 30.0118 52.0205 2.00079
8638 2 30.0118 52.0205 2.00079
441 4 32.0126 52.0205 0
443 4 38.015 52.0205 2.00079
445 4 40.0157 52.0205 0
8641 2 38.015 52.0205 2.00079
448 4 44.0173 52.0205 0
449 4 46.0181 52.0205 2.00079
8644 2 44.0173 52.0205 0
450 4 48.0189 52.0205 0
452 4 50.0197 52.0205 2.00079
8647 2 50.0197 52.0205 2.00079
454 4 52.0205 52.0205 0
8649 2 52.0205 52.0205 0
456 4 54.0213 52.0205 2.00079
8651 2 54.0213 52.0205 2.00079
8652 2 56.022 52.0205 0
457 4 58.0228 52.0205 2.00079
459 4 60.0236 52.0205 0
8655 2 60.0236 52.0205 0
460 4 62.0244 52.0205 2.00079
8657 2 62.0244 52.0205 2.00079
425 4 0 54.0213 2.00079
8658 2 0 56.022 0
8660 2 2.00079 56.022 2.00079
427 4 4.00157 54.0213 2.00079
8626 2 4.00157 54.0213 2.00079
428 4 10.0039 54.0213 0
463 4 10.0039 56.022 2.00079
8629 2 8.00315 54.0213 2.00079
8662 2 8.00315 56.022 0
431 4 12.0047 54.0213 2.00079
464 4 12.0047 56.022 0
8632 2 12.0047 54.0213 2.00079
8665 2 12.0047 56.022 0
430 4 14.0055 54.0213 0
434 4 16.0063 54.0213 2.00079
465 4 16.0063 56.022 0
8630 2 14.0055 54.0213 0
8634 2 16.0063 54.0213 2.00079
8667 2 14.0055 56.022 2.00079
8668 2 16.0063 56.022 0
433 4 18.0071 54.0213 0
467 4 20.0079 56.022 0
8633 2 18.0071 54.0213 0
8669 2 20.0079 56.022 0
468 4 22.0087 56.022 2.00079
437 4 26.0102 54.0213 0
470 4 26.0102 56.022 2.00079
8637 2 26.0102 54.0213 0
8671 2 24.0094 56.022 0
439 4 30.0118 54.0213 0
471 4 28.011 56.022 0
473 4 30.0118 56.022 2.00079
8639 2 28.011 54.0213 2.00079
8673 2 30.0118 56.022 2.00079
8640 2 32.0126 54.0213 2.00079
8674 2 32.0126 56.022 0
444 4 36.0142 54.0213 2.00079
475 4 34.0134 56.022 2.00079
8676 2 36.0142 56.022 0
442 4 38.015 54.0213 0
447 4 40.0157 54.0213 2.00079
477 4 38.015 56.022 2.00079
478 4 40.0157 56.022 0
8643 2 40.0157 54.0213 2.00079
8677 2 38.015 56.022 2.00079
446 4 42.0165 54.0213 0
479 4 42.0165 56.022 2.00079
8642 2 42.0165 54.0213 0
8680 2 42.0165 56.022 2.00079
481 4 46.0181 56.022 2.00079
8645 2 46.0181 54.0213 0
8646 2 44.0173 54.0213 2.00079
451 4 50.0197 54.0213 0
453 4 48.0189 54.0213 2.00079
483 4 48.0189 56.022 0
484 4 50.0197 56.022 2.00079
8648 2 48.0189 54.0213 2.00079
8684 2 52.0205 56.022 0
455 4 54.0213 54.0213 0
458 4 56.022 54.0213 2.00079
8650 2 54.0213 54.0213 0
8654 2 56.022 54.0213 2.00079
8687 2 56.022 56.022 0
488 4 58.0228 56.022 2.00079
489 4 60.0236 56.022 0
8653 2 58.0228 54.0213 0
491 4 62.0244 56.022 2.00079
8656 2 62.0244 54.0213 0
8659 2 2.00079 58.0228 0
8689 2 0 60.0236 0
461 4 6.00236 58.0228 0
493 4 4.00157 60.0236 0
8661 2 4.00157 58.0228 2.00079
8692 2 4.00157 60.0236 0
8693 2 6.00236 60.0236 2.00079
462 4 10.0039 58.0228 0
496 4 8.00315 60.0236 0
497 4 10.0039 60.0236 2.00079
8663 2 10.0039 58.0228 0
8664 2 8.00315 58.0228 2.00079
8697 2 12.0047 60.0236 0
466 4 16.0063 58.0228 2.00079
8666 2 14.0055 58.0228 0
8698 2 14.0055 60.0236 2.00079
8699 2 16.0063 60.0236 0
469 4 20.0079 58.0228 2.00079
8701 2 18.0071 60.0236 2.00079
8703 2 20.0079 60.0236 0
500 4 22.0087 60.0236 2.00079
8670 2 22.0087 58.0228 0
502 4 24.0094 60.0236 0
8672 2 24.0094 58.0228 2.00079
8705 2 26.0102 60.0236 2.00079
472 4 30.0118 58.0228 0
474 4 28.011 58.0228 2.00079
503 4 28.011 60.0236 0
505 4 30.0118 60.0236 2.00079
8707 2 28.011 60.0236 0
8708 2 30.0118 60.0236 2.00079
507 4 34.0134 60.0236 2.00079
509 4 36.0142 60.0236 0
8675 2 34.0134 58.0228 0
8678 2 36.0142 58.0228 2.00079
8712 2 36.0142 60.0236 0
476 4 38.015 58.0228 0
511 4 38.015 60.0236 2.00079
512 4 40.0157 60.0236 0
8681 2 40.0157 58.0228 2.00079
8713 2 38.015 60.0236 2.00079
8715 2 40.0157 60.0236 0
8679 2 42.0165 58.0228 0
8717 2 42.0165 60.0236 2.00079
480 4 46.0181 58.0228 0
482 4 44.0173 58.0228 2.00079
513 4 44.0173 60.0236 0
514 4 46.0181 60.0236 2.00079
8682 2 44.0173 58.0228 2.00079
8719 2 44.0173 60.0236 0
515 4 50.0197 60.0236 2.00079
8683 2 48.0189 58.0228 2.00079
8721 2 50.0197 60.0236 2.00079
486 4 52.0205 58.0228 2.00079
517 4 52.0205 60.0236 0
8686 2 52.0205 58.0228 2.00079
8722 2 52.0205 60.0236 0
485 4 54.0213 58.0228 0
518 4 54.0213 60.0236 2.00079
8685 2 54.0213 58.0228 0
8724 2 54.0213 60.0236 2.00079
487 4 58.0228 58.0228 0
8688 2 58.0228 58.0228 0
8727 2 58.0228 60.0236 2.00079
490 4 62.0244 58.0228 0
521 4 62.0244 60.0236 2.00079
8729 2 62.0244 60.0236 2.00079
492 4 2.00079 62.0244 0
8690 2 2.00079 62.0244 0
8691 2 0 62.0244 2.00079
494 4 6.00236 62.0244 0
495 4 4.00157 62.0244 2.00079
8694 2 4.00157 62.0244 2.00079
8695 2 10.0039 62.0244 0
8696 2 8.00315 62.0244 2.00079
498 4 14.0055 62.0244 0
8702 2 16.0063 62.0244 2.00079
501 4 20.0079 62.0244 2.00079
8700 2 18.0071 62.0244 0
499 4 22.0087 62.0244 0
8704 2 26.0102 62.0244 0
8706 2 24.0094 62.0244 2.00079
504 4 30.0118 62.0244 0
8709 2 28.011 62.0244 2.00079
508 4 32.0126 62.0244 2.00079
8711 2 32.0126 62.0244 2.00079
506 4 34.0134 62.0244 0
8710 2 34.0134 62.0244 0
8714 2 36.0142 62.0244 2.00079
510 4 38.015 62.0244 0
8718 2 40.0157 62.0244 2.00079
8716 2 42.0165 62.0244 0
8720 2 46.0181 62.0244 0
516 4 48.0189 62.0244 2.00079
519 4 52.0205 62.0244 2.00079
8725 2 52.0205 62.0244 2.00079
8723 2 54.0213 62.0244 0
8726 2 58.0228 62.0244 0
520 4 62.0244 62.0244 0
8728 2 62.0244 62.0244 0
8730 2 2.00079 2.00079 4.00157
8731 2 0 2.00079 6.00236
522 4 6.00236 0 6.00236
523 4 4.00157 2.00079 6.00236
8732 2 6.00236 2.00079 4.00157
8733 2 6.00236 0 6.00236
8734 2 4.00157 2.00079 6.00236
524 4 10.0039 0 6.00236
8735 2 8.00315 0 4.00157
8736 2 10.0039 0 6.00236
8737 2 8.00315 2.00079 6.00236
527 4 12.0047 2.00079 6.00236
8739 2 12.0047 2.00079 6.00236
525 4 14.0055 2.00079 4.00157
526 4 14.0055 0 6.00236
528 4 16.0063 0 4.00157
8738 2 14.0055 0 6.00236
8740 2 16.0063 0 4.00157
8741 2 16.0063 2.00079 6.00236
529 4 18.0071 0 6.00236
531 4 20.0079 2.00079 6.00236
8742 2 20.0079 2.00079 6.00236
530 4 22.0087 0 6.00236
532 4 26.0102 2.00079 4.00157
533 4 26.0102 0 6.00236
8743 2 24.0094 0 4.00157
8744 2 26.0102 2.00079 4.00157
8745 2 24.0094 2.00079 6.00236
534 4 28.011 0 4.00157
535 4 28.011 2.00079 6.00236
8746 2 28.011 0 4.00157
8747 2 30.0118 0 6.00236
536 4 32.0126 0 4.00157
539 4 32.0126 2.00079 6.00236
8748 2 32.0126 0 4.00157
8749 2 32.0126 2.00079 6.00236
537 4 34.0134 2.00079 4.00157
538 4 34.0134 0 6.00236
8752 2 36.0142 2.00079 6.00236
540 4 40.0157 0 4.00157
8750 2 38.015 2.00079 4.00157
8751 2 38.015 0 6.00236
8753 2 40.0157 2.00079 6.00236
541 4 44.0173 0 4.00157
542 4 46.0181 2.00079 4.00157
8754 2 46.0181 2.00079 4.00157
8755 2 46.0181 0 6.00236
543 4 50.0197 2.00079 4.00157
544 4 50.0197 0 6.00236
545 4 48.0189 2.00079 6.00236
8756 2 48.0189 2.00079 6.00236
546 4 52.0205 0 4.00157
549 4 52.0205 2.00079 6.00236