ITEM: TIMESTEP
0
ITEM: NUMBER OF ATOMS
16384
ITEM: BOX BOUNDS pp pp pp
0.0000000000000000e+00 3.4472851191561404e+01
0.0000000000000000e+00 3.4472851191561404e+01
0.0000000000000000e+00 3.4472851191561404e+01
ITEM: ATOMS id type x y z
1 4 0 0 0
2 4 1.08583 1.08583 0
3 4 3.25748 1.08583 0
4 4 3.25748 0 1.08583
5 4 2.17165 1.08583 1.08583
32 4 1.08583 2.17165 1.08583
33 4 0 3.25748 1.08583
34 4 3.25748 2.17165 1.08583
35 4 2.17165 3.25748 1.08583
522 4 3.25748 0 3.25748
523 4 2.17165 1.08583 3.25748
553 4 1.08583 3.25748 2.17165
554 4 0 3.25748 3.25748
555 4 3.25748 3.25748 2.17165
556 4 3.25748 2.17165 3.25748
557 4 2.17165 3.25748 3.25748
8193 2 0 0 0
8194 2 1.08583 1.08583 0
8195 2 1.08583 0 1.08583
8196 2 0 1.08583 1.08583
8197 2 3.25748 0 1.08583
8226 2 0 2.17165 0
8227 2 1.08583 3.25748 0
8228 2 3.25748 2.17165 1.08583
8730 2 1.08583 1.08583 2.17165
8731 2 0 1.08583 3.25748
8732 2 3.25748 1.08583 2.17165
8733 2 3.25748 0 3.25748
8734 2 2.17165 1.08583 3.25748
8760 2 2.17165 2.17165 2.17165
8761 2 3.25748 3.25748 2.17165
6 4 5.42913 0 1.08583
7 4 4.34331 1.08583 1.08583
10 4 6.51496 1.08583 1.08583
36 4 4.34331 2.17165 0
37 4 5.42913 3.25748 0
38 4 5.42913 2.17165 1.08583
39 4 4.34331 3.25748 1.08583
42 4 6.51496 3.25748 1.08583
524 4 5.42913 0 3.25748
527 4 6.51496 1.08583 3.25748
558 4 4.34331 2.17165 2.17165
559 4 5.42913 2.17165 3.25748
560 4 4.34331 3.25748 3.25748
561 4 6.51496 2.17165 2.17165
8198 2 4.34331 0 0
8199 2 5.42913 1.08583 0
8229 2 4.34331 2.17165 0
8230 2 5.42913 3.25748 0
8735 2 4.34331 0 2.17165
8736 2 5.42913 0 3.25748
8737 2 4.34331 1.08583 3.25748
8739 2 6.51496 1.08583 3.25748
8762 2 5.42913 3.25748 2.17165
8763 2 5.42913 2.17165 3.25748
8764 2 6.51496 3.25748 3.25748
8 4 7.60079 1.08583 0
9 4 7.60079 0 1.08583
11 4 8.68661 0 0
12 4 8.68661 1.08583 1.08583
40 4 7.60079 3.25748 0
41 4 7.60079 2.17165 1.08583
43 4 8.68661 2.17165 0
44 4 9.77244 3.25748 0
45 4 8.68661 3.25748 1.08583
525 4 7.60079 1.08583 2.17165
526 4 7.60079 0 3.25748
528 4 8.68661 0 2.17165
529 4 9.77244 0 3.25748
562 4 7.60079 3.25748 2.17165
563 4 9.77244 3.25748 2.17165
564 4 9.77244 2.17165 3.25748
8200 2 7.60079 1.08583 0
8201 2 9.77244 0 1.08583
8231 2 8.68661 2.17165 0
8232 2 9.77244 2.17165 1.08583
8738 2 7.60079 0 3.25748
8740 2 8.68661 0 2.17165
8741 2 8.68661 1.08583 3.25748
8765 2 9.77244 3.25748 2.17165
8766 2 9.77244 2.17165 3.25748
8767 2 8.68661 3.25748 3.25748
13 4 13.0299 0 0
46 4 11.9441 2.17165 1.08583
47 4 10.8583 3.25748 1.08583
48 4 13.0299 2.17165 0
51 4 13.0299 3.25748 1.08583
530 4 11.9441 0 3.25748
531 4 10.8583 1.08583 3.25748
565 4 10.8583 2.17165 2.17165
566 4 11.9441 3.25748 2.17165
567 4 11.9441 2.17165 3.25748
568 4 13.0299 2.17165 2.17165
8202 2 11.9441 0 1.08583
8203 2 10.8583 1.08583 1.08583
8204 2 13.0299 0 0
8206 2 13.0299 1.08583 1.08583
8233 2 11.9441 3.25748 0
8742 2 10.8583 1.08583 3.25748
8743 2 13.0299 0 2.17165
8745 2 13.0299 1.08583 3.25748
8768 2 11.9441 3.25748 2.17165
8769 2 10.8583 3.25748 3.25748
8770 2 13.0299 2.17165 2.17165
8772 2 13.0299 3.25748 3.25748
14 4 15.2016 0 0
15 4 16.2874 0 1.08583
16 4 15.2016 1.08583 1.08583
49 4 14.1157 3.25748 0
50 4 14.1157 2.17165 1.08583
52 4 15.2016 3.25748 1.08583
532 4 14.1157 1.08583 2.17165
533 4 14.1157 0 3.25748
534 4 15.2016 0 2.17165
535 4 15.2016 1.08583 3.25748
569 4 14.1157 3.25748 2.17165
570 4 14.1157 2.17165 3.25748
8205 2 14.1157 1.08583 0
8207 2 15.2016 0 0
8208 2 16.2874 0 1.08583
8234 2 14.1157 3.25748 0
8235 2 14.1157 2.17165 1.08583
8236 2 15.2016 2.17165 0
8237 2 15.2016 3.25748 1.08583
8744 2 14.1157 1.08583 2.17165
8746 2 15.2016 0 2.17165
8747 2 16.2874 0 3.25748
8771 2 14.1157 3.25748 2.17165
8773 2 15.2016 2.17165 2.17165
8774 2 16.2874 2.17165 3.25748
8775 2 15.2016 3.25748 3.25748
17 4 17.3732 0 0
18 4 18.4591 1.08583 0
19 4 18.4591 0 1.08583
20 4 20.6307 1.08583 0
21 4 20.6307 0 1.08583
53 4 17.3732 2.17165 0
54 4 18.4591 3.25748 0
55 4 18.4591 2.17165 1.08583
56 4 17.3732 3.25748 1.08583
57 4 19.5449 2.17165 0
58 4 20.6307 3.25748 0
59 4 19.5449 3.25748 1.08583
536 4 17.3732 0 2.17165
537 4 18.4591 1.08583 2.17165
538 4 18.4591 0 3.25748
539 4 17.3732 1.08583 3.25748
571 4 17.3732 2.17165 2.17165
572 4 18.4591 3.25748 2.17165
573 4 18.4591 2.17165 3.25748
574 4 17.3732 3.25748 3.25748
575 4 19.5449 2.17165 2.17165
576 4 20.6307 3.25748 2.17165
577 4 19.5449 3.25748 3.25748
8209 2 18.4591 1.08583 0
8210 2 20.6307 1.08583 0
8211 2 20.6307 0 1.08583
8212 2 19.5449 1.08583 1.08583
8238 2 17.3732 2.17165 0
8239 2 18.4591 3.25748 0
8240 2 20.6307 2.17165 1.08583
8241 2 19.5449 3.25748 1.08583
8748 2 17.3732 0 2.17165
8749 2 17.3732 1.08583 3.25748
8750 2 20.6307 1.08583 2.17165
8751 2 20.6307 0 3.25748
8752 2 19.5449 1.08583 3.25748
8776 2 18.4591 3.25748 2.17165
8777 2 17.3732 3.25748 3.25748
8778 2 19.5449 2.17165 2.17165
22 4 22.8024 1.08583 0
23 4 23.8882 0 0
60 4 22.8024 2.17165 1.08583
61 4 21.7165 3.25748 1.08583
540 4 21.7165 0 2.17165
541 4 23.8882 0 2.17165
578 4 21.7165 3.25748 3.25748
581 4 23.8882 3.25748 3.25748
8213 2 21.7165 0 0
8214 2 22.8024 0 1.08583
8215 2 21.7165 1.08583 1.08583
8217 2 23.8882 1.08583 1.08583
8242 2 22.8024 2.17165 1.08583
8243 2 23.8882 2.17165 0
8753 2 21.7165 1.08583 3.25748
8779 2 22.8024 2.17165 3.25748
8780 2 21.7165 3.25748 3.25748
8782 2 23.8882 3.25748 3.25748
24 4 24.974 1.08583 0
25 4 27.1457 1.08583 0
62 4 24.974 2.17165 1.08583
63 4 26.0598 2.17165 0
64 4 27.1457 3.25748 0
65 4 27.1457 2.17165 1.08583
542 4 24.974 1.08583 2.17165
543 4 27.1457 1.08583 2.17165
544 4 27.1457 0 3.25748
545 4 26.0598 1.08583 3.25748
579 4 24.974 3.25748 2.17165
580 4 24.974 2.17165 3.25748
582 4 27.1457 3.25748 2.17165
8216 2 24.974 1.08583 0
8218 2 26.0598 0 0
8219 2 27.1457 1.08583 0
8220 2 26.0598 1.08583 1.08583
8244 2 24.974 3.25748 0
8245 2 26.0598 2.17165 0
8246 2 27.1457 2.17165 1.08583
8754 2 24.974 1.08583 2.17165
8755 2 24.974 0 3.25748
8756 2 26.0598 1.08583 3.25748
8781 2 24.974 2.17165 3.25748
8783 2 26.0598 2.17165 2.17165
8784 2 27.1457 3.25748 2.17165
8785 2 26.0598 3.25748 3.25748
26 4 29.3173 1.08583 0
27 4 30.4031 0 0
29 4 30.4031 1.08583 1.08583
66 4 29.3173 3.25748 0
67 4 29.3173 2.17165 1.08583
68 4 30.4031 2.17165 0
546 4 28.2315 0 2.17165
547 4 29.3173 1.08583 2.17165
548 4 29.3173 0 3.25748
549 4 28.2315 1.08583 3.25748
550 4 30.4031 1.08583 3.25748
583 4 28.2315 2.17165 2.17165
584 4 29.3173 3.25748 2.17165
8221 2 28.2315 0 0
8222 2 29.3173 0 1.08583
8223 2 28.2315 1.08583 1.08583
8247 2 28.2315 2.17165 0
8248 2 29.3173 3.25748 0
8249 2 29.3173 2.17165 1.08583
8250 2 28.2315 3.25748 1.08583
8251 2 30.4031 2.17165 0
8757 2 28.2315 0 2.17165
8758 2 29.3173 0 3.25748
8786 2 28.2315 3.25748 3.25748
8787 2 30.4031 2.17165 2.17165
28 4 31.489 0 1.08583
30 4 32.5748 0 0
31 4 33.6606 1.08583 0
69 4 31.489 3.25748 0
70 4 32.5748 2.17165 0
71 4 33.6606 3.25748 0
72 4 32.5748 3.25748 1.08583
551 4 32.5748 0 2.17165
552 4 32.5748 1.08583 3.25748
585 4 31.489 2.17165 3.25748
586 4 33.6606 3.25748 2.17165
8224 2 31.489 0 1.08583
8225 2 32.5748 0 0
8252 2 32.5748 2.17165 0
8253 2 33.6606 3.25748 0
8254 2 33.6606 2.17165 1.08583
8255 2 32.5748 3.25748 1.08583
8759 2 33.6606 1.08583 2.17165
8788 2 31.489 2.17165 3.25748
8789 2 33.6606 3.25748 2.17165
73 4 1.08583 4.34331 1.08583
74 4 3.25748 4.34331 1.08583
75 4 2.17165 5.42913 1.08583
99 4 1.08583 6.51496 1.08583
101 4 2.17165 6.51496 0
103 4 3.25748 6.51496 1.08583
587 4 0 4.34331 2.17165
588 4 1.08583 5.42913 2.17165
589 4 1.08583 4.34331 3.25748
590 4 3.25748 5.42913 2.17165
591 4 2.17165 5.42913 3.25748
8256 2 1.08583 4.34331 1.08583
8257 2 0 5.42913 1.08583
8258 2 2.17165 4.34331 0
8259 2 3.25748 5.42913 0
8295 2 0 6.51496 0
8296 2 2.17165 6.51496 0
8298 2 3.25748 6.51496 1.08583
8790 2 0 4.34331 2.17165
8791 2 1.08583 4.34331 3.25748
8792 2 0 5.42913 3.25748
8793 2 2.17165 4.34331 2.17165
8794 2 3.25748 5.42913 2.17165
8795 2 2.17165 5.42913 3.25748
8824 2 0 6.51496 2.17165
8826 2 2.17165 6.51496 2.17165
76 4 6.51496 4.34331 0
104 4 4.34331 6.51496 0
105 4 5.42913 6.51496 1.08583
613 4 4.34331 6.51496 2.17165
8260 2 4.34331 4.34331 0
8261 2 5.42913 4.34331 1.08583
8262 2 4.34331 5.42913 1.08583
8263 2 6.51496 4.34331 0
8264 2 6.51496 5.42913 1.08583
8299 2 4.34331 6.51496 0
8301 2 6.51496 6.51496 0
8796 2 5.42913 4.34331 3.25748
8797 2 4.34331 5.42913 3.25748
8799 2 6.51496 5.42913 3.25748
8827 2 4.34331 6.51496 2.17165
77 4 7.60079 4.34331 1.08583
78 4 9.77244 4.34331 1.08583
107 4 7.60079 6.51496 1.08583
592 4 8.68661 4.34331 2.17165
593 4 9.77244 4.34331 3.25748
8265 2 8.68661 4.34331 0
8266 2 9.77244 5.42913 0
8267 2 9.77244 4.34331 1.08583
8305 2 9.77244 6.51496 1.08583
8798 2 7.60079 5.42913 2.17165
8800 2 8.68661 5.42913 3.25748
8831 2 8.68661 6.51496 2.17165
79 4 11.9441 5.42913 0
80 4 11.9441 4.34331 1.08583
81 4 13.0299 4.34331 0
108 4 10.8583 6.51496 0
110 4 11.9441 6.51496 1.08583
111 4 13.0299 6.51496 0
594 4 10.8583 4.34331 2.17165
595 4 11.9441 5.42913 2.17165
596 4 13.0299 4.34331 2.17165
618 4 10.8583 6.51496 2.17165
619 4 11.9441 6.51496 3.25748
8268 2 10.8583 4.34331 0
8269 2 11.9441 5.42913 0
8270 2 11.9441 4.34331 1.08583
8272 2 13.0299 5.42913 1.08583
8801 2 11.9441 5.42913 2.17165
8802 2 11.9441 4.34331 3.25748
8803 2 13.0299 5.42913 3.25748
82 4 14.1157 4.34331 1.08583
83 4 15.2016 5.42913 1.08583
112 4 14.1157 6.51496 1.08583
114 4 15.2016 6.51496 0
116 4 16.2874 6.51496 1.08583
597 4 14.1157 4.34331 3.25748
598 4 15.2016 4.34331 2.17165
599 4 16.2874 5.42913 2.17165
600 4 16.2874 4.34331 3.25748
8271 2 14.1157 5.42913 0
8273 2 15.2016 5.42913 1.08583
8309 2 15.2016 6.51496 0
8310 2 16.2874 6.51496 1.08583
8804 2 15.2016 4.34331 2.17165
84 4 18.4591 4.34331 1.08583
85 4 20.6307 5.42913 0
86 4 19.5449 5.42913 1.08583
119 4 19.5449 6.51496 0
121 4 20.6307 6.51496 1.08583
601 4 18.4591 5.42913 2.17165
602 4 17.3732 5.42913 3.25748
603 4 19.5449 4.34331 2.17165
623 4 17.3732 6.51496 2.17165
626 4 19.5449 6.51496 2.17165
627 4 20.6307 6.51496 3.25748
8274 2 17.3732 4.34331 0
8275 2 18.4591 5.42913 0
8276 2 17.3732 5.42913 1.08583
8277 2 19.5449 4.34331 0
8278 2 20.6307 5.42913 0
8279 2 20.6307 4.34331 1.08583
8280 2 19.5449 5.42913 1.08583
8312 2 17.3732 6.51496 0
8314 2 19.5449 6.51496 0
8315 2 20.6307 6.51496 1.08583
8805 2 18.4591 5.42913 2.17165
8806 2 18.4591 4.34331 3.25748
8807 2 17.3732 5.42913 3.25748
8808 2 19.5449 5.42913 3.25748
8835 2 17.3732 6.51496 2.17165
87 4 22.8024 4.34331 1.08583
88 4 21.7165 5.42913 1.08583
90 4 23.8882 5.42913 1.08583
123 4 21.7165 6.51496 0
124 4 22.8024 6.51496 1.08583
604 4 23.8882 4.34331 2.17165
628 4 21.7165 6.51496 2.17165
8281 2 21.7165 4.34331 0
8282 2 22.8024 5.42913 0
8283 2 22.8024 4.34331 1.08583
8316 2 21.7165 6.51496 0
8317 2 23.8882 6.51496 0
8809 2 22.8024 5.42913 2.17165
8810 2 22.8024 4.34331 3.25748
8811 2 21.7165 5.42913 3.25748
8812 2 23.8882 4.34331 2.17165
8815 2 23.8882 5.42913 3.25748
8839 2 21.7165 6.51496 2.17165
8841 2 22.8024 6.51496 3.25748
89 4 24.974 4.34331 1.08583
91 4 27.1457 5.42913 0
92 4 26.0598 5.42913 1.08583
126 4 27.1457 6.51496 1.08583
605 4 26.0598 5.42913 3.25748
631 4 24.974 6.51496 3.25748
633 4 26.0598 6.51496 2.17165
8284 2 24.974 5.42913 0
8285 2 26.0598 4.34331 0
8813 2 24.974 5.42913 2.17165
8814 2 24.974 4.34331 3.25748
8816 2 26.0598 4.34331 2.17165
8817 2 27.1457 5.42913 2.17165
8818 2 27.1457 4.34331 3.25748
8819 2 26.0598 5.42913 3.25748
93 4 28.2315 5.42913 1.08583
94 4 30.4031 4.34331 0
128 4 28.2315 6.51496 0
129 4 29.3173 6.51496 1.08583
130 4 30.4031 6.51496 0
606 4 29.3173 4.34331 3.25748
607 4 28.2315 5.42913 3.25748
608 4 30.4031 5.42913 3.25748
8286 2 29.3173 5.42913 0
8287 2 29.3173 4.34331 1.08583
8288 2 28.2315 5.42913 1.08583
8289 2 30.4031 4.34331 0
8291 2 30.4031 5.42913 1.08583
8319 2 29.3173 6.51496 1.08583
8321 2 30.4031 6.51496 0
8820 2 29.3173 4.34331 3.25748
8821 2 30.4031 5.42913 3.25748
8847 2 30.4031 6.51496 2.17165
95 4 32.5748 4.34331 0
96 4 33.6606 5.42913 0
97 4 32.5748 5.42913 1.08583
609 4 32.5748 4.34331 2.17165
610 4 33.6606 5.42913 2.17165
637 4 32.5748 6.51496 2.17165
638 4 33.6606 6.51496 3.25748
8290 2 31.489 5.42913 0
8292 2 32.5748 4.34331 0
8293 2 33.6606 5.42913 0
8294 2 32.5748 5.42913 1.08583
8323 2 32.5748 6.51496 0
8822 2 33.6606 5.42913 2.17165
8823 2 33.6606 4.34331 3.25748
8849 2 31.489 6.51496 3.25748
98 4 1.08583 7.60079 0
100 4 0 7.60079 1.08583
102 4 3.25748 7.60079 0
132 4 1.08583 9.77244 0
133 4 3.25748 9.77244 0
611 4 0 7.60079 3.25748
612 4 3.25748 7.60079 2.17165
640 4 1.08583 9.77244 2.17165
641 4 1.08583 8.68661 3.25748
642 4 0 9.77244 3.25748
643 4 3.25748 8.68661 3.25748
8297 2 3.25748 7.60079 0
8326 2 1.08583 9.77244 0
8327 2 1.08583 8.68661 1.08583
8328 2 0 9.77244 1.08583
8329 2 2.17165 8.68661 0
8330 2 3.25748 9.77244 0
8331 2 3.25748 8.68661 1.08583
8332 2 2.17165 9.77244 1.08583
8825 2 1.08583 7.60079 2.17165
8852 2 0 8.68661 2.17165
8853 2 1.08583 9.77244 2.17165
8854 2 1.08583 8.68661 3.25748
8855 2 0 9.77244 3.25748
8856 2 2.17165 8.68661 2.17165
8857 2 3.25748 9.77244 2.17165
8858 2 3.25748 8.68661 3.25748
8859 2 2.17165 9.77244 3.25748
134 4 5.42913 8.68661 1.08583
135 4 6.51496 9.77244 1.08583
614 4 5.42913 7.60079 2.17165
615 4 4.34331 7.60079 3.25748
617 4 6.51496 7.60079 3.25748
645 4 6.51496 9.77244 3.25748
8300 2 5.42913 7.60079 0
8303 2 6.51496 7.60079 1.08583
8333 2 4.34331 8.68661 0
8334 2 5.42913 9.77244 0
8335 2 4.34331 9.77244 1.08583
8828 2 5.42913 7.60079 2.17165
8830 2 6.51496 7.60079 3.25748
8860 2 5.42913 9.77244 2.17165
8861 2 4.34331 9.77244 3.25748
8862 2 6.51496 9.77244 3.25748
106 4 7.60079 7.60079 0
136 4 8.68661 9.77244 1.08583
616 4 7.60079 7.60079 2.17165
644 4 7.60079 8.68661 3.25748
646 4 9.77244 8.68661 3.25748
647 4 8.68661 9.77244 3.25748
8302 2 7.60079 7.60079 0
8304 2 9.77244 7.60079 0
8336 2 7.60079 9.77244 0
8337 2 9.77244 9.77244 0
8338 2 9.77244 8.68661 1.08583
8339 2 8.68661 9.77244 1.08583
8829 2 7.60079 7.60079 2.17165
8832 2 8.68661 7.60079 3.25748
8863 2 9.77244 9.77244 2.17165
109 4 11.9441 7.60079 0
113 4 13.0299 7.60079 1.08583
137 4 10.8583 8.68661 0
138 4 11.9441 9.77244 0
139 4 13.0299 8.68661 0
648 4 11.9441 8.68661 3.25748
649 4 10.8583 9.77244 3.25748
651 4 13.0299 9.77244 3.25748
8306 2 11.9441 7.60079 0
8308 2 13.0299 7.60079 1.08583
8340 2 10.8583 8.68661 0
8341 2 11.9441 8.68661 1.08583
8342 2 10.8583 9.77244 1.08583
8345 2 13.0299 9.77244 1.08583
8864 2 10.8583 8.68661 2.17165
8865 2 11.9441 8.68661 3.25748
8866 2 13.0299 8.68661 2.17165
115 4 16.2874 7.60079 0
117 4 15.2016 7.60079 1.08583
140 4 14.1157 9.77244 0
141 4 16.2874 9.77244 0
142 4 15.2016 9.77244 1.08583
620 4 14.1157 7.60079 2.17165
621 4 16.2874 7.60079 2.17165
622 4 15.2016 7.60079 3.25748
650 4 14.1157 8.68661 3.25748
652 4 16.2874 9.77244 2.17165
653 4 15.2016 9.77244 3.25748
8307 2 14.1157 7.60079 0
8311 2 15.2016 7.60079 1.08583
8343 2 14.1157 9.77244 0
8344 2 14.1157 8.68661 1.08583
8346 2 15.2016 9.77244 1.08583
8833 2 14.1157 7.60079 2.17165
8834 2 16.2874 7.60079 2.17165
8867 2 14.1157 9.77244 2.17165
8868 2 15.2016 8.68661 2.17165
8869 2 16.2874 9.77244 2.17165
118 4 17.3732 7.60079 1.08583
120 4 20.6307 7.60079 0
122 4 19.5449 7.60079 1.08583
143 4 18.4591 8.68661 1.08583
144 4 17.3732 9.77244 1.08583
145 4 20.6307 9.77244 0
146 4 20.6307 8.68661 1.08583
147 4 19.5449 9.77244 1.08583
624 4 18.4591 7.60079 2.17165
625 4 17.3732 7.60079 3.25748
654 4 17.3732 8.68661 2.17165
655 4 18.4591 9.77244 2.17165
656 4 18.4591 8.68661 3.25748
657 4 19.5449 8.68661 2.17165
658 4 20.6307 9.77244 2.17165
8313 2 18.4591 7.60079 0
8347 2 18.4591 9.77244 0
8348 2 17.3732 9.77244 1.08583
8349 2 20.6307 8.68661 1.08583
8350 2 19.5449 9.77244 1.08583
8836 2 18.4591 7.60079 2.17165
8837 2 17.3732 7.60079 3.25748
8838 2 20.6307 7.60079 2.17165
8870 2 18.4591 9.77244 2.17165
8871 2 20.6307 9.77244 2.17165
8872 2 20.6307 8.68661 3.25748
8873 2 19.5449 9.77244 3.25748
148 4 21.7165 8.68661 0
149 4 22.8024 9.77244 0
150 4 21.7165 9.77244 1.08583
629 4 22.8024 7.60079 2.17165
630 4 21.7165 7.60079 3.25748
632 4 23.8882 7.60079 3.25748
659 4 22.8024 9.77244 2.17165
660 4 23.8882 8.68661 2.17165
8318 2 23.8882 7.60079 1.08583
8351 2 22.8024 9.77244 0
8352 2 21.7165 9.77244 1.08583
8353 2 23.8882 8.68661 0
8355 2 23.8882 9.77244 1.08583
8840 2 22.8024 7.60079 2.17165
8842 2 21.7165 7.60079 3.25748
8844 2 23.8882 7.60079 3.25748
8874 2 22.8024 9.77244 2.17165
8875 2 22.8024 8.68661 3.25748
8876 2 21.7165 9.77244 3.25748
125 4 27.1457 7.60079 0
127 4 26.0598 7.60079 1.08583
151 4 24.974 9.77244 0
152 4 26.0598 8.68661 0
153 4 27.1457 9.77244 0
154 4 26.0598 9.77244 1.08583
661 4 24.974 9.77244 2.17165
662 4 26.0598 8.68661 2.17165
663 4 27.1457 9.77244 2.17165
8354 2 24.974 8.68661 1.08583
8356 2 26.0598 8.68661 0
8357 2 27.1457 8.68661 1.08583
8358 2 26.0598 9.77244 1.08583
8843 2 24.974 7.60079 2.17165
8845 2 26.0598 7.60079 3.25748
8877 2 27.1457 8.68661 3.25748
155 4 28.2315 8.68661 0
156 4 29.3173 8.68661 1.08583
157 4 28.2315 9.77244 1.08583
158 4 30.4031 8.68661 0
634 4 28.2315 7.60079 3.25748
636 4 30.4031 7.60079 3.25748
664 4 28.2315 8.68661 2.17165
665 4 29.3173 8.68661 3.25748
666 4 28.2315 9.77244 3.25748
667 4 30.4031 8.68661 2.17165
8320 2 28.2315 7.60079 1.08583
8322 2 30.4031 7.60079 1.08583
8359 2 29.3173 8.68661 1.08583
8360 2 28.2315 9.77244 1.08583
8846 2 28.2315 7.60079 3.25748
8850 2 30.4031 7.60079 3.25748
8878 2 28.2315 8.68661 2.17165
131 4 33.6606 7.60079 0
159 4 32.5748 9.77244 1.08583
635 4 31.489 7.60079 2.17165
639 4 32.5748 7.60079 3.25748
668 4 31.489 9.77244 2.17165
669 4 31.489 8.68661 3.25748
670 4 33.6606 8.68661 3.25748
671 4 32.5748 9.77244 3.25748
8324 2 33.6606 7.60079 0
8325 2 32.5748 7.60079 1.08583
8361 2 31.489 9.77244 0
8362 2 32.5748 8.68661 0
8363 2 33.6606 9.77244 0
8364 2 33.6606 8.68661 1.08583
8365 2 32.5748 9.77244 1.08583
8848 2 31.489 7.60079 2.17165
8851 2 33.6606 7.60079 2.17165
8879 2 33.6606 8.68661 3.25748
160 4 0 10.8583 0
161 4 1.08583 11.9441 0
162 4 1.08583 10.8583 1.08583
163 4 0 11.9441 1.08583
164 4 2.17165 10.8583 0
165 4 3.25748 10.8583 1.08583
194 4 1.08583 13.0299 1.08583
196 4 2.17165 13.0299 0
672 4 0 10.8583 2.17165
673 4 1.08583 10.8583 3.25748
674 4 0 11.9441 3.25748
675 4 2.17165 10.8583 2.17165
676 4 3.25748 11.9441 2.17165
677 4 3.25748 10.8583 3.25748
678 4 2.17165 11.9441 3.25748
711 4 0 13.0299 2.17165
713 4 2.17165 13.0299 2.17165
8366 2 0 10.8583 0
8367 2 1.08583 11.9441 0
8368 2 1.08583 10.8583 1.08583
8369 2 0 11.9441 1.08583
8370 2 2.17165 10.8583 0
8371 2 3.25748 11.9441 0
8372 2 3.25748 10.8583 1.08583
8373 2 2.17165 11.9441 1.08583
8404 2 2.17165 13.0299 0
8880 2 0 10.8583 2.17165
8881 2 1.08583 10.8583 3.25748
8882 2 0 11.9441 3.25748
8883 2 2.17165 10.8583 2.17165
8884 2 3.25748 11.9441 2.17165
8885 2 3.25748 10.8583 3.25748
8918 2 0 13.0299 2.17165
8920 2 2.17165 13.0299 2.17165
8922 2 3.25748 13.0299 3.25748
166 4 5.42913 11.9441 0
167 4 5.42913 10.8583 1.08583
168 4 4.34331 11.9441 1.08583
170 4 6.51496 11.9441 1.08583
198 4 4.34331 13.0299 0
200 4 5.42913 13.0299 1.08583
202 4 6.51496 13.0299 0
679 4 4.34331 10.8583 2.17165
680 4 5.42913 11.9441 2.17165
681 4 5.42913 10.8583 3.25748
682 4 6.51496 10.8583 2.17165
684 4 6.51496 11.9441 3.25748
716 4 5.42913 13.0299 3.25748
718 4 6.51496 13.0299 2.17165
8374 2 4.34331 10.8583 0
8375 2 5.42913 11.9441 0
8406 2 4.34331 13.0299 0
8408 2 6.51496 13.0299 0
8886 2 4.34331 10.8583 2.17165
8887 2 5.42913 11.9441 2.17165
8889 2 6.51496 11.9441 3.25748
8923 2 4.34331 13.0299 2.17165
8925 2 5.42913 13.0299 3.25748
8926 2 6.51496 13.0299 2.17165
169 4 7.60079 10.8583 1.08583
171 4 8.68661 10.8583 0
172 4 9.77244 11.9441 0
173 4 9.77244 10.8583 1.08583
174 4 8.68661 11.9441 1.08583
204 4 7.60079 13.0299 1.08583
206 4 9.77244 13.0299 1.08583
683 4 7.60079 11.9441 2.17165
685 4 8.68661 10.8583 2.17165
686 4 9.77244 11.9441 2.17165
687 4 9.77244 10.8583 3.25748
721 4 8.68661 13.0299 2.17165
8376 2 7.60079 11.9441 0
8377 2 7.60079 10.8583 1.08583
8378 2 8.68661 10.8583 0
8379 2 9.77244 11.9441 0
8380 2 9.77244 10.8583 1.08583
8381 2 8.68661 11.9441 1.08583
8410 2 8.68661 13.0299 0
8888 2 7.60079 11.9441 2.17165
8890 2 8.68661 10.8583 2.17165
8891 2 9.77244 11.9441 2.17165
8928 2 8.68661 13.0299 2.17165
8929 2 9.77244 13.0299 3.25748
175 4 10.8583 10.8583 0
176 4 10.8583 11.9441 1.08583
177 4 13.0299 10.8583 0
209 4 13.0299 13.0299 0
688 4 10.8583 10.8583 2.17165
689 4 11.9441 11.9441 2.17165
690 4 11.9441 10.8583 3.25748
693 4 13.0299 11.9441 3.25748
724 4 11.9441 13.0299 3.25748
8382 2 11.9441 11.9441 0
8383 2 11.9441 10.8583 1.08583
8413 2 10.8583 13.0299 0
8414 2 11.9441 13.0299 1.08583
8892 2 11.9441 11.9441 2.17165
8893 2 11.9441 10.8583 3.25748
8894 2 13.0299 10.8583 2.17165
8896 2 13.0299 11.9441 3.25748
8931 2 11.9441 13.0299 3.25748
178 4 14.1157 11.9441 0
179 4 16.2874 11.9441 0
691 4 14.1157 11.9441 2.17165
692 4 14.1157 10.8583 3.25748
725 4 14.1157 13.0299 3.25748
8384 2 14.1157 11.9441 0
8385 2 14.1157 10.8583 1.08583
8386 2 15.2016 10.8583 0
8387 2 16.2874 11.9441 0
8416 2 14.1157 13.0299 1.08583
8417 2 15.2016 13.0299 0
8418 2 16.2874 13.0299 1.08583
8895 2 14.1157 11.9441 2.17165
8897 2 15.2016 10.8583 2.17165
8933 2 15.2016 13.0299 2.17165
180 4 19.5449 10.8583 0
181 4 20.6307 11.9441 0
182 4 19.5449 11.9441 1.08583
212 4 17.3732 13.0299 0
214 4 18.4591 13.0299 1.08583
217 4 20.6307 13.0299 1.08583
694 4 18.4591 10.8583 3.25748
695 4 17.3732 11.9441 3.25748
696 4 20.6307 10.8583 3.25748
728 4 17.3732 13.0299 2.17165
730 4 18.4591 13.0299 3.25748
731 4 19.5449 13.0299 2.17165
732 4 20.6307 13.0299 3.25748
8388 2 17.3732 11.9441 1.08583
8389 2 20.6307 11.9441 0
8390 2 20.6307 10.8583 1.08583
8419 2 17.3732 13.0299 0
8420 2 18.4591 13.0299 1.08583
8421 2 19.5449 13.0299 0
8423 2 20.6307 13.0299 1.08583
8898 2 18.4591 11.9441 2.17165
8899 2 20.6307 11.9441 2.17165
8900 2 20.6307 10.8583 3.25748
8901 2 19.5449 11.9441 3.25748
8937 2 19.5449 13.0299 2.17165
8939 2 20.6307 13.0299 3.25748
183 4 21.7165 10.8583 0
184 4 23.8882 10.8583 0
185 4 23.8882 11.9441 1.08583
218 4 21.7165 13.0299 0
219 4 22.8024 13.0299 1.08583
220 4 23.8882 13.0299 0
697 4 21.7165 11.9441 3.25748
698 4 23.8882 10.8583 2.17165
700 4 23.8882 11.9441 3.25748
734 4 21.7165 13.0299 2.17165
8391 2 21.7165 10.8583 0
8392 2 22.8024 11.9441 0
8393 2 22.8024 10.8583 1.08583
8394 2 23.8882 11.9441 1.08583
8424 2 21.7165 13.0299 0
8902 2 21.7165 10.8583 2.17165
8903 2 22.8024 11.9441 2.17165
8904 2 21.7165 11.9441 3.25748
8942 2 22.8024 13.0299 3.25748
8943 2 23.8882 13.0299 2.17165
186 4 27.1457 10.8583 1.08583
223 4 27.1457 13.0299 1.08583
699 4 24.974 11.9441 2.17165
701 4 26.0598 10.8583 2.17165
737 4 24.974 13.0299 3.25748
739 4 26.0598 13.0299 2.17165
8395 2 26.0598 10.8583 0
8396 2 27.1457 10.8583 1.08583
8397 2 26.0598 11.9441 1.08583
8905 2 24.974 10.8583 3.25748
8906 2 26.0598 10.8583 2.17165
8907 2 27.1457 11.9441 2.17165
8908 2 27.1457 10.8583 3.25748
8945 2 27.1457 13.0299 3.25748
187 4 29.3173 11.9441 0
188 4 29.3173 10.8583 1.08583
189 4 28.2315 11.9441 1.08583
224 4 28.2315 13.0299 0
226 4 30.4031 13.0299 0
702 4 28.2315 10.8583 2.17165
703 4 29.3173 11.9441 2.17165
704 4 29.3173 10.8583 3.25748
705 4 30.4031 10.8583 2.17165
708 4 30.4031 11.9441 3.25748
741 4 29.3173 13.0299 3.25748
8398 2 28.2315 10.8583 0
8399 2 29.3173 10.8583 1.08583
8400 2 28.2315 11.9441 1.08583
8401 2 30.4031 10.8583 0
8429 2 29.3173 13.0299 1.08583
8909 2 28.2315 10.8583 2.17165
8910 2 29.3173 11.9441 2.17165
8911 2 29.3173 10.8583 3.25748
8912 2 28.2315 11.9441 3.25748
8915 2 30.4031 11.9441 3.25748
8947 2 28.2315 13.0299 2.17165
8948 2 29.3173 13.0299 3.25748
8949 2 30.4031 13.0299 2.17165
190 4 31.489 11.9441 0
191 4 33.6606 11.9441 0
192 4 33.6606 10.8583 1.08583
706 4 31.489 11.9441 2.17165
707 4 31.489 10.8583 3.25748
709 4 32.5748 10.8583 2.17165
710 4 33.6606 11.9441 2.17165
744 4 31.489 13.0299 3.25748
746 4 33.6606 13.0299 3.25748
8402 2 31.489 11.9441 0
8403 2 33.6606 11.9441 0
8913 2 31.489 11.9441 2.17165
8914 2 31.489 10.8583 3.25748
8916 2 32.5748 10.8583 2.17165
8917 2 33.6606 10.8583 3.25748
8951 2 33.6606 13.0299 3.25748
193 4 1.08583 14.1157 0
195 4 0 14.1157 1.08583
197 4 3.25748 14.1157 0
230 4 0 15.2016 0
231 4 1.08583 16.2874 0
232 4 1.08583 15.2016 1.08583
233 4 0 16.2874 1.08583
234 4 3.25748 16.2874 0
235 4 3.25748 15.2016 1.08583
236 4 2.17165 16.2874 1.08583
712 4 1.08583 14.1157 2.17165
714 4 2.17165 14.1157 3.25748
747 4 0 15.2016 2.17165
748 4 1.08583 16.2874 2.17165
749 4 1.08583 15.2016 3.25748
750 4 2.17165 15.2016 2.17165
751 4 3.25748 15.2016 3.25748
8405 2 2.17165 14.1157 1.08583
8431 2 0 15.2016 0
8432 2 1.08583 16.2874 0
8433 2 1.08583 15.2016 1.08583
8434 2 0 16.2874 1.08583
8435 2 3.25748 16.2874 0
8436 2 3.25748 15.2016 1.08583
8919 2 1.08583 14.1157 2.17165
8921 2 3.25748 14.1157 2.17165
8952 2 0 15.2016 2.17165
8953 2 1.08583 16.2874 2.17165
8954 2 3.25748 16.2874 2.17165
8955 2 3.25748 15.2016 3.25748
199 4 5.42913 14.1157 0
201 4 4.34331 14.1157 1.08583
237 4 5.42913 15.2016 1.08583
238 4 4.34331 16.2874 1.08583
239 4 6.51496 15.2016 0
241 4 6.51496 16.2874 1.08583
715 4 5.42913 14.1157 2.17165
717 4 4.34331 14.1157 3.25748
720 4 6.51496 14.1157 3.25748
752 4 5.42913 16.2874 2.17165
8407 2 5.42913 14.1157 0
8409 2 6.51496 14.1157 1.08583
8437 2 4.34331 15.2016 0
8438 2 5.42913 16.2874 0
8439 2 5.42913 15.2016 1.08583
8440 2 4.34331 16.2874 1.08583
8924 2 5.42913 14.1157 2.17165
8956 2 4.34331 15.2016 2.17165
8957 2 5.42913 15.2016 3.25748
8960 2 6.51496 16.2874 3.25748
203 4 7.60079 14.1157 0
205 4 9.77244 14.1157 0
240 4 7.60079 15.2016 1.08583
242 4 9.77244 16.2874 0
243 4 9.77244 15.2016 1.08583
244 4 8.68661 16.2874 1.08583
719 4 7.60079 14.1157 2.17165
722 4 8.68661 14.1157 3.25748
753 4 7.60079 16.2874 2.17165
754 4 7.60079 15.2016 3.25748
755 4 8.68661 15.2016 2.17165
756 4 9.77244 16.2874 2.17165
757 4 8.68661 16.2874 3.25748
8411 2 9.77244 14.1157 0
8412 2 8.68661 14.1157 1.08583
8441 2 9.77244 15.2016 1.08583
8927 2 7.60079 14.1157 2.17165
8958 2 7.60079 16.2874 2.17165
8959 2 7.60079 15.2016 3.25748
8961 2 8.68661 16.2874 3.25748
207 4 11.9441 14.1157 0
208 4 10.8583 14.1157 1.08583
245 4 13.0299 15.2016 0
723 4 11.9441 14.1157 2.17165
726 4 13.0299 14.1157 3.25748
758 4 10.8583 16.2874 3.25748
759 4 13.0299 15.2016 2.17165
760 4 13.0299 16.2874 3.25748
8442 2 11.9441 16.2874 0
8443 2 11.9441 15.2016 1.08583
8930 2 11.9441 14.1157 2.17165
8932 2 13.0299 14.1157 3.25748
8962 2 10.8583 15.2016 2.17165
8963 2 11.9441 16.2874 2.17165
8964 2 10.8583 16.2874 3.25748
210 4 14.1157 14.1157 0
211 4 16.2874 14.1157 0
246 4 14.1157 15.2016 1.08583
247 4 16.2874 16.2874 0
248 4 16.2874 15.2016 1.08583
249 4 15.2016 16.2874 1.08583
727 4 16.2874 14.1157 2.17165
761 4 16.2874 15.2016 3.25748
762 4 15.2016 16.2874 3.25748
8415 2 14.1157 14.1157 0
8444 2 14.1157 16.2874 0
8445 2 14.1157 15.2016 1.08583
8446 2 15.2016 15.2016 0
8934 2 16.2874 14.1157 2.17165
8935 2 15.2016 14.1157 3.25748
8965 2 15.2016 15.2016 2.17165
213 4 18.4591 14.1157 0
215 4 17.3732 14.1157 1.08583
216 4 20.6307 14.1157 0
250 4 17.3732 16.2874 1.08583
251 4 19.5449 15.2016 0
729 4 18.4591 14.1157 2.17165
733 4 19.5449 14.1157 3.25748
763 4 18.4591 15.2016 3.25748
764 4 17.3732 16.2874 3.25748
765 4 19.5449 15.2016 2.17165
766 4 20.6307 15.2016 3.25748
8422 2 20.6307 14.1157 0
8447 2 17.3732 15.2016 0
8448 2 18.4591 16.2874 0
8449 2 19.5449 15.2016 0
8450 2 20.6307 15.2016 1.08583
8936 2 18.4591 14.1157 2.17165
8938 2 20.6307 14.1157 2.17165
8940 2 19.5449 14.1157 3.25748
8966 2 17.3732 15.2016 2.17165
8967 2 18.4591 15.2016 3.25748
8968 2 19.5449 15.2016 2.17165
8969 2 20.6307 16.2874 2.17165
8970 2 19.5449 16.2874 3.25748
252 4 21.7165 15.2016 0
253 4 22.8024 15.2016 1.08583
735 4 22.8024 14.1157 2.17165
738 4 23.8882 14.1157 3.25748
767 4 22.8024 16.2874 2.17165
768 4 21.7165 16.2874 3.25748
769 4 23.8882 15.2016 2.17165
8425 2 22.8024 14.1157 0
8427 2 23.8882 14.1157 1.08583
8451 2 21.7165 15.2016 0
8452 2 22.8024 16.2874 0
8453 2 22.8024 15.2016 1.08583
8454 2 23.8882 15.2016 0
8455 2 23.8882 16.2874 1.08583
8941 2 22.8024 14.1157 2.17165
8971 2 22.8024 16.2874 2.17165
8972 2 22.8024 15.2016 3.25748
8973 2 21.7165 16.2874 3.25748
221 4 24.974 14.1157 0
222 4 27.1457 14.1157 0
254 4 24.974 16.2874 0
255 4 27.1457 16.2874 0
256 4 27.1457 15.2016 1.08583
736 4 24.974 14.1157 2.17165
740 4 27.1457 14.1157 2.17165
770 4 27.1457 15.2016 3.25748
771 4 26.0598 16.2874 3.25748
8426 2 24.974 14.1157 0
8428 2 26.0598 14.1157 1.08583
8456 2 26.0598 15.2016 0
8457 2 27.1457 16.2874 0
8458 2 26.0598 16.2874 1.08583
8944 2 27.1457 14.1157 2.17165
8946 2 26.0598 14.1157 3.25748
8974 2 24.974 16.2874 2.17165
8975 2 26.0598 16.2874 3.25748
225 4 28.2315 14.1157 1.08583
228 4 30.4031 14.1157 1.08583
257 4 28.2315 16.2874 1.08583
742 4 28.2315 14.1157 3.25748
772 4 28.2315 15.2016 2.17165
773 4 29.3173 16.2874 2.17165
774 4 28.2315 16.2874 3.25748
8459 2 29.3173 16.2874 0
8461 2 30.4031 16.2874 1.08583
8950 2 30.4031 14.1157 3.25748
8976 2 29.3173 16.2874 2.17165
8977 2 29.3173 15.2016 3.25748
8979 2 30.4031 16.2874 3.25748
227 4 31.489 14.1157 0
229 4 33.6606 14.1157 0
258 4 31.489 16.2874 0
259 4 33.6606 15.2016 1.08583
743 4 31.489 14.1157 2.17165
745 4 33.6606 14.1157 2.17165
775 4 31.489 15.2016 3.25748
776 4 32.5748 15.2016 2.17165
777 4 33.6606 16.2874 2.17165
8430 2 31.489 14.1157 0
8460 2 31.489 16.2874 0
8462 2 33.6606 16.2874 0
8978 2 31.489 15.2016 3.25748
8980 2 33.6606 16.2874 2.17165
260 4 0 17.3732 0
261 4 1.08583 18.4591 0
262 4 0 18.4591 1.08583
263 4 2.17165 17.3732 0
264 4 3.25748 18.4591 0
265 4 3.25748 17.3732 1.08583
266 4 2.17165 18.4591 1.08583
294 4 1.08583 20.6307 0
295 4 2.17165 19.5449 0
296 4 3.25748 20.6307 0
778 4 0 17.3732 2.17165
779 4 1.08583 18.4591 2.17165
780 4 0 18.4591 3.25748
781 4 2.17165 17.3732 2.17165
782 4 2.17165 18.4591 3.25748
811 4 2.17165 19.5449 2.17165
812 4 3.25748 20.6307 2.17165
813 4 2.17165 20.6307 3.25748
8463 2 1.08583 18.4591 0
8464 2 1.08583 17.3732 1.08583
8465 2 0 18.4591 1.08583