ITEM: TIMESTEP
0
ITEM: NUMBER OF ATOMS
50688
ITEM: BOX BOUNDS xy xz yz pp pp pp
-40.1340523 56.6039734 16.4699307
-43.8030052 43.8030052 0.0
-43.7915344 43.7915344 0.0
ITEM: ATOMS id type x y z VoronoiIndex1 VoronoiIndex2 VoronoiIndex3 VoronoiIndex4 VoronoiIndex5 VoronoiIndex6 VoronoiIndex7 VoronoiIndex8 VoronoiIndex9 AtomicVolume
2 2 -13.6599999 -18.6900006 -7.9310002 0 0 0 2 8 2 0 0 0 11.7405453
4 2 -31.3299999 -21.7399998 -17.7600003 0 0 0 0 12 0 0 0 0 10.9891768
15 4 -9.6070004 -25.0799999 -20.8600006 0 0 0 3 7 3 1 0 0 12.6720448
23 2 -18.6200009 -32.0600014 -14.3000002 0 0 2 1 7 3 1 0 0 11.7370014
33 1 -12.6800003 -5.184 -27.2800007 0 0 1 0 9 3 0 0 0 11.2926045
39 4 -25.4300003 -34.3400002 -41.9199982 0 0 0 0 12 2 0 0 0 12.3304711
45 4 -3.7260001 -15.1099997 -15.2200003 0 0 0 0 12 0 0 0 0 11.2398605
46 4 -28.8999996 -12.3000002 -43.3400002 0 0 0 2 8 6 0 0 0 13.3488474
68 4 -12.4399996 -10.2399998 -10.04 0 0 2 3 4 4 0 1 0 11.949975
75 5 -2.155 -29.0200005 -36.4199982 0 0 1 1 9 5 0 0 0 12.8347235
88 5 -34.5 -31.6499996 -0.1883 0 0 0 0 12 0 0 0 0 11.1235075
90 4 -15.2399998 -42.7700005 -36.1699982 0 0 0 2 10 4 0 0 0 12.8182497
97 5 -21.8500004 -8.6499996 -0.6641 0 0 0 1 10 2 0 0 0 12.5573664
106 4 -14.75 -32.0200005 -2.4089999 0 0 1 1 9 3 0 0 0 12.6447039
109 4 -32.3800011 -10.1499996 -26.2199993 0 0 0 2 10 4 0 0 0 12.6742888
114 2 -12.25 -40.1800003 -6.6609998 0 0 0 3 6 5 0 0 0 12.0616484
118 2 -6.237 -35.4900017 -30.5200005 0 0 0 0 12 0 0 0 0 11.3344145
119 4 -35.0400009 -21.9799996 -18.7299996 0 0 0 4 6 2 0 0 0 12.1140862
120 4 7.4520002 -3.148 -38.8600006 0 0 0 4 4 5 0 0 0 12.8291893
122 4 -2.942 -35.3100014 -33.0699997 0 0 0 0 12 3 0 0 0 12.2632895
141 4 -20.3600006 -10.7700005 -40.3800011 0 0 1 1 8 4 1 0 0 12.4505387
162 4 -3.985 -14.29 -34.5600014 0 0 0 2 10 3 0 0 0 14.199687
164 1 -7.2100001 -8.717 -40.3300018 0 0 1 2 7 2 0 0 0 11.4934054
169 1 -0.4835 -12.4799996 -18.1599999 0 0 0 0 12 0 0 0 0 11.0374517
174 5 0.6036001 -8.9700004 -29.1700001 0 0 0 2 8 2 0 0 0 11.9715568
187 4 0.7326 -10.87 -21.2700005 0 0 0 2 8 4 0 0 0 11.6501913
199 1 -9.5959997 -31.3400002 -27.2099991 0 0 0 1 10 2 0 0 0 11.0396423
205 4 4.1479998 -2.5109999 -33.4199982 0 0 2 2 7 2 3 0 0 12.2899504
215 2 -34.5 -26.1800003 -43.75 0 0 0 2 8 2 0 0 0 12.1505356
223 2 -6.0349998 -37.6699982 -22.9300004 0 0 0 1 10 2 0 0 0 11.5744467
227 4 -16.6399994 -6.526 -28.7099991 0 0 0 0 12 2 0 0 0 12.7220822
230 2 0.6821 -37.1899986 -10.2799997 0 0 1 2 6 2 1 0 0 10.9671154
237 2 -16.6299992 -38.0999985 -34.4599991 0 0 0 1 10 2 0 0 0 12.2126684
253 5 -2.135 -4.7129998 -34.6899987 0 0 1 2 7 5 0 0 0 13.2794228
254 4 -9.5600004 -25.5100003 -4.5320001 0 0 0 1 10 2 0 0 0 12.2730112
258 2 -9.4420004 -37.4099999 -41.9900018 0 0 0 2 8 1 1 0 0 11.6208611
259 5 -6.4070001 -37.1199989 -34.869999 0 0 1 0 9 3 0 0 0 12.3925133
286 3 -16.1900005 -32.9900018 -22.8799992 0 0 0 2 8 4 0 0 0 12.4754048
293 5 -20.0200005 -8.5430002 -43.6399994 0 0 0 3 6 4 0 0 0 11.4230004
297 5 -17.5499993 -8.4580002 -20.0300007 0 0 0 2 8 4 0 0 0 12.5129738
306 1 -1.464 -17.8299999 -1.4420001 0 0 0 2 10 1 0 0 0 11.2891035
326 4 -26.0200005 -22.8999996 -9.3730002 0 0 0 2 8 4 0 0 0 12.5346461
330 4 3.319 -23.3199997 -25.4300003 0 0 0 3 8 3 0 0 0 12.7136574
338 5 -28.0400009 -33.9500008 -31.1700001 0 0 2 3 5 5 1 0 0 12.4938078
339 4 -5.105 -39.0200005 -10.5100003 0 0 0 3 6 6 0 0 0 13.4906855
349 4 -27.0799999 -42.3100014 -16.5599995 0 0 0 1 10 3 0 0 0 12.5566349
350 4 -33.6500016 -14.6800003 -37.2400017 0 0 0 3 8 3 0 0 0 12.1019421
364 4 -6.9970002 -21.8700008 -42.6899987 0 0 0 2 10 0 0 0 0 12.0068817
378 1 -8.2799997 -43.619999 -17.4099999 0 0 0 1 10 2 0 0 0 11.3057842
382 4 3.853 -13.7200003 -17.2199993 0 0 0 1 10 3 0 0 0 12.2484341
387 3 -17.7900009 -24.0400009 -32.6699982 0 0 0 3 8 3 0 0 0 12.910346
397 1 -10.3900004 -27.7399998 -24.0200005 0 0 0 2 10 0 0 0 0 11.519558
403 4 -37.4900017 -33.3899994 -14.9099998 0 0 0 2 8 3 0 0 0 12.3701897
414 4 -11.9799996 -1.1390001 -7.796 0 0 1 2 5 4 0 1 0 12.1535797
415 4 -13.0200005 -2.7149999 -27.4500008 0 0 1 0 11 3 0 0 0 12.0720596
423 2 -28.7800007 -13.3699999 -26.1800003 0 0 0 2 8 4 0 0 0 12.406888
424 3 -24.6700001 -37.7799988 -30.3199997 0 0 1 1 9 3 0 0 0 12.3309956
440 2 -12.8999996 -30.4799996 -36.6800003 0 0 2 2 5 4 1 0 0 12.4265852
444 2 4.4970002 -17.6599999 -40.4500008 0 0 0 0 12 0 0 0 0 11.3656769
449 4 2.8670002 -15.8599998 -39.6699982 0 0 0 0 12 2 0 0 0 12.9752798
454 4 5.1869998 -3.6140001 -39.8199997 0 0 0 0 12 4 0 0 0 13.2901859
461 2 -20.9099998 -1.332 -6.5100003 0 0 0 2 8 2 0 0 0 12.1606827
469 2 -7.744 -14.8999996 -6.5500002 0 0 0 3 6 2 2 0 0 12.1587524
477 2 -17.25 -19.0699997 -26.0400009 0 0 0 0 12 0 0 0 0 10.8612376
478 5 -12.9200002 -9.8039999 -32.4799996 0 0 0 0 12 0 0 0 0 11.350852
483 4 -9.8500004 -6.7789998 -31.0 0 0 0 0 12 2 0 0 0 12.9645492
485 4 -15.8100004 -16.6000004 -4.3940001 0 0 0 2 8 2 0 0 0 10.8566866
495 4 -35.5600014 -24.6100006 -1.026 0 0 1 3 9 2 0 0 0 12.681777
497 5 -5.816 -37.9799996 -42.6800003 0 0 1 2 7 3 0 0 0 11.4658852
508 4 -24.9599992 -23.5799999 -13.3500004 0 0 0 3 6 4 0 0 0 12.256136
511 4 -21.8700008 -23.0100002 -34.9199982 0 0 0 1 10 6 0 0 0 14.5462713
514 2 -16.4599991 -23.5699997 -39.0299988 0 0 0 2 8 3 0 0 0 12.2221136
537 5 -18.7199993 -19.3199997 -15.1000004 0 0 0 4 4 7 0 0 0 12.1108275
544 3 -31.2199993 -13.2200003 -39.1599999 0 0 0 1 10 3 0 0 0 12.7172385
546 2 -16.1299992 -13.5 -33.9000016 0 0 0 0 12 0 0 0 0 11.383524
553 4 -35.0900002 -28.2900009 -5.1849999 0 0 0 0 12 3 0 0 0 13.3871126
554 5 -21.9200002 -39.2200012 -18.5200005 0 0 0 1 10 2 0 0 0 11.8457376
567 2 -11.7100001 -42.6599999 -18.0599995 0 0 0 3 6 5 0 0 0 11.7023087
574 4 -32.75 -24.7000008 -15.3400002 0 0 0 3 6 5 0 0 0 11.7861376
579 5 -22.0100002 -26.1399994 -23.9400006 0 0 0 0 12 3 0 0 0 12.6738234
595 4 -6.3010001 -23.9099998 -24.4699993 0 0 0 2 8 4 0 0 0 12.1770258
621 2 -31.6399994 -33.0099983 -6.9899998 0 0 1 2 7 3 0 0 0 11.5494652
634 4 1.097 -0.04836 -11.3999996 0 0 0 1 10 4 0 0 0 12.6319161
644 2 -15.4499998 -8.8109999 -21.3400002 0 0 0 0 12 0 0 0 0 11.6051283
661 2 1.3580001 -26.3400002 -27.7900009 0 0 1 1 8 4 1 0 0 12.149044
664 4 -5.961 -31.7700005 -37.7200012 0 0 0 1 10 3 0 0 0 11.803361
666 4 1.724 -32.4000015 -28.7900009 0 0 0 2 8 2 0 0 0 10.8399582
667 4 1.071 -25.6200009 -6.6669998 0 0 0 1 10 2 0 0 0 12.3261109
670 4 -26.1700001 -20.0499992 -40.7299996 0 0 0 2 10 1 0 0 0 11.8586722
672 4 -3.388 -42.3699989 -26.5100003 0 0 0 1 10 3 0 0 0 12.1431265
683 4 0.9421 -17.25 -0.4736 0 0 0 1 10 4 0 0 0 13.3149157
690 2 -22.2000008 -32.3300018 -36.6500016 0 0 0 4 6 3 0 0 0 11.5267306
699 4 -6.9970002 -22.3600006 -28.0200005 0 0 0 2 10 1 0 0 0 12.33568
701 5 -20.0100002 -31.4500008 -3.2809999 0 0 0 2 8 7 0 0 0 14.1312981
702 5 -9.889 -34.5499993 -13.6999998 0 0 0 0 12 0 0 0 0 11.3587198
708 4 0.04529 -2.984 -34.2099991 0 0 0 3 6 4 0 0 0 12.4053393
718 4 -20.8700008 -13.5200005 -30.7099991 0 0 0 0 12 2 0 0 0 12.1579285
731 4 -2.7560001 -20.3999996 -29.1100006 0 0 1 2 7 5 0 0 0 13.1909256
733 4 -18.2700005 -20.7399998 -24.3999996 0 0 0 1 10 2 0 0 0 12.4464922
740 2 -37.3800011 -37.7000008 -42.1399994 0 0 0 0 12 0 0 0 0 10.9774056
759 4 5.7870002 -2.2550001 -1.415 0 0 0 0 12 2 0 0 0 12.8237362
766 4 -28.7600003 -12.5500002 -12.6300001 0 0 0 1 10 3 0 0 0 12.0914621
773 2 -16.4500008 -25.4099999 -30.6499996 0 0 0 1 10 2 0 0 0 11.6597643
779 5 -14.5900002 -34.7299996 -18.5599995 0 0 0 3 8 2 0 0 0 13.1173096
782 2 1.1900001 -19.7800007 -9.1359997 0 0 0 3 6 4 0 0 0 11.853324
783 5 -1.942 -26.3500004 -17.0699997 0 0 0 2 8 4 0 0 0 12.3751373
792 4 -3.4300001 -32.0200005 -36.2900009 0 0 0 2 10 4 0 0 0 13.6437645
804 2 -8.776 -2.3710001 -39.1100006 0 0 0 4 4 6 0 0 0 12.2141085
824 5 -29.0400009 -24.8400002 -2.0929999 0 0 0 0 12 2 0 0 0 12.7325926
827 2 -8.1759996 -36.5200005 -23.2600002 0 0 0 3 6 4 0 0 0 12.559638
839 2 -28.3099995 -42.0099983 -4.1079998 0 0 1 2 7 3 0 0 0 11.2583771
853 4 -31.8999996 -8.7880001 -28.6900006 0 0 0 2 8 5 0 0 0 13.0996962
857 5 -29.0300007 -15.87 -16.8999996 0 0 0 3 6 6 0 0 0 13.5166626
858 4 -23.5599995 -10.6599999 -4.2030001 0 0 1 3 8 4 1 0 0 14.6273976
864 4 -0.809 -11.9799996 -27.5 0 0 0 2 8 5 0 0 0 12.5263071
867 1 -2.1389999 -28.1700001 -20.8899994 0 0 0 0 12 0 0 0 0 10.8400212
900 2 4.896 -6.0229998 -43.4500008 0 0 0 0 12 0 0 0 0 11.2896271
912 5 -24.7299996 -43.4199982 -39.3600006 0 0 0 2 10 2 0 0 0 12.4398051
913 1 -11.6599999 -10.29 -24.5699997 0 0 1 3 5 5 0 0 0 12.0003557
918 4 -14.8800002 -17.7800007 -33.5400009 0 0 0 3 6 4 0 0 0 11.8608542
919 5 -4.514 -14.7100001 -9.2110005 0 0 1 3 5 4 0 0 0 11.921587
927 5 -20.1599999 -24.8700008 -29.1800003 0 0 0 1 12 1 0 0 0 12.5899277
934 4 -20.75 -7.8470002 -25.4899998 0 0 0 5 5 5 1 0 0 13.96801
935 2 -26.6200009 -6.1020002 -25.9500008 0 0 0 2 8 2 0 0 0 11.3552294
940 4 -0.6147 -41.2099991 -9.2110005 0 0 0 0 12 4 0 0 0 13.793334
949 2 -23.8500004 -5.6490002 -32.7000008 0 0 1 3 5 2 0 0 0 11.9915992
959 4 -22.5 -25.2700005 -9.3999996 0 0 0 3 6 5 0 0 0 12.0876446
961 2 -19.4400006 -40.1399994 -40.9799996 0 0 1 0 13 1 0 0 0 13.026247
969 2 -31.4300003 -10.0799999 -12.0200005 0 0 0 1 10 2 0 0 0 11.8347245
979 2 -8.3879995 -14.5 -20.0900002 0 0 0 4 4 5 0 0 0 11.6614104
983 2 0.5094 -4.1669998 -8.6680002 0 0 0 3 6 5 0 0 0 12.3833428
990 5 -27.5300007 -27.3500004 -42.2299996 0 0 0 2 8 4 0 0 0 12.3182116
996 2 2.5869999 -21.7299996 -20.5599995 0 0 2 3 4 5 0 0 0 11.5746603
1001 4 -8.4890003 -20.1000004 -24.25 0 0 0 4 8 1 0 0 0 12.0765448
1016 2 -6.9580002 -30.2600002 -8.2419996 0 0 0 2 10 1 0 0 0 11.5434056
1033 2 -26.5 -34.3400002 -10.96 0 0 1 1 9 2 0 0 0 12.8792992
1044 5 6.039 -9.0220003 -32.3100014 0 0 0 4 5 4 1 0 0 12.916606
1051 4 -15.4799996 -15.9700004 -19.0799999 0 0 0 0 12 0 0 0 0 11.6456757
1052 1 2.6400001 -13.6499996 -35.4700012 0 0 0 2 10 0 0 0 0 11.4939652
1064 5 -4.9660002 -19.9799996 -30.9300004 0 0 0 2 8 4 0 0 0 12.0105352
1065 2 -11.8000002 -19.0100002 -9.4359999 0 0 1 2 6 3 1 0 0 11.6139202
1084 1 2.451 -6.3720002 -33.4799996 0 0 0 0 12 0 0 0 0 11.1818075
1086 1 -18.9300004 -38.6800003 -24.0400009 0 0 0 1 10 2 0 0 0 11.3355322
1089 3 -30.6299992 -33.0800018 -38.2000008 0 0 0 2 8 6 0 0 0 12.5582762
1099 2 3.408 -2.161 -39.1300011 0 0 1 3 6 3 1 0 0 12.2546492
1102 1 -14.3800001 -36.1699982 -37.2200012 0 0 0 0 12 0 0 0 0 11.0833664
1110 2 -24.4200001 -21.0 -5.1939998 0 0 0 2 10 2 0 0 0 12.3106737
1119 5 5.2540002 -7.889 -5.408 0 0 0 2 9 2 1 0 0 12.1232662
1122 4 -23.0200005 -24.7700005 -14.4700003 0 0 1 2 6 5 1 0 0 13.0695305
1131 2 -5.6399999 -2.3770001 -21.3999996 0 0 0 0 12 0 0 0 0 11.6436329
1133 2 -13.1599999 -42.25 -7.7290001 0 0 1 2 7 4 0 0 0 12.7546025
1138 4 -35.5499993 -29.5 -0.2367 0 0 0 2 10 1 0 0 0 11.5662747
1163 2 -34.7299996 -19.1800003 -11.5699997 0 0 2 2 3 4 1 0 0 11.7303715
1164 4 -1.407 -24.1200008 -31.1399994 0 0 1 3 7 6 0 0 0 13.7576714
1166 5 -26.8299999 -29.5599995 -9.6800003 0 0 0 4 4 3 0 0 0 11.0913525
1170 2 -8.0209999 -3.9630002 -17.4599991 0 0 0 3 6 4 0 0 0 12.4289341
1178 1 -27.3299999 -33.8100014 -5.6589999 0 0 0 3 6 3 0 0 0 11.5646467
1195 5 -15.6800003 -38.8100014 -9.3299999 0 0 0 2 8 2 0 0 0 10.5444899
1198 5 -11.1400003 -34.5600014 -38.0 0 0 0 1 10 2 0 0 0 11.6859284
1209 2 -12.0799999 -5.5809999 -9.7080002 0 0 0 2 8 2 0 0 0 12.2601414
1211 5 -28.5599995 -23.4300003 -23.0599995 0 0 0 1 10 2 0 0 0 11.9846192
1219 5 -28.3700009 -32.7200012 -39.2299996 0 0 0 0 12 0 0 0 0 11.159873
1226 2 1.249 -31.8799992 -36.7999993 0 0 1 3 4 4 1 0 0 11.2669392
1239 2 -18.4200001 -10.87 -19.9799996 0 0 0 0 12 0 0 0 0 11.6629267
1256 4 -13.9300004 -6.4569998 -8.3929997 0 0 0 1 10 5 0 0 0 13.9296676
1262 4 -30.7800007 -21.1700001 -13.8800002 0 0 0 2 8 4 0 0 0 12.409111
1266 4 -2.606 -22.1200008 -37.6599999 0 0 0 3 6 2 2 0 0 11.9953166
1274 4 0.6231 -28.4599991 -0.364 0 0 0 2 8 5 0 0 0 12.8774796
1279 4 1.095 -22.9400006 -31.7700005 0 0 0 4 6 4 0 0 0 13.197938
1286 5 -6.31 -10.8500004 -36.1699982 0 0 0 1 10 3 0 0 0 12.2604675
1289 2 -7.3990002 -10.4600001 -22.9200002 0 0 0 1 10 2 0 0 0 11.9303026
1299 2 -7.9330002 -16.1700001 -39.8400002 0 0 0 0 12 0 0 0 0 10.8632174
1303 4 -13.7299996 -19.4500008 -34.9799996 0 0 0 3 6 5 0 0 0 12.1220417
1304 5 -12.5500002 -18.8999996 -15.0600004 0 0 0 2 8 2 0 0 0 10.9498254
1306 5 -0.9623 -10.8299999 -30.0699997 0 0 0 1 10 2 0 0 0 11.0232573
1319 2 -23.4400006 -29.1399994 -1.716 0 0 1 3 5 4 0 0 0 11.5730076
1322 4 -4.2800002 -27.3999996 -3.2690001 0 0 0 1 12 2 0 0 0 13.2734194
1336 4 -8.658 -4.5520001 -23.3899994 0 0 0 2 8 4 0 0 0 12.4508848
1337 4 -14.5600004 -20.1200008 -37.1899986 0 0 0 3 8 4 0 0 0 13.7476683
1340 2 -30.4300003 -25.1499996 -38.8300019 0 0 0 0 12 0 0 0 0 11.3186379
1343 2 -23.3199997 -4.7379999 -35.0900002 0 0 0 1 10 2 0 0 0 11.5932007
1347 4 4.3660002 -12.6499996 -36.9199982 0 0 0 2 8 4 0 0 0 12.60075
1352 5 -10.9300004 -15.3900004 -42.8199997 0 0 0 3 6 6 0 0 0 13.5581198
1357 4 5.1300001 -12.9499998 -29.6800003 0 0 0 2 10 1 0 0 0 11.6804724
1372 2 -19.7800007 -22.5400009 -28.8099995 0 0 1 2 5 5 0 0 0 11.4244223
1385 5 1.017 -10.2299996 -33.75 0 0 1 4 5 3 0 0 0 11.5460053
1394 5 -3.3410001 -36.5699997 -26.0900002 0 0 0 2 8 3 0 0 0 12.1917276
1408 1 -23.7099991 -34.6899987 -8.5760002 0 0 0 3 6 3 0 0 0 11.5654202
1414 2 -31.6399994 -21.3199997 -31.4699993 0 0 0 0 12 0 0 0 0 11.0641794
1415 2 3.727 -16.7099991 -5.956 0 0 0 0 12 0 0 0 0 10.70996
1421 2 -21.2000008 -36.3199997 -33.1199989 0 0 0 2 8 4 0 0 0 11.4750967
1495 5 -16.0100002 -23.0400009 -6.5349999 0 0 1 1 9 2 2 0 0 12.5321102
1502 4 -5.389 -13.3900004 -39.0600014 0 0 0 3 6 5 0 0 0 12.106123
1505 2 -26.4599991 -19.3299999 -43.1300011 0 0 0 2 10 1 0 0 0 12.3894701
1521 5 -16.7700005 -24.2800007 -2.563 0 0 0 1 10 2 0 0 0 12.0255747
1526 4 -15.8599998 -9.5290003 -35.8400002 0 0 0 1 12 2 0 0 0 13.0499105
1527 5 -20.0200005 -40.5900002 -35.7200012 0 0 2 2 6 4 0 0 0 12.5663958
1529 2 -16.7199993 -36.6100006 -25.9699994 0 0 1 4 3 4 0 0 0 11.9336892
1539 5 -29.9099998 -1.655 -30.2399998 0 0 0 2 10 1 0 0 0 12.555975
1540 5 -0.5454 -9.3070002 -22.7600003 0 0 0 1 10 4 0 0 0 13.4826041
1546 4 -13.4600001 -41.8300019 -38.4300003 0 0 0 3 6 6 0 0 0 12.5132103
1552 4 -37.2700005 -40.7999993 -29.6900006 0 0 0 2 8 4 0 0 0 12.2167702
1555 2 -14.7700005 -18.2199993 -42.5299988 0 0 0 2 8 3 0 0 0 12.2269955
1563 5 -7.2800002 -30.3500004 -16.8600006 0 0 0 1 10 2 0 0 0 11.8874598
1566 5 -5.6069999 -7.8839998 -18.6900006 0 0 0 3 8 3 0 0 0 11.7673779
1581 4 5.98 -4.2090001 -24.8500004 0 0 0 0 12 0 0 0 0 11.007165
1593 2 -22.7800007 -4.579 -29.2000008 0 0 0 2 10 2 0 0 0 12.1546145
1597 5 -5.3299999 -17.7700005 -8.9099998 0 0 1 1 9 3 0 0 0 12.5520697
1611 5 -14.6199999 -7.9400002 -0.1754 0 0 0 0 12 0 0 0 0 10.7843609
1617 4 -17.9300004 -2.7690001 -38.2400017 0 0 0 1 10 2 0 0 0 11.633111
1626 2 -20.6299992 -35.6500016 -27.6200009 0 0 0 2 8 3 0 0 0 11.1536608
1632 5 -5.4990001 -23.7000008 -33.5099983 0 0 0 1 10 2 0 0 0 11.6097756
1651 2 -2.5550001 -1.982 -6.8969998 0 0 0 2 8 2 0 0 0 11.2815924
1656 4 -9.3210001 -3.329 -19.3899994 0 0 0 1 10 2 0 0 0 12.1200342
1660 4 -31.8600006 -5.8150001 -25.6800003 0 0 0 0 12 2 0 0 0 12.2452259
1670 2 -26.2700005 -23.5400009 -24.5900002 0 0 0 1 10 2 0 0 0 12.1635895
1671 4 -3.906 -29.8199997 -34.7200012 0 0 0 0 12 2 0 0 0 12.3708277
1675 4 -3.4360001 -41.5200005 -28.9799996 0 0 1 2 7 5 0 0 0 12.4531126
1680 5 -4.0890002 -31.3700009 -23.3600006 0 0 0 2 8 2 0 0 0 11.6751766
1683 4 -27.0900002 -16.1800003 -38.619999 0 0 1 2 9 3 0 0 0 13.155221
1686 5 -9.8669996 -17.2900009 -26.3500004 0 0 0 2 8 1 0 0 0 11.85184
1687 2 -24.6599999 -31.2900009 -31.4899998 0 0 0 0 12 0 0 0 0 11.8075915
1700 2 0.4951 -32.4199982 -34.6800003 0 0 0 2 10 2 0 0 0 12.330266
1707 4 -18.6700001 -29.1399994 -3.6570001 0 0 2 0 9 2 1 0 0 12.3790846
1713 4 4.2280002 -16.0499992 -22.8500004 0 0 0 0 12 0 0 0 0 11.2971697
1727 5 -18.0 -10.5200005 -15.79 0 0 1 3 4 5 1 0 0 12.5489664
1733 4 -10.8299999 -26.0200005 -27.2299996 0 0 0 3 6 5 0 0 0 12.4750834
1741 3 -26.0200005 -36.619999 -37.5999985 0 0 0 3 4 6 0 0 0 12.1720381
1748 2 0.2905 -9.632 -15.6499996 0 0 0 2 8 4 0 0 0 12.0833921
1759 1 -17.3799992 -21.0699997 -6.395 0 0 0 0 12 0 0 0 0 10.8532144
1771 5 -16.8199997 -12.29 -14.2799997 0 0 1 3 4 5 0 0 0 12.1724901
1772 2 -15.79 -9.6969996 -4.4120002 0 0 0 1 10 3 0 0 0 12.313447
1786 2 -10.3999996 -17.4799996 -0.6702 0 0 0 4 4 4 0 0 0 11.3994427
1795 2 -8.8190003 -8.6300001 -11.6400004 0 0 0 0 12 0 0 0 0 10.8119269
1796 4 -25.5599995 -4.4390002 -36.6500016 0 0 1 1 9 3 0 0 0 11.9411202
1798 5 -29.2399998 -19.9200002 -28.0900002 0 0 0 1 10 2 0 0 0 12.1861563
1804 5 -34.2299996 -14.7299996 -32.6300011 0 0 0 1 10 4 0 0 0 12.5837384
1810 2 -28.6100006 -39.9300004 -31.6900006 0 0 0 0 12 0 0 0 0 11.4541369
1811 4 -2.4089999 -26.6200009 -43.0699997 0 0 0 1 10 3 0 0 0 12.3043175
1821 4 1.538 -29.4899998 -42.0800018 0 0 0 1 12 1 0 0 0 11.5500241
1834 1 -14.25 -27.2999992 -16.3299999 0 0 0 3 6 4 0 0 0 11.1251249
1835 2 -12.4799996 -3.3970001 -15.6400004 0 0 0 1 10 1 1 0 0 11.9990406
1840 5 -0.05332 -38.9500008 -23.3999996 0 0 0 3 6 5 0 0 0 12.8016434
1844 2 -31.2900009 -42.0499992 -29.75 0 0 0 0 12 0 0 0 0 11.7085448
1849 5 -10.4899998 -32.1599999 -10.8100004 0 0 0 1 10 2 0 0 0 12.1202383
1850 4 -29.5900002 -27.9099998 -19.5300007 0 0 0 1 10 3 0 0 0 12.1791554
1853 4 2.152 -18.1000004 -25.9200002 0 0 4 0 6 6 0 0 0 13.1453896
1855 2 -6.039 -36.2700005 -18.3999996 0 0 0 3 8 2 0 0 0 11.6253433
1870 5 -14.1599999 -29.9599992 -25.6599999 0 0 0 0 12 3 0 0 0 13.3688154
1873 2 0.07588 -42.0900002 -18.7399998 0 0 0 0 12 0 0 0 0 11.6133814
1876 4 -35.5299988 -29.5200005 -35.9300004 0 0 0 1 10 5 0 0 0 13.8286038
1893 4 -26.8600006 -7.665 -19.9599992 0 0 0 0 12 4 0 0 0 13.3661394
1914 2 -27.1499996 -6.2979999 -36.3800011 0 0 0 1 10 3 0 0 0 11.8282566
1919 4 -7.6880002 -11.3100004 -1.913 0 0 0 1 10 4 0 0 0 12.6355467
1923 4 -7.962 -7.408 -9.6490002 0 0 0 2 8 4 0 0 0 11.7273064
1928 2 -31.3199997 -12.4499998 -12.2200003 0 0 0 2 8 4 0 0 0 11.8906776
1934 3 -28.6700001 -21.5699997 -21.7600003 0 0 0 0 12 0 0 0 0 12.7163077
1937 4 -36.8499986 -41.6599999 -25.0300007 0 0 0 2 8 4 0 0 0 11.8458338
1955 5 -20.1200008 -8.1499996 -8.7709999 0 0 1 1 9 3 0 0 0 12.2084837
1958 5 -28.3299999 -1.397 -10.8900004 0 0 0 0 12 0 0 0 0 10.569746
1960 4 -30.3700009 -36.5200005 -14.9499998 0 0 0 1 10 2 0 0 0 12.4757204
1967 4 -13.9799996 -9.3789997 -30.2199993 0 0 0 0 12 0 0 0 0 11.6144457
1980 2 -9.9510002 -14.7299996 -39.6899987 0 0 1 2 8 2 1 0 0 11.4810696
1989 2 0.4474 -19.8600006 -12.1300001 0 0 0 3 6 4 0 0 0 12.04879
2006 4 -23.9799996 -40.5099983 -38.3899994 0 0 0 1 10 4 0 0 0 13.5186606
2013 4 -13.3199997 -14.2799997 -1.594 0 0 0 2 8 4 0 0 0 12.8091564
2014 4 -14.6800003 -42.4599991 -9.7130003 0 0 0 2 10 0 0 0 0 11.7506151
2030 5 0.6638 -18.7800007 -15.0 0 0 0 3 6 4 0 0 0 11.8589964
2034 4 -29.8099995 -30.6499996 -39.4099999 0 0 0 0 12 2 0 0 0 11.8188973
2038 4 -2.0450001 -1.873 -34.8400002 0 0 1 2 7 6 0 0 0 12.4023562
2055 1 -3.967 -16.7600003 -40.5699997 0 0 0 0 12 0 0 0 0 11.0983305
2062 4 -32.2000008 -33.9399986 -21.0 0 0 0 3 8 3 0 0 0 11.6753779
2079 4 -5.5879998 -11.5799999 -30.1599999 0 0 0 1 10 5 0 0 0 13.0411358
2085 4 -17.3600006 -38.4700012 -28.1000004 0 0 1 3 5 7 0 0 0 13.3226233
2090 2 -5.1939998 -20.9099998 -5.27 0 0 1 5 1 7 0 0 0 11.3764753
2108 1 -23.0599995 -16.2199993 -0.5322 0 0 0 2 8 2 0 0 0 11.0043144
2110 1 -10.2100001 -19.3299999 -32.5600014 0 0 0 4 6 2 0 0 0 10.9370032
2118 5 -7.5060001 -14.5900002 -22.2000008 0 0 1 3 5 5 0 0 0 11.3690386
2131 5 0.8326 -37.5699997 -35.25 0 0 0 4 8 3 0 0 0 12.679739
2133 1 -18.8600006 -42.1699982 -42.2599983 0 0 0 2 10 0 0 0 0 11.2342034
2149 4 -17.3500004 -28.3700009 -38.1599999 0 0 0 1 10 3 0 0 0 12.4102774
2161 2 -16.8099995 -33.1800003 -8.4130001 0 0 0 3 6 4 0 0 0 11.2136049
2177 4 -20.2999992 -0.1033 -25.2000008 0 0 0 1 10 2 0 0 0 12.0808439
2191 2 -24.0300007 -27.0100002 -1.197 0 0 0 2 10 1 0 0 0 11.8029814
2195 2 -25.6700001 -35.7700005 -15.2399998 0 0 0 0 12 0 0 0 0 11.4342432
2216 5 -16.2399998 -20.0200005 -30.4599991 0 0 0 2 10 1 0 0 0 11.9737682
2229 4 -32.1399994 -36.3499985 -25.3199997 0 0 0 2 8 4 0 0 0 12.1106186
2234 5 -32.9700012 -23.1000004 -32.8400002 0 0 0 4 6 6 0 0 0 13.5154295
2238 4 -26.6599999 -13.4499998 -13.9799996 0 0 0 1 10 2 0 0 0 11.8330746
2243 2 -18.5 -25.5300007 -15.9200002 0 0 0 0 12 0 0 0 0 10.9821424
2246 4 -27.3799992 -7.9180002 -5.1100001 0 0 0 0 12 2 0 0 0 12.2903652
2247 2 -20.4400006 -24.4899998 -19.1299992 0 0 0 2 7 2 1 0 0 11.5722599
2256 4 -15.79 -14.3699999 -43.2799988 0 0 1 3 6 2 1 0 0 11.7903242
2265 5 -8.0019999 -35.1599999 -17.1599999 0 0 0 2 8 3 0 0 0 11.8069077
2266 2 -9.776 -3.3139999 -24.9599992 0 0 0 3 6 3 0 0 0 11.6375618
2270 5 -23.1200008 -20.4300003 -35.3300018 0 0 0 2 8 3 0 0 0 13.0410099
2272 4 -23.4699993 -23.2000008 -39.5999985 0 0 0 3 6 6 0 0 0 12.1674519
2277 5 -15.5200005 -28.3400002 -42.4199982 0 0 0 2 8 4 0 0 0 12.1671972
2282 4 -32.7900009 -37.5999985 -6.1770001 0 0 0 3 7 3 1 0 0 12.9523126
2283 4 -4.98 -14.9399996 -21.6399994 0 0 1 0 9 3 0 0 0 11.7931614
2287 4 -27.0499992 -7.5539999 -15.7200003 0 0 1 1 9 4 0 0 0 11.8345452
2288 4 -18.0599995 -2.1619999 -22.5400009 0 0 2 0 9 2 1 0 0 11.6855726
2294 4 -28.3700009 -5.4850002 -38.3899994 0 0 2 3 4 6 0 0 0 12.7764292
2295 5 -24.1000004 -25.5699997 -39.2400017 0 0 1 3 5 3 2 0 0 11.9052458
2298 4 -20.9099998 -21.1000004 -14.2600002 0 0 0 3 8 3 0 0 0 12.2964039
2309 4 -16.8099995 -12.5799999 -23.2099991 0 0 0 1 8 4 0 0 0 11.6993456
2313 4 -10.7799998 -35.0200005 -4.2020001 0 0 0 3 8 2 0 0 0 12.86055
2320 4 -1.305 -43.6500016 -36.7099991 0 0 0 2 10 3 0 0 0 13.4819336
2322 1 -24.4099999 -14.6000004 -10.8599998 0 0 0 1 10 2 0 0 0 11.1824093
2346 5 -12.9499998 -19.6299992 -39.5999985 0 0 0 4 8 1 0 0 0 12.4097386
2347 4 -30.1800003 -2.445 -0.9971 0 0 0 2 8 4 0 0 0 12.1344175
2355 4 -0.8673 -20.5200005 -37.0999985 0 0 1 3 4 6 1 0 0 12.4587565
2365 2 -3.674 -8.5450001 -26.7999993 0 0 0 1 10 2 0 0 0 11.7152701
2388 4 -24.8199997 -30.5799999 -8.5109997 0 0 0 3 7 3 1 0 0 12.0176001
2394 2 -20.8999996 -6.7360001 -6.929 0 0 0 2 8 3 0 0 0 11.6670161
2397 2 3.777 -0.1722 -34.9900018 0 0 0 2 8 2 0 0 0 11.7071972
2412 5 -35.6300011 -38.1800003 -9.6000004 0 0 0 2 10 0 2 0 0 12.6168232
2414 1 -18.9400006 -37.7700005 -7.684 0 0 0 0 12 0 0 0 0 11.2104807
2423 5 -4.5900002 -17.6900006 -31.5 0 0 0 0 12 0 0 0 0 11.6733742
2427 4 3.062 -24.2199993 -17.3400002 0 0 0 3 8 2 0 0 0 11.6348162
2446 5 -11.2399998 -10.8500004 -18.5200005 0 0 0 5 4 3 0 0 0 11.6402264
2457 1 -38.4700012 -40.8899994 -12.6000004 0 0 0 0 12 0 0 0 0 11.1275168
2464 4 -21.8400002 -34.7999993 -14.5299998 0 0 0 2 10 0 0 0 0 10.84762
2466 4 4.6919999 -7.1500001 -33.2099991 0 0 0 3 7 5 1 0 0 13.1354981
2469 5 -6.7620001 -6.4510002 -37.0800018 0 0 0 0 12 3 0 0 0 12.210454
2479 4 -12.5799999 -3.698 -8.3079996 0 0 0 1 10 4 0 0 0 12.5081311
2482 2 0.9217 -26.5499993 -4.3709998 0 0 0 1 10 4 0 0 0 13.5279055
2492 2 -5.1030002 -12.4300003 -27.8799992 0 0 0 1 10 2 0 0 0 11.40203
2499 4 -13.9099998 -38.5699997 -0.3604 0 0 1 3 6 4 1 0 0 12.7478466
2506 2 -15.6599999 -37.0200005 -11.1000004 0 0 0 1 10 2 0 0 0 11.7737437
2507 2 -30.7299996 -40.25 -33.2999992 0 0 1 1 8 3 1 0 0 12.2564192
2509 4 -18.1499996 -11.6700001 -41.0299988 0 0 0 4 4 4 2 0 0 12.3704767
2515 4 -17.4599991 -0.6405 -9.9700004 0 0 0 1 10 4 0 0 0 12.2571392
2536 5 -18.75 -3.5220001 -26.6000004 0 0 1 3 5 5 0 0 0 11.7569294
2537 5 -0.8338 -10.8400002 -25.1499996 0 0 0 0 12 0 0 0 0 11.1856871
2542 2 -6.5609999 -19.4799996 -37.4900017 0 0 0 1 10 2 0 0 0 11.7301331
2543 4 3.6970001 -20.0100002 -29.8099995 0 0 0 4 4 7 0 0 0 12.5080481
2545 2 -19.0499992 -21.2800007 -38.0800018 0 0 0 1 10 4 0 0 0 12.8898288
2570 2 -24.1000004 -28.1200008 -38.2900009 0 0 0 2 9 1 0 0 0 12.52067
2574 4 -28.5400009 -1.344 -26.1399994 0 0 1 3 7 3 0 0 0 12.233779
2585 3 -31.6700001 -5.5110002 -3.445 0 0 0 2 8 5 0 0 0 13.0863495
2593 4 -21.7600003 -29.2299996 -39.2900009 0 0 0 0 12 3 0 0 0 12.770567
2603 5 4.4299999 -17.9500008 -19.1499996 0 0 0 0 12 0 0 0 0 11.1028528
2606 4 -10.79 -31.8600006 -8.5179997 0 0 0 1 10 2 0 0 0 11.8895674
2614 4 -28.7600003 -15.9200002 -3.7160001 0 0 0 3 6 6 0 0 0 12.8011389
2620 4 -7.7979999 -25.9099998 -6.31 0 0 0 3 6 4 0 0 0 12.0840197
2621 2 -1.0700001 -2.714 -19.1599999 0 0 0 3 6 4 0 0 0 11.0988379
2634 2 -26.3999996 -32.1199989 -9.7399998 0 0 0 0 12 0 0 0 0 11.9017106
2635 2 -30.4699993 -20.5 -3.52 0 0 2 3 4 5 0 0 0 12.4487896
2640 4 6.25 -7.54 -14.8000002 0 0 0 1 12 2 0 0 0 13.1433439
2646 5 -18.2900009 -29.2800007 -10.4200001 0 0 0 2 12 1 0 0 0 12.7501097
2659 2 -30.4799996 -24.0200005 -24.7000008 0 0 0 3 8 3 0 0 0 12.2644539
2665 5 -21.6299992 -19.2800007 -42.0999985 0 0 0 4 6 3 0 0 0 11.9528608
2685 5 3.661 -6.7909999 -21.0900002 0 0 0 0 12 5 0 0 0 14.2960634
2690 4 -20.0799999 -3.0539999 -4.8299999 0 0 0 1 10 2 0 0 0 12.6750727
2691 2 1.4450001 -3.526 -2.445 0 0 0 1 10 3 0 0 0 11.8284779
2694 4 -21.8299999 -33.7999993 -32.7999993 0 0 0 3 6 4 0 0 0 11.2617006
2704 5 -6.3629999 -6.7779999 -39.3600006 0 0 0 3 7 3 1 0 0 12.638135
2711 5 -8.3979998 -16.2299996 -16.1200008 0 0 1 2 5 5 0 0 0 11.5277519
2713 2 -28.2000008 -20.6399994 -41.8899994 0 0 0 0 12 0 0 0 0 11.7023297
2717 2 -28.3899994 -26.2700005 -40.2000008 0 0 0 1 10 5 0 0 0 12.7018261
2721 2 -2.8220001 -14.7700005 -31.1800003 0 0 0 4 4 4 0 0 0 11.5280962
2731 4 -38.4599991 -35.3499985 -18.0200005 0 0 0 1 10 4 0 0 0 12.988431
2740 1 -3.612 -18.3799992 -2.4560001 0 0 0 1 10 2 0 0 0 12.273283
2741 4 0.6047001 -36.7700005 -22.1399994 0 0 1 2 7 5 0 0 0 12.8168497
2749 4 -11.1300001 -16.8099995 -36.4399987 0 0 0 1 10 2 0 0 0 11.864976
2764 2 -28.5100003 -35.2999992 -1.984 0 0 0 0 12 0 0 0 0 10.3520384
2765 5 -2.888 -15.4300003 -5.5700002 0 0 0 4 6 4 0 0 0 12.4416027
2766 4 -26.9799996 -23.8500004 -27.0900002 0 0 0 3 6 3 2 0 0 12.561594
2769 4 -23.5499993 -29.7399998 -14.79 0 0 0 3 8 2 0 0 0 12.2180042
2778 4 -19.5699997 -29.8700008 -17.4699993 0 0 0 3 6 4 0 0 0 11.35359
2783 4 -14.4899998 -28.8799992 -21.4799996 0 0 0 1 10 4 0 0 0 12.569191
2802 5 -33.9000016 -26.6399994 -14.1800003 0 0 0 4 4 6 0 0 0 11.8376513
2818 4 -31.5100003 -15.7799998 -18.2099991 0 0 0 5 2 6 0 0 0 12.1468105
2823 2 -23.6499996 -29.7700005 -17.2600002 0 0 0 2 8 4 0 0 0 11.4678927
2825 5 -17.4699993 -10.25 -22.1599999 0 0 0 0 12 2 0 0 0 12.3447714
2832 4 -25.6700001 -2.187 -1.286 0 0 0 1 10 4 0 0 0 12.7600155
2834 5 -25.7299996 -32.1899986 -12.2399998 0 0 0 1 10 2 0 0 0 11.9808092
2836 4 -22.5900002 -13.6400004 -25.7399998 0 0 1 2 9 3 0 0 0 13.393117
2839 5 -28.4300003 -16.3600006 -1.268 0 0 0 4 5 5 1 0 0 12.6153527
2861 4 -13.75 -33.4000015 -31.3299999 0 0 0 3 6 4 2 0 0 13.0543346
2863 5 -29.1299992 -35.1100006 -38.5099983 0 0 1 1 9 4 0 0 0 11.9390584
2878 2 -15.04 -18.1100006 -14.6999998 0 0 0 2 8 3 0 0 0 11.6228533
2884 2 -20.7600003 -32.7599983 -18.7900009 0 0 0 1 10 2 0 0 0 10.7248507
2910 4 -24.9799996 -1.458 -23.8299999 0 0 0 1 10 4 0 0 0 13.4610806
2919 5 3.3580001 -21.4400006 -42.6599999 0 0 0 0 12 0 0 0 0 11.3327866
2945 5 -6.9889998 -22.7900009 -17.6100006 0 0 0 0 12 0 0 0 0 10.6650849
2954 5 -24.4899998 -34.9599992 -39.2000008 0 0 0 3 10 2 0 0 0 13.0578022
2956 2 -22.1599999 -32.6500016 -28.2700005 0 0 0 3 8 3 0 0 0 12.3346748
2962 4 0.8858 -11.7200003 -39.7999993 0 0 0 1 12 2 0 0 0 13.1787605
2963 4 -31.8799992 -7.0980001 -41.0299988 0 0 0 0 12 4 0 0 0 13.1015224
2964 2 -5.4990001 -26.5300007 -5.5739999 0 0 0 3 6 4 0 0 0 11.5086947
2979 4 -29.8899994 -33.25 -1.058 0 0 0 0 12 3 0 0 0 12.2250166
2997 5 0.2201 -18.5499993 -27.5599995 0 0 0 4 4 4 0 0 0 11.5762053
2998 2 -38.1500015 -38.3499985 -9.0719996 0 0 0 0 12 0 0 0 0 11.7449332
3014 5 -14.4099999 -2.737 -30.3299999 0 0 0 0 12 3 0 0 0 13.0929041
3016 1 -10.6000004 -38.2900009 -38.0200005 0 0 0 0 12 0 0 0 0 11.0606689
3025 5 -13.54 -9.0270004 -36.9799996 0 0 0 1 10 2 0 0 0 12.2252979
3049 4 -31.1100006 -14.3699999 -36.7900009 0 0 0 2 10 1 0 0 0 12.4227486
3053 3 -1.706 -37.7700005 -33.4500008 0 0 1 5 5 3 0 0 0 11.9659328
3056 5 -16.4099999 -32.1599999 -12.8400002 0 0 0 0 12 2 0 0 0 12.1838636
3059 4 -29.5200005 -30.4200001 -15.1599999 0 0 0 2 10 1 0 0 0 12.3084536
3069 2 3.901 -2.1370001 -29.1599999 0 0 0 0 12 0 0 0 0 11.2569647
3072 4 -20.5400009 -13.6700001 -33.75 0 0 0 0 12 2 0 0 0 11.9236804
3076 2 -31.1000004 -10.8000002 -43.5600014 0 0 0 2 10 2 0 0 0 12.5888367
3078 1 -4.5289998 -37.5600014 -5.7890001 0 0 0 1 10 2 0 0 0 11.9219314
3093 2 -3.9820002 -13.5100003 -29.6299992 0 0 0 1 10 2 0 0 0 10.7054281
3095 4 -27.3099995 -17.0499992 -20.6800003 0 0 0 3 6 4 0 0 0 11.5896673
3099 5 -3.932 -26.6399994 -12.1999998 0 0 0 2 8 2 0 0 0 11.6904774
3100 2 -22.1700001 -43.0600014 -17.3999996 0 0 0 0 12 2 0 0 0 12.8865118
3104 1 -20.1800003 -9.9280006 -37.6599999 0 0 1 1 9 3 0 0 0 11.3836699
3117 2 -26.7000008 -3.6570001 -17.9599992 0 0 0 1 10 2 0 0 0 11.9822054
3134 5 -33.7099991 -17.4500008 -41.5900002 0 0 1 0 9 3 0 0 0 11.1640873
3135 4 -1.373 -22.9599992 -19.9599992 0 0 1 0 11 2 0 0 0 12.6270552
3138 5 -8.757 -8.9589996 -21.7099991 0 0 0 2 8 2 2 0 0 12.1945076
3146 4 -14.4399996 -20.5599995 -14.4200001 0 0 0 1 10 5 0 0 0 12.6450119
3159 5 -36.8100014 -33.8100014 -22.1700001 0 0 0 2 8 2 0 0 0 11.8289671
3182 4 -9.6820002 -37.7799988 -29.3199997 0 0 0 4 6 5 0 0 0 12.7585612
3188 5 -16.1700001 -22.3700009 -21.0699997 0 0 0 5 3 6 1 0 0 12.8090172
3193 5 -36.1699982 -35.8899994 -3.8139999 0 0 1 1 9 3 0 0 0 12.0804558
3200 2 -11.4399996 -2.329 -29.5900002 0 0 0 0 12 0 0 0 0 10.809001
3201 4 -16.4899998 -29.1000004 -26.0300007 0 0 0 4 6 3 0 0 0 11.8904552
3202 5 -26.5799999 -35.8499986 -12.9099998 0 0 0 4 8 2 0 0 0 12.963832
3218 2 -27.8099995 -3.2690001 -9.6820002 0 0 0 3 6 4 0 0 0 11.8222962
3219 5 -6.6830001 -36.6399994 -38.7700005 0 0 0 2 8 2 0 0 0 12.8559266
3224 4 -18.5200005 -30.25 -1.14 0 0 0 2 8 5 0 0 0 12.7222977
3234 4 -25.0100002 -25.1100006 -0.5814 0 0 1 1 8 3 1 0 0 11.4261513
3240 5 -27.9799996 -20.4599991 -39.4000015 0 0 0 2 10 0 0 0 0 11.215951
3243 4 4.9910002 -10.6400004 -30.5699997 0 0 0 1 10 3 0 0 0 12.2042999