ITEM: TIMESTEP
0
ITEM: NUMBER OF ATOMS
16384
ITEM: BOX BOUNDS pp pp pp
0.0000000000000000e+00 2.5723396574413801e+01
0.0000000000000000e+00 2.5723396574413801e+01
0.0000000000000000e+00 2.5723396574413801e+01
ITEM: ATOMS id type x y z
1 4 0 0 0
2 4 0.810236 0.810236 0
3 4 2.43071 0.810236 0
4 4 2.43071 0 0.810236
5 4 1.62047 0.810236 0.810236
7 4 3.24094 0.810236 0.810236
32 4 0.810236 1.62047 0.810236
33 4 0 2.43071 0.810236
34 4 2.43071 1.62047 0.810236
35 4 1.62047 2.43071 0.810236
36 4 3.24094 1.62047 0
39 4 3.24094 2.43071 0.810236
73 4 0.810236 3.24094 0.810236
74 4 2.43071 3.24094 0.810236
522 4 2.43071 0 2.43071
523 4 1.62047 0.810236 2.43071
553 4 0.810236 2.43071 1.62047
554 4 0 2.43071 2.43071
555 4 2.43071 2.43071 1.62047
556 4 2.43071 1.62047 2.43071
557 4 1.62047 2.43071 2.43071
558 4 3.24094 1.62047 1.62047
560 4 3.24094 2.43071 2.43071
587 4 0 3.24094 1.62047
589 4 0.810236 3.24094 2.43071
1037 4 2.43071 0.810236 3.24094
1075 4 1.62047 1.62047 3.24094
1105 4 1.62047 3.24094 3.24094
8193 2 0 0 0
8194 2 0.810236 0.810236 0
8195 2 0.810236 0 0.810236
8196 2 0 0.810236 0.810236
8197 2 2.43071 0 0.810236
8198 2 3.24094 0 0
8226 2 0 1.62047 0
8227 2 0.810236 2.43071 0
8228 2 2.43071 1.62047 0.810236
8229 2 3.24094 1.62047 0
8256 2 0.810236 3.24094 0.810236
8258 2 1.62047 3.24094 0
8260 2 3.24094 3.24094 0
8730 2 0.810236 0.810236 1.62047
8731 2 0 0.810236 2.43071
8732 2 2.43071 0.810236 1.62047
8733 2 2.43071 0 2.43071
8734 2 1.62047 0.810236 2.43071
8735 2 3.24094 0 1.62047
8737 2 3.24094 0.810236 2.43071
8760 2 1.62047 1.62047 1.62047
8761 2 2.43071 2.43071 1.62047
8790 2 0 3.24094 1.62047
8791 2 0.810236 3.24094 2.43071
8793 2 1.62047 3.24094 1.62047
9232 2 0 0 3.24094
9233 2 0.810236 0.810236 3.24094
9234 2 1.62047 0 3.24094
9236 2 3.24094 0 3.24094
9265 2 0.810236 2.43071 3.24094
9267 2 1.62047 1.62047 3.24094
6 4 4.05118 0 0.810236
8 4 5.67165 0.810236 0
9 4 5.67165 0 0.810236
10 4 4.86142 0.810236 0.810236
11 4 6.48189 0 0
12 4 6.48189 0.810236 0.810236
37 4 4.05118 2.43071 0
38 4 4.05118 1.62047 0.810236
40 4 5.67165 2.43071 0
41 4 5.67165 1.62047 0.810236
42 4 4.86142 2.43071 0.810236
43 4 6.48189 1.62047 0
44 4 7.29213 2.43071 0
45 4 6.48189 2.43071 0.810236
76 4 4.86142 3.24094 0
77 4 5.67165 3.24094 0.810236
78 4 7.29213 3.24094 0.810236
524 4 4.05118 0 2.43071
525 4 5.67165 0.810236 1.62047
526 4 5.67165 0 2.43071
527 4 4.86142 0.810236 2.43071
528 4 6.48189 0 1.62047
529 4 7.29213 0 2.43071
559 4 4.05118 1.62047 2.43071
561 4 4.86142 1.62047 1.62047
562 4 5.67165 2.43071 1.62047
563 4 7.29213 2.43071 1.62047
564 4 7.29213 1.62047 2.43071
592 4 6.48189 3.24094 1.62047
593 4 7.29213 3.24094 2.43071
1040 4 4.05118 0.810236 3.24094
1042 4 4.86142 0 3.24094
1043 4 5.67165 0.810236 3.24094
1045 4 6.48189 0 3.24094
1046 4 7.29213 0.810236 3.24094
1077 4 4.05118 2.43071 3.24094
1080 4 4.86142 1.62047 3.24094
1081 4 5.67165 2.43071 3.24094
1110 4 6.48189 3.24094 3.24094
8199 2 4.05118 0.810236 0
8200 2 5.67165 0.810236 0
8201 2 7.29213 0 0.810236
8230 2 4.05118 2.43071 0
8231 2 6.48189 1.62047 0
8232 2 7.29213 1.62047 0.810236
8261 2 4.05118 3.24094 0.810236
8263 2 4.86142 3.24094 0
8265 2 6.48189 3.24094 0
8267 2 7.29213 3.24094 0.810236
8736 2 4.05118 0 2.43071
8738 2 5.67165 0 2.43071
8739 2 4.86142 0.810236 2.43071
8740 2 6.48189 0 1.62047
8741 2 6.48189 0.810236 2.43071
8762 2 4.05118 2.43071 1.62047
8763 2 4.05118 1.62047 2.43071
8764 2 4.86142 2.43071 2.43071
8765 2 7.29213 2.43071 1.62047
8766 2 7.29213 1.62047 2.43071
8767 2 6.48189 2.43071 2.43071
8796 2 4.05118 3.24094 2.43071
9237 2 4.05118 0.810236 3.24094
9239 2 5.67165 0.810236 3.24094
9240 2 6.48189 0 3.24094
9269 2 4.05118 2.43071 3.24094
9272 2 4.86142 1.62047 3.24094
9273 2 5.67165 2.43071 3.24094
9275 2 6.48189 1.62047 3.24094
9309 2 6.48189 3.24094 3.24094
13 4 9.72283 0 0
46 4 8.9126 1.62047 0.810236
47 4 8.10236 2.43071 0.810236
48 4 9.72283 1.62047 0
49 4 10.5331 2.43071 0
50 4 10.5331 1.62047 0.810236
51 4 9.72283 2.43071 0.810236
80 4 8.9126 3.24094 0.810236
81 4 9.72283 3.24094 0
82 4 10.5331 3.24094 0.810236
530 4 8.9126 0 2.43071
531 4 8.10236 0.810236 2.43071
532 4 10.5331 0.810236 1.62047
533 4 10.5331 0 2.43071
565 4 8.10236 1.62047 1.62047
566 4 8.9126 2.43071 1.62047
567 4 8.9126 1.62047 2.43071
568 4 9.72283 1.62047 1.62047
569 4 10.5331 2.43071 1.62047
570 4 10.5331 1.62047 2.43071
594 4 8.10236 3.24094 1.62047
596 4 9.72283 3.24094 1.62047
597 4 10.5331 3.24094 2.43071
1049 4 10.5331 0.810236 3.24094
1083 4 8.10236 1.62047 3.24094
1085 4 9.72283 1.62047 3.24094
1113 4 8.10236 3.24094 3.24094
8202 2 8.9126 0 0.810236
8203 2 8.10236 0.810236 0.810236
8204 2 9.72283 0 0
8205 2 10.5331 0.810236 0
8206 2 9.72283 0.810236 0.810236
8233 2 8.9126 2.43071 0
8234 2 10.5331 2.43071 0
8235 2 10.5331 1.62047 0.810236
8268 2 8.10236 3.24094 0
8270 2 8.9126 3.24094 0.810236
8742 2 8.10236 0.810236 2.43071
8743 2 9.72283 0 1.62047
8744 2 10.5331 0.810236 1.62047
8745 2 9.72283 0.810236 2.43071
8768 2 8.9126 2.43071 1.62047
8769 2 8.10236 2.43071 2.43071
8770 2 9.72283 1.62047 1.62047
8771 2 10.5331 2.43071 1.62047
8772 2 9.72283 2.43071 2.43071
8802 2 8.9126 3.24094 2.43071
9242 2 8.9126 0.810236 3.24094
9245 2 10.5331 0.810236 3.24094
9280 2 9.72283 1.62047 3.24094
9312 2 8.10236 3.24094 3.24094
9314 2 9.72283 3.24094 3.24094
14 4 11.3433 0 0
15 4 12.1535 0 0.810236
16 4 11.3433 0.810236 0.810236
17 4 12.9638 0 0
18 4 13.774 0.810236 0
19 4 13.774 0 0.810236
52 4 11.3433 2.43071 0.810236
53 4 12.9638 1.62047 0
54 4 13.774 2.43071 0
55 4 13.774 1.62047 0.810236
56 4 12.9638 2.43071 0.810236
57 4 14.5843 1.62047 0
59 4 14.5843 2.43071 0.810236
84 4 13.774 3.24094 0.810236
534 4 11.3433 0 1.62047
535 4 11.3433 0.810236 2.43071
536 4 12.9638 0 1.62047
537 4 13.774 0.810236 1.62047
538 4 13.774 0 2.43071
539 4 12.9638 0.810236 2.43071
571 4 12.9638 1.62047 1.62047
572 4 13.774 2.43071 1.62047
573 4 13.774 1.62047 2.43071
574 4 12.9638 2.43071 2.43071
575 4 14.5843 1.62047 1.62047
577 4 14.5843 2.43071 2.43071
598 4 11.3433 3.24094 1.62047
600 4 12.1535 3.24094 2.43071
603 4 14.5843 3.24094 1.62047
1051 4 12.1535 0.810236 3.24094
1053 4 12.9638 0 3.24094
1054 4 13.774 0.810236 3.24094
1087 4 11.3433 1.62047 3.24094
1088 4 12.1535 2.43071 3.24094
1090 4 13.774 2.43071 3.24094
1092 4 14.5843 1.62047 3.24094
1120 4 14.5843 3.24094 3.24094
8207 2 11.3433 0 0
8208 2 12.1535 0 0.810236
8209 2 13.774 0.810236 0
8212 2 14.5843 0.810236 0.810236
8236 2 11.3433 1.62047 0
8237 2 11.3433 2.43071 0.810236
8238 2 12.9638 1.62047 0
8239 2 13.774 2.43071 0
8241 2 14.5843 2.43071 0.810236
8274 2 12.9638 3.24094 0
8277 2 14.5843 3.24094 0
8746 2 11.3433 0 1.62047
8747 2 12.1535 0 2.43071
8748 2 12.9638 0 1.62047
8749 2 12.9638 0.810236 2.43071
8752 2 14.5843 0.810236 2.43071
8773 2 11.3433 1.62047 1.62047
8774 2 12.1535 1.62047 2.43071
8775 2 11.3433 2.43071 2.43071
8776 2 13.774 2.43071 1.62047
8777 2 12.9638 2.43071 2.43071
8778 2 14.5843 1.62047 1.62047
8804 2 11.3433 3.24094 1.62047
8806 2 13.774 3.24094 2.43071
9249 2 12.9638 0 3.24094
9250 2 13.774 0.810236 3.24094
9252 2 14.5843 0 3.24094
9283 2 12.1535 2.43071 3.24094
9285 2 12.9638 1.62047 3.24094
9286 2 13.774 2.43071 3.24094
9317 2 11.3433 3.24094 3.24094
9321 2 14.5843 3.24094 3.24094
20 4 15.3945 0.810236 0
21 4 15.3945 0 0.810236
22 4 17.015 0.810236 0
23 4 17.8252 0 0
58 4 15.3945 2.43071 0
60 4 17.015 1.62047 0.810236
61 4 16.2047 2.43071 0.810236
87 4 17.015 3.24094 0.810236
540 4 16.2047 0 1.62047
541 4 17.8252 0 1.62047
576 4 15.3945 2.43071 1.62047
578 4 16.2047 2.43071 2.43071
581 4 17.8252 2.43071 2.43071
604 4 17.8252 3.24094 1.62047
1056 4 15.3945 0.810236 3.24094
1061 4 17.8252 0 3.24094
1093 4 15.3945 2.43071 3.24094
1095 4 17.8252 1.62047 3.24094
1125 4 17.8252 3.24094 3.24094
8210 2 15.3945 0.810236 0
8211 2 15.3945 0 0.810236
8213 2 16.2047 0 0
8214 2 17.015 0 0.810236
8215 2 16.2047 0.810236 0.810236
8217 2 17.8252 0.810236 0.810236
8240 2 15.3945 1.62047 0.810236
8242 2 17.015 1.62047 0.810236
8243 2 17.8252 1.62047 0
8279 2 15.3945 3.24094 0.810236
8281 2 16.2047 3.24094 0
8283 2 17.015 3.24094 0.810236
8750 2 15.3945 0.810236 1.62047
8751 2 15.3945 0 2.43071
8753 2 16.2047 0.810236 2.43071
8779 2 17.015 1.62047 2.43071
8780 2 16.2047 2.43071 2.43071
8782 2 17.8252 2.43071 2.43071
8810 2 17.015 3.24094 2.43071
8812 2 17.8252 3.24094 1.62047
9253 2 15.3945 0.810236 3.24094
9255 2 16.2047 0 3.24094
9289 2 16.2047 1.62047 3.24094
9290 2 17.015 2.43071 3.24094
9291 2 17.8252 1.62047 3.24094
9325 2 16.2047 3.24094 3.24094
24 4 18.6354 0.810236 0
25 4 20.2559 0.810236 0
26 4 21.8764 0.810236 0
62 4 18.6354 1.62047 0.810236
63 4 19.4457 1.62047 0
64 4 20.2559 2.43071 0
65 4 20.2559 1.62047 0.810236
66 4 21.8764 2.43071 0
67 4 21.8764 1.62047 0.810236
89 4 18.6354 3.24094 0.810236
542 4 18.6354 0.810236 1.62047
543 4 20.2559 0.810236 1.62047
544 4 20.2559 0 2.43071
545 4 19.4457 0.810236 2.43071
546 4 21.0661 0 1.62047
547 4 21.8764 0.810236 1.62047
548 4 21.8764 0 2.43071
549 4 21.0661 0.810236 2.43071
579 4 18.6354 2.43071 1.62047
580 4 18.6354 1.62047 2.43071
582 4 20.2559 2.43071 1.62047
583 4 21.0661 1.62047 1.62047
584 4 21.8764 2.43071 1.62047
606 4 21.8764 3.24094 2.43071
1062 4 18.6354 0.810236 3.24094
1065 4 19.4457 0 3.24094
1067 4 21.0661 0 3.24094
1096 4 18.6354 2.43071 3.24094
1097 4 20.2559 2.43071 3.24094
1099 4 21.0661 1.62047 3.24094
1100 4 21.8764 2.43071 3.24094
1128 4 19.4457 3.24094 3.24094
8216 2 18.6354 0.810236 0
8218 2 19.4457 0 0
8219 2 20.2559 0.810236 0
8220 2 19.4457 0.810236 0.810236
8221 2 21.0661 0 0
8222 2 21.8764 0 0.810236
8223 2 21.0661 0.810236 0.810236
8244 2 18.6354 2.43071 0
8245 2 19.4457 1.62047 0
8246 2 20.2559 1.62047 0.810236
8247 2 21.0661 1.62047 0
8248 2 21.8764 2.43071 0
8249 2 21.8764 1.62047 0.810236
8250 2 21.0661 2.43071 0.810236
8285 2 19.4457 3.24094 0
8287 2 21.8764 3.24094 0.810236
8754 2 18.6354 0.810236 1.62047
8755 2 18.6354 0 2.43071
8756 2 19.4457 0.810236 2.43071
8757 2 21.0661 0 1.62047
8758 2 21.8764 0 2.43071
8781 2 18.6354 1.62047 2.43071
8783 2 19.4457 1.62047 1.62047
8784 2 20.2559 2.43071 1.62047
8785 2 19.4457 2.43071 2.43071
8786 2 21.0661 2.43071 2.43071
8814 2 18.6354 3.24094 2.43071
8816 2 19.4457 3.24094 1.62047
8818 2 20.2559 3.24094 2.43071
8820 2 21.8764 3.24094 2.43071
9258 2 20.2559 0.810236 3.24094
9293 2 21.0661 1.62047 3.24094
9332 2 21.0661 3.24094 3.24094
27 4 22.6866 0 0
28 4 23.4969 0 0.810236
29 4 22.6866 0.810236 0.810236
30 4 24.3071 0 0
31 4 25.1173 0.810236 0
68 4 22.6866 1.62047 0
69 4 23.4969 2.43071 0
70 4 24.3071 1.62047 0
71 4 25.1173 2.43071 0
72 4 24.3071 2.43071 0.810236
94 4 22.6866 3.24094 0
95 4 24.3071 3.24094 0
550 4 22.6866 0.810236 2.43071
551 4 24.3071 0 1.62047
552 4 24.3071 0.810236 2.43071
585 4 23.4969 1.62047 2.43071
586 4 25.1173 2.43071 1.62047
609 4 24.3071 3.24094 1.62047
1069 4 23.4969 0.810236 3.24094
1070 4 24.3071 0 3.24094
1071 4 25.1173 0.810236 3.24094
1102 4 23.4969 2.43071 3.24094
1103 4 25.1173 2.43071 3.24094
1133 4 22.6866 3.24094 3.24094
8224 2 23.4969 0 0.810236
8225 2 24.3071 0 0
8251 2 22.6866 1.62047 0
8252 2 24.3071 1.62047 0
8253 2 25.1173 2.43071 0
8254 2 25.1173 1.62047 0.810236
8255 2 24.3071 2.43071 0.810236
8289 2 22.6866 3.24094 0
8292 2 24.3071 3.24094 0
8759 2 25.1173 0.810236 1.62047
8787 2 22.6866 1.62047 1.62047
8788 2 23.4969 1.62047 2.43071
8789 2 25.1173 2.43071 1.62047
8823 2 25.1173 3.24094 2.43071
9261 2 22.6866 0 3.24094
9262 2 23.4969 0.810236 3.24094
9264 2 25.1173 0.810236 3.24094
9294 2 22.6866 1.62047 3.24094
9295 2 23.4969 2.43071 3.24094
9298 2 24.3071 1.62047 3.24094
9299 2 25.1173 2.43071 3.24094
9335 2 24.3071 3.24094 3.24094
75 4 1.62047 4.05118 0.810236
98 4 0.810236 5.67165 0
99 4 0.810236 4.86142 0.810236
100 4 0 5.67165 0.810236
101 4 1.62047 4.86142 0
102 4 2.43071 5.67165 0
103 4 2.43071 4.86142 0.810236
104 4 3.24094 4.86142 0
132 4 0.810236 7.29213 0
133 4 2.43071 7.29213 0
588 4 0.810236 4.05118 1.62047
590 4 2.43071 4.05118 1.62047
591 4 1.62047 4.05118 2.43071
611 4 0 5.67165 2.43071
612 4 2.43071 5.67165 1.62047
613 4 3.24094 4.86142 1.62047
615 4 3.24094 5.67165 2.43071
640 4 0.810236 7.29213 1.62047
641 4 0.810236 6.48189 2.43071
642 4 0 7.29213 2.43071
643 4 2.43071 6.48189 2.43071
1106 4 2.43071 4.05118 3.24094
1138 4 1.62047 4.86142 3.24094
1140 4 3.24094 4.86142 3.24094
1169 4 1.62047 6.48189 3.24094
1170 4 2.43071 7.29213 3.24094
1171 4 3.24094 6.48189 3.24094
8257 2 0 4.05118 0.810236
8259 2 2.43071 4.05118 0
8262 2 3.24094 4.05118 0.810236
8295 2 0 4.86142 0
8296 2 1.62047 4.86142 0
8297 2 2.43071 5.67165 0
8298 2 2.43071 4.86142 0.810236
8299 2 3.24094 4.86142 0
8326 2 0.810236 7.29213 0
8327 2 0.810236 6.48189 0.810236
8328 2 0 7.29213 0.810236
8329 2 1.62047 6.48189 0
8330 2 2.43071 7.29213 0
8331 2 2.43071 6.48189 0.810236
8332 2 1.62047 7.29213 0.810236
8333 2 3.24094 6.48189 0
8335 2 3.24094 7.29213 0.810236
8792 2 0 4.05118 2.43071
8794 2 2.43071 4.05118 1.62047
8795 2 1.62047 4.05118 2.43071
8797 2 3.24094 4.05118 2.43071
8824 2 0 4.86142 1.62047
8825 2 0.810236 5.67165 1.62047
8826 2 1.62047 4.86142 1.62047
8827 2 3.24094 4.86142 1.62047
8852 2 0 6.48189 1.62047
8853 2 0.810236 7.29213 1.62047
8854 2 0.810236 6.48189 2.43071
8855 2 0 7.29213 2.43071
8856 2 1.62047 6.48189 1.62047
8857 2 2.43071 7.29213 1.62047
8858 2 2.43071 6.48189 2.43071
8859 2 1.62047 7.29213 2.43071
8861 2 3.24094 7.29213 2.43071
9302 2 0.810236 4.05118 3.24094
9339 2 0 4.86142 3.24094
9340 2 0.810236 5.67165 3.24094
9342 2 1.62047 4.86142 3.24094
9343 2 3.24094 4.86142 3.24094
9377 2 0 6.48189 3.24094
9378 2 1.62047 6.48189 3.24094
9379 2 2.43071 7.29213 3.24094
9382 2 3.24094 6.48189 3.24094
105 4 4.05118 4.86142 0.810236
106 4 5.67165 5.67165 0
107 4 5.67165 4.86142 0.810236
134 4 4.05118 6.48189 0.810236
135 4 4.86142 7.29213 0.810236
136 4 6.48189 7.29213 0.810236
614 4 4.05118 5.67165 1.62047
616 4 5.67165 5.67165 1.62047
617 4 4.86142 5.67165 2.43071
644 4 5.67165 6.48189 2.43071
645 4 4.86142 7.29213 2.43071
646 4 7.29213 6.48189 2.43071
647 4 6.48189 7.29213 2.43071
1111 4 7.29213 4.05118 3.24094
1141 4 4.05118 5.67165 3.24094
1142 4 4.86142 4.86142 3.24094
1144 4 6.48189 4.86142 3.24094
1145 4 7.29213 5.67165 3.24094
1172 4 4.05118 7.29213 3.24094
1175 4 4.86142 6.48189 3.24094
1178 4 6.48189 6.48189 3.24094
1179 4 7.29213 7.29213 3.24094
8264 2 4.86142 4.05118 0.810236
8266 2 7.29213 4.05118 0
8300 2 4.05118 5.67165 0
8301 2 4.86142 4.86142 0
8302 2 5.67165 5.67165 0
8303 2 4.86142 5.67165 0.810236
8304 2 7.29213 5.67165 0
8305 2 7.29213 4.86142 0.810236
8334 2 4.05118 7.29213 0
8336 2 5.67165 7.29213 0
8337 2 7.29213 7.29213 0
8338 2 7.29213 6.48189 0.810236
8339 2 6.48189 7.29213 0.810236
8798 2 5.67165 4.05118 1.62047
8799 2 4.86142 4.05118 2.43071
8800 2 6.48189 4.05118 2.43071
8828 2 4.05118 5.67165 1.62047
8829 2 5.67165 5.67165 1.62047
8830 2 4.86142 5.67165 2.43071
8831 2 6.48189 4.86142 1.62047
8832 2 6.48189 5.67165 2.43071
8860 2 4.05118 7.29213 1.62047
8862 2 4.86142 7.29213 2.43071
8863 2 7.29213 7.29213 1.62047
9306 2 5.67165 4.05118 3.24094
9310 2 7.29213 4.05118 3.24094
9344 2 4.05118 5.67165 3.24094
9347 2 4.86142 4.86142 3.24094
9348 2 5.67165 5.67165 3.24094
9383 2 4.05118 7.29213 3.24094
9386 2 4.86142 6.48189 3.24094
79 4 8.9126 4.05118 0
108 4 8.10236 4.86142 0
109 4 8.9126 5.67165 0
110 4 8.9126 4.86142 0.810236
111 4 9.72283 4.86142 0
112 4 10.5331 4.86142 0.810236
113 4 9.72283 5.67165 0.810236
137 4 8.10236 6.48189 0
138 4 8.9126 7.29213 0
139 4 9.72283 6.48189 0
140 4 10.5331 7.29213 0
595 4 8.9126 4.05118 1.62047
618 4 8.10236 4.86142 1.62047
619 4 8.9126 4.86142 2.43071
620 4 10.5331 5.67165 1.62047
648 4 8.9126 6.48189 2.43071
649 4 8.10236 7.29213 2.43071
650 4 10.5331 6.48189 2.43071
651 4 9.72283 7.29213 2.43071
1115 4 10.5331 4.05118 3.24094
1146 4 8.10236 4.86142 3.24094
1148 4 9.72283 4.86142 3.24094
1183 4 10.5331 7.29213 3.24094
8269 2 8.9126 4.05118 0
8271 2 10.5331 4.05118 0
8272 2 9.72283 4.05118 0.810236
8306 2 8.9126 5.67165 0
8307 2 10.5331 5.67165 0
8308 2 9.72283 5.67165 0.810236
8340 2 8.10236 6.48189 0
8341 2 8.9126 6.48189 0.810236
8342 2 8.10236 7.29213 0.810236
8343 2 10.5331 7.29213 0
8344 2 10.5331 6.48189 0.810236
8345 2 9.72283 7.29213 0.810236
8801 2 8.9126 4.05118 1.62047
8803 2 9.72283 4.05118 2.43071
8833 2 10.5331 5.67165 1.62047
8864 2 8.10236 6.48189 1.62047
8865 2 8.9126 6.48189 2.43071
8866 2 9.72283 6.48189 1.62047
8867 2 10.5331 7.29213 1.62047
9313 2 8.9126 4.05118 3.24094
9353 2 9.72283 4.86142 3.24094
9354 2 10.5331 5.67165 3.24094
9389 2 8.9126 7.29213 3.24094
9391 2 9.72283 6.48189 3.24094
9392 2 10.5331 7.29213 3.24094
83 4 11.3433 4.05118 0.810236
86 4 14.5843 4.05118 0.810236
114 4 11.3433 4.86142 0
115 4 12.1535 5.67165 0
116 4 12.1535 4.86142 0.810236
117 4 11.3433 5.67165 0.810236
118 4 12.9638 5.67165 0.810236
119 4 14.5843 4.86142 0
122 4 14.5843 5.67165 0.810236
141 4 12.1535 7.29213 0
142 4 11.3433 7.29213 0.810236
143 4 13.774 6.48189 0.810236
144 4 12.9638 7.29213 0.810236
147 4 14.5843 7.29213 0.810236
599 4 12.1535 4.05118 1.62047
601 4 13.774 4.05118 1.62047
602 4 12.9638 4.05118 2.43071
621 4 12.1535 5.67165 1.62047
622 4 11.3433 5.67165 2.43071
623 4 12.9638 4.86142 1.62047
624 4 13.774 5.67165 1.62047
625 4 12.9638 5.67165 2.43071
626 4 14.5843 4.86142 1.62047
652 4 12.1535 7.29213 1.62047
653 4 11.3433 7.29213 2.43071
654 4 12.9638 6.48189 1.62047
655 4 13.774 7.29213 1.62047
656 4 13.774 6.48189 2.43071
657 4 14.5843 6.48189 1.62047
1149 4 11.3433 4.86142 3.24094
1152 4 13.774 5.67165 3.24094
1186 4 12.1535 7.29213 3.24094
1188 4 12.9638 6.48189 3.24094
1189 4 13.774 7.29213 3.24094
1191 4 14.5843 6.48189 3.24094
8273 2 11.3433 4.05118 0.810236
8275 2 13.774 4.05118 0
8276 2 12.9638 4.05118 0.810236
8280 2 14.5843 4.05118 0.810236
8309 2 11.3433 4.86142 0
8310 2 12.1535 4.86142 0.810236
8311 2 11.3433 5.67165 0.810236
8312 2 12.9638 4.86142 0
8313 2 13.774 5.67165 0
8314 2 14.5843 4.86142 0
8346 2 11.3433 7.29213 0.810236
8347 2 13.774 7.29213 0
8348 2 12.9638 7.29213 0.810236
8350 2 14.5843 7.29213 0.810236
8805 2 13.774 4.05118 1.62047
8807 2 12.9638 4.05118 2.43071
8808 2 14.5843 4.05118 2.43071
8834 2 12.1535 5.67165 1.62047
8835 2 12.9638 4.86142 1.62047
8836 2 13.774 5.67165 1.62047
8837 2 12.9638 5.67165 2.43071
8868 2 11.3433 6.48189 1.62047
8869 2 12.1535 7.29213 1.62047
8870 2 13.774 7.29213 1.62047
8873 2 14.5843 7.29213 2.43071
9318 2 12.1535 4.05118 3.24094
9319 2 13.774 4.05118 3.24094
9356 2 11.3433 4.86142 3.24094
9357 2 12.1535 5.67165 3.24094
9360 2 14.5843 4.86142 3.24094
9393 2 11.3433 6.48189 3.24094
9395 2 12.9638 6.48189 3.24094
85 4 15.3945 4.05118 0
88 4 16.2047 4.05118 0.810236
90 4 17.8252 4.05118 0.810236
120 4 15.3945 5.67165 0
121 4 15.3945 4.86142 0.810236
123 4 16.2047 4.86142 0
124 4 17.015 4.86142 0.810236
145 4 15.3945 7.29213 0
146 4 15.3945 6.48189 0.810236
148 4 16.2047 6.48189 0
149 4 17.015 7.29213 0
150 4 16.2047 7.29213 0.810236
627 4 15.3945 4.86142 2.43071
628 4 16.2047 4.86142 1.62047
629 4 17.015 5.67165 1.62047
630 4 16.2047 5.67165 2.43071
632 4 17.8252 5.67165 2.43071
658 4 15.3945 7.29213 1.62047
659 4 17.015 7.29213 1.62047
660 4 17.8252 6.48189 1.62047
1192 4 15.3945 7.29213 3.24094
1194 4 16.2047 6.48189 3.24094
1195 4 17.015 7.29213 3.24094
8278 2 15.3945 4.05118 0
8282 2 17.015 4.05118 0
8315 2 15.3945 4.86142 0.810236
8316 2 16.2047 4.86142 0
8317 2 17.8252 4.86142 0
8318 2 17.8252 5.67165 0.810236
8349 2 15.3945 6.48189 0.810236
8351 2 17.015 7.29213 0
8352 2 16.2047 7.29213 0.810236
8353 2 17.8252 6.48189 0
8355 2 17.8252 7.29213 0.810236
8809 2 17.015 4.05118 1.62047
8811 2 16.2047 4.05118 2.43071
8815 2 17.8252 4.05118 2.43071
8838 2 15.3945 5.67165 1.62047
8839 2 16.2047 4.86142 1.62047
8840 2 17.015 5.67165 1.62047
8841 2 17.015 4.86142 2.43071
8842 2 16.2047 5.67165 2.43071
8844 2 17.8252 5.67165 2.43071
8871 2 15.3945 7.29213 1.62047
8872 2 15.3945 6.48189 2.43071
8874 2 17.015 7.29213 1.62047
8875 2 17.015 6.48189 2.43071
8876 2 16.2047 7.29213 2.43071
9322 2 15.3945 4.05118 3.24094
9326 2 17.015 4.05118 3.24094
9361 2 15.3945 5.67165 3.24094
9364 2 16.2047 4.86142 3.24094
9365 2 17.015 5.67165 3.24094
9367 2 17.8252 4.86142 3.24094
9396 2 15.3945 7.29213 3.24094
9398 2 17.015 7.29213 3.24094
9401 2 17.8252 6.48189 3.24094
91 4 20.2559 4.05118 0
92 4 19.4457 4.05118 0.810236
93 4 21.0661 4.05118 0.810236
125 4 20.2559 5.67165 0
126 4 20.2559 4.86142 0.810236
127 4 19.4457 5.67165 0.810236
128 4 21.0661 4.86142 0
129 4 21.8764 4.86142 0.810236
151 4 18.6354 7.29213 0
152 4 19.4457 6.48189 0
153 4 20.2559 7.29213 0
154 4 19.4457 7.29213 0.810236
155 4 21.0661 6.48189 0
156 4 21.8764 6.48189 0.810236
157 4 21.0661 7.29213 0.810236
605 4 19.4457 4.05118 2.43071
607 4 21.0661 4.05118 2.43071
631 4 18.6354 4.86142 2.43071
633 4 19.4457 4.86142 1.62047
634 4 21.0661 5.67165 2.43071
661 4 18.6354 7.29213 1.62047
662 4 19.4457 6.48189 1.62047
663 4 20.2559 7.29213 1.62047
664 4 21.0661 6.48189 1.62047
665 4 21.8764 6.48189 2.43071
666 4 21.0661 7.29213 2.43071
1126 4 18.6354 4.05118 3.24094
1130 4 21.8764 4.05118 3.24094
1156 4 18.6354 5.67165 3.24094
1158 4 19.4457 4.86142 3.24094
1160 4 21.8764 5.67165 3.24094
1198 4 18.6354 7.29213 3.24094
1199 4 21.0661 6.48189 3.24094
8284 2 18.6354 4.05118 0
8286 2 21.8764 4.05118 0
8288 2 21.0661 4.05118 0.810236
8319 2 21.8764 4.86142 0.810236
8320 2 21.0661 5.67165 0.810236
8354 2 18.6354 6.48189 0.810236
8356 2 19.4457 6.48189 0
8357 2 20.2559 6.48189 0.810236
8358 2 19.4457 7.29213 0.810236
8359 2 21.8764 6.48189 0.810236
8360 2 21.0661 7.29213 0.810236
8813 2 18.6354 4.05118 1.62047
8817 2 20.2559 4.05118 1.62047
8819 2 19.4457 4.05118 2.43071
8843 2 18.6354 5.67165 1.62047
8845 2 19.4457 5.67165 2.43071
8846 2 21.0661 5.67165 2.43071
8877 2 20.2559 6.48189 2.43071
8878 2 21.0661 6.48189 1.62047
9329 2 20.2559 4.05118 3.24094
9369 2 19.4457 4.86142 3.24094
9370 2 21.8764 5.67165 3.24094
9403 2 21.0661 6.48189 3.24094
96 4 25.1173 4.05118 0
97 4 24.3071 4.05118 0.810236
130 4 22.6866 4.86142 0
131 4 25.1173 5.67165 0
158 4 22.6866 6.48189 0
159 4 24.3071 7.29213 0.810236
608 4 22.6866 4.05118 2.43071
610 4 25.1173 4.05118 1.62047
635 4 23.4969 5.67165 1.62047
636 4 22.6866 5.67165 2.43071
637 4 24.3071 4.86142 1.62047
638 4 25.1173 4.86142 2.43071
639 4 24.3071 5.67165 2.43071
667 4 22.6866 6.48189 1.62047
668 4 23.4969 7.29213 1.62047
669 4 23.4969 6.48189 2.43071
670 4 25.1173 6.48189 2.43071
671 4 24.3071 7.29213 2.43071
1136 4 25.1173 4.05118 3.24094
1161 4 22.6866 4.86142 3.24094
1162 4 23.4969 5.67165 3.24094
1164 4 24.3071 4.86142 3.24094
1165 4 25.1173 5.67165 3.24094
1201 4 22.6866 6.48189 3.24094
1203 4 24.3071 6.48189 3.24094
1204 4 25.1173 7.29213 3.24094
8290 2 23.4969 4.05118 0
8291 2 22.6866 4.05118 0.810236
8293 2 25.1173 4.05118 0
8294 2 24.3071 4.05118 0.810236
8321 2 22.6866 4.86142 0
8322 2 22.6866 5.67165 0.810236
8323 2 24.3071 4.86142 0
8324 2 25.1173 5.67165 0
8325 2 24.3071 5.67165 0.810236
8361 2 23.4969 7.29213 0
8362 2 24.3071 6.48189 0
8363 2 25.1173 7.29213 0
8364 2 25.1173 6.48189 0.810236
8365 2 24.3071 7.29213 0.810236
8821 2 22.6866 4.05118 2.43071
8822 2 25.1173 4.05118 1.62047
8847 2 22.6866 4.86142 1.62047
8848 2 23.4969 5.67165 1.62047
8849 2 23.4969 4.86142 2.43071
8850 2 22.6866 5.67165 2.43071
8851 2 25.1173 5.67165 1.62047
8879 2 25.1173 6.48189 2.43071
9336 2 25.1173 4.05118 3.24094
9372 2 22.6866 4.86142 3.24094
9373 2 23.4969 5.67165 3.24094
9375 2 24.3071 4.86142 3.24094
9405 2 22.6866 6.48189 3.24094
9406 2 23.4969 7.29213 3.24094
9409 2 25.1173 7.29213 3.24094
160 4 0 8.10236 0
161 4 0.810236 8.9126 0
162 4 0.810236 8.10236 0.810236
163 4 0 8.9126 0.810236
164 4 1.62047 8.10236 0
165 4 2.43071 8.10236 0.810236
168 4 3.24094 8.9126 0.810236
193 4 0.810236 10.5331 0
194 4 0.810236 9.72283 0.810236
195 4 0 10.5331 0.810236
196 4 1.62047 9.72283 0
197 4 2.43071 10.5331 0
198 4 3.24094 9.72283 0
201 4 3.24094 10.5331 0.810236
672 4 0 8.10236 1.62047
673 4 0.810236 8.10236 2.43071
674 4 0 8.9126 2.43071
675 4 1.62047 8.10236 1.62047
676 4 2.43071 8.9126 1.62047
677 4 2.43071 8.10236 2.43071
678 4 1.62047 8.9126 2.43071
679 4 3.24094 8.10236 1.62047
711 4 0 9.72283 1.62047
712 4 0.810236 10.5331 1.62047
713 4 1.62047 9.72283 1.62047
714 4 1.62047 10.5331 2.43071
717 4 3.24094 10.5331 2.43071
1207 4 0 8.10236 3.24094
1208 4 0.810236 8.9126 3.24094
1243 4 1.62047 9.72283 3.24094
8366 2 0 8.10236 0
8367 2 0.810236 8.9126 0
8368 2 0.810236 8.10236 0.810236
8369 2 0 8.9126 0.810236
8370 2 1.62047 8.10236 0
8371 2 2.43071 8.9126 0
8372 2 2.43071 8.10236 0.810236
8373 2 1.62047 8.9126 0.810236
8374 2 3.24094 8.10236 0
8404 2 1.62047 9.72283 0
8405 2 1.62047 10.5331 0.810236
8406 2 3.24094 9.72283 0
8880 2 0 8.10236 1.62047
8881 2 0.810236 8.10236 2.43071
8882 2 0 8.9126 2.43071
8883 2 1.62047 8.10236 1.62047
8884 2 2.43071 8.9126 1.62047
8885 2 2.43071 8.10236 2.43071
8886 2 3.24094 8.10236 1.62047
8918 2 0 9.72283 1.62047
8919 2 0.810236 10.5331 1.62047
8920 2 1.62047 9.72283 1.62047
8921 2 2.43071 10.5331 1.62047
8922 2 2.43071 9.72283 2.43071
8923 2 3.24094 9.72283 1.62047
9412 2 0 8.10236 3.24094
9413 2 0.810236 8.9126 3.24094
9416 2 1.62047 8.10236 3.24094
9417 2 2.43071 8.9126 3.24094
9420 2 3.24094 8.10236 3.24094
9446 2 1.62047 9.72283 3.24094
9447 2 3.24094 9.72283 3.24094
166 4 4.05118 8.9126 0
167 4 4.05118 8.10236 0.810236
169 4 5.67165 8.10236 0.810236
170 4 4.86142 8.9126 0.810236
171 4 6.48189 8.10236 0
172 4 7.29213 8.9126 0
173 4 7.29213 8.10236 0.810236
174 4 6.48189 8.9126 0.810236
199 4 4.05118 10.5331 0
200 4 4.05118 9.72283 0.810236
202 4 4.86142 9.72283 0
203 4 5.67165 10.5331 0
204 4 5.67165 9.72283 0.810236
205 4 7.29213 10.5331 0
206 4 7.29213 9.72283 0.810236
680 4 4.05118 8.9126 1.62047
681 4 4.05118 8.10236 2.43071
682 4 4.86142 8.10236 1.62047
683 4 5.67165 8.9126 1.62047
684 4 4.86142 8.9126 2.43071
685 4 6.48189 8.10236 1.62047
686 4 7.29213 8.9126 1.62047
687 4 7.29213 8.10236 2.43071
715 4 4.05118 10.5331 1.62047
716 4 4.05118 9.72283 2.43071
718 4 4.86142 9.72283 1.62047
719 4 5.67165 10.5331 1.62047
720 4 4.86142 10.5331 2.43071
721 4 6.48189 9.72283 1.62047
722 4 6.48189 10.5331 2.43071
1211 4 4.05118 8.9126 3.24094
1212 4 4.86142 8.10236 3.24094
1213 4 5.67165 8.9126 3.24094
1214 4 6.48189 8.10236 3.24094
1215 4 7.29213 8.9126 3.24094
1247 4 4.86142 9.72283 3.24094
1248 4 5.67165 10.5331 3.24094
1251 4 6.48189 9.72283 3.24094
1252 4 7.29213 10.5331 3.24094
8375 2 4.05118 8.9126 0
8376 2 5.67165 8.9126 0
8377 2 5.67165 8.10236 0.810236
8378 2 6.48189 8.10236 0
8379 2 7.29213 8.9126 0
8380 2 7.29213 8.10236 0.810236
8381 2 6.48189 8.9126 0.810236
8407 2 4.05118 10.5331 0
8408 2 4.86142 9.72283 0
8409 2 4.86142 10.5331 0.810236
8410 2 6.48189 9.72283 0
8411 2 7.29213 10.5331 0
8412 2 6.48189 10.5331 0.810236
8887 2 4.05118 8.9126 1.62047
8888 2 5.67165 8.9126 1.62047
8889 2 4.86142 8.9126 2.43071
8890 2 6.48189 8.10236 1.62047
8891 2 7.29213 8.9126 1.62047
8924 2 4.05118 10.5331 1.62047
8925 2 4.05118 9.72283 2.43071
8926 2 4.86142 9.72283 1.62047
8927 2 5.67165 10.5331 1.62047
8928 2 6.48189 9.72283 1.62047
8929 2 7.29213 9.72283 2.43071
9421 2 4.05118 8.9126 3.24094
9422 2 4.86142 8.10236 3.24094
9423 2 5.67165 8.9126 3.24094
9425 2 6.48189 8.10236 3.24094
9426 2 7.29213 8.9126 3.24094
9448 2 4.05118 10.5331 3.24094
9451 2 4.86142 9.72283 3.24094
9453 2 7.29213 10.5331 3.24094
175 4 8.10236 8.10236 0
176 4 8.10236 8.9126 0.810236
177 4 9.72283 8.10236 0
178 4 10.5331 8.9126 0
207 4 8.9126 10.5331 0
208 4 8.10236 10.5331 0.810236
209 4 9.72283 9.72283 0
210 4 10.5331 10.5331 0
688 4 8.10236 8.10236 1.62047
689 4 8.9126 8.9126 1.62047
690 4 8.9126 8.10236 2.43071
691 4 10.5331 8.9126 1.62047
692 4 10.5331 8.10236 2.43071
693 4 9.72283 8.9126 2.43071
723 4 8.9126 10.5331 1.62047
724 4 8.9126 9.72283 2.43071
725 4 10.5331 9.72283 2.43071
726 4 9.72283 10.5331 2.43071
1219 4 9.72283 8.10236 3.24094
1220 4 10.5331 8.9126 3.24094
1254 4 8.10236 9.72283 3.24094
1255 4 8.9126 10.5331 3.24094
1257 4 9.72283 9.72283 3.24094
1258 4 10.5331 10.5331 3.24094
8382 2 8.9126 8.9126 0
8383 2 8.9126 8.10236 0.810236
8384 2 10.5331 8.9126 0
8385 2 10.5331 8.10236 0.810236
8413 2 8.10236 9.72283 0
8414 2 8.9126 9.72283 0.810236
8415 2 10.5331 10.5331 0
8416 2 10.5331 9.72283 0.810236
8892 2 8.9126 8.9126 1.62047
8893 2 8.9126 8.10236 2.43071
8894 2 9.72283 8.10236 1.62047
8895 2 10.5331 8.9126 1.62047
8896 2 9.72283 8.9126 2.43071
8930 2 8.9126 10.5331 1.62047
8931 2 8.9126 9.72283 2.43071
8932 2 9.72283 10.5331 2.43071
9454 2 8.10236 9.72283 3.24094
9455 2 8.9126 10.5331 3.24094
9456 2 9.72283 9.72283 3.24094
9457 2 10.5331 10.5331 3.24094
179 4 12.1535 8.9126 0
180 4 14.5843 8.10236 0
182 4 14.5843 8.9126 0.810236
211 4 12.1535 10.5331 0
212 4 12.9638 9.72283 0
213 4 13.774 10.5331 0
214 4 13.774 9.72283 0.810236
215 4 12.9638 10.5331 0.810236
694 4 13.774 8.10236 2.43071
695 4 12.9638 8.9126 2.43071
727 4 12.1535 10.5331 1.62047
728 4 12.9638 9.72283 1.62047
729 4 13.774 10.5331 1.62047
730 4 13.774 9.72283 2.43071
731 4 14.5843 9.72283 1.62047
733 4 14.5843 10.5331 2.43071
1222 4 11.3433 8.10236 3.24094
1223 4 12.1535 8.9126 3.24094
1261 4 13.774 10.5331 3.24094
8386 2 11.3433 8.10236 0
8387 2 12.1535 8.9126 0
8388 2 12.9638 8.9126 0.810236
8417 2 11.3433 9.72283 0
8418 2 12.1535 9.72283 0.810236
8419 2 12.9638 9.72283 0
8420 2 13.774 9.72283 0.810236
8421 2 14.5843 9.72283 0
8897 2 11.3433 8.10236 1.62047
8898 2 13.774 8.9126 1.62047
8901 2 14.5843 8.9126 2.43071
8933 2 11.3433 9.72283 1.62047
8934 2 12.1535 10.5331 1.62047
8935 2 11.3433 10.5331 2.43071
8936 2 13.774 10.5331 1.62047
8937 2 14.5843 9.72283 1.62047
8940 2 14.5843 10.5331 2.43071
9430 2 12.1535 8.9126 3.24094
9432 2 14.5843 8.10236 3.24094
9460 2 13.774 10.5331 3.24094
9463 2 14.5843 9.72283 3.24094
181 4 15.3945 8.9126 0
183 4 16.2047 8.10236 0
184 4 17.8252 8.10236 0
185 4 17.8252 8.9126 0.810236
216 4 15.3945 10.5331 0
217 4 15.3945 9.72283 0.810236
218 4 16.2047 9.72283 0