ITEM: TIMESTEP
0
ITEM: NUMBER OF ATOMS
16384
ITEM: BOX BOUNDS pp pp pp
0.0000000000000000e+00 3.4122873006875501e+01
0.0000000000000000e+00 3.4122873006875501e+01
0.0000000000000000e+00 3.4122873006875501e+01
ITEM: ATOMS id type x y z
1 4 0 0 0
2 4 1.0748 1.0748 0
3 4 3.22441 1.0748 0
4 4 3.22441 0 1.0748
5 4 2.14961 1.0748 1.0748
32 4 1.0748 2.14961 1.0748
33 4 0 3.22441 1.0748
34 4 3.22441 2.14961 1.0748
35 4 2.14961 3.22441 1.0748
522 4 3.22441 0 3.22441
523 4 2.14961 1.0748 3.22441
553 4 1.0748 3.22441 2.14961
554 4 0 3.22441 3.22441
555 4 3.22441 3.22441 2.14961
556 4 3.22441 2.14961 3.22441
557 4 2.14961 3.22441 3.22441
8193 2 0 0 0
8194 2 1.0748 1.0748 0
8195 2 1.0748 0 1.0748
8196 2 0 1.0748 1.0748
8197 2 3.22441 0 1.0748
8226 2 0 2.14961 0
8227 2 1.0748 3.22441 0
8228 2 3.22441 2.14961 1.0748
8730 2 1.0748 1.0748 2.14961
8731 2 0 1.0748 3.22441
8732 2 3.22441 1.0748 2.14961
8733 2 3.22441 0 3.22441
8734 2 2.14961 1.0748 3.22441
8760 2 2.14961 2.14961 2.14961
8761 2 3.22441 3.22441 2.14961
6 4 5.37402 0 1.0748
7 4 4.29921 1.0748 1.0748
10 4 6.44882 1.0748 1.0748
36 4 4.29921 2.14961 0
37 4 5.37402 3.22441 0
38 4 5.37402 2.14961 1.0748
39 4 4.29921 3.22441 1.0748
42 4 6.44882 3.22441 1.0748
524 4 5.37402 0 3.22441
527 4 6.44882 1.0748 3.22441
558 4 4.29921 2.14961 2.14961
559 4 5.37402 2.14961 3.22441
560 4 4.29921 3.22441 3.22441
561 4 6.44882 2.14961 2.14961
8198 2 4.29921 0 0
8199 2 5.37402 1.0748 0
8229 2 4.29921 2.14961 0
8230 2 5.37402 3.22441 0
8735 2 4.29921 0 2.14961
8736 2 5.37402 0 3.22441
8737 2 4.29921 1.0748 3.22441
8739 2 6.44882 1.0748 3.22441
8762 2 5.37402 3.22441 2.14961
8763 2 5.37402 2.14961 3.22441
8764 2 6.44882 3.22441 3.22441
8 4 7.52362 1.0748 0
9 4 7.52362 0 1.0748
11 4 8.59843 0 0
12 4 8.59843 1.0748 1.0748
40 4 7.52362 3.22441 0
41 4 7.52362 2.14961 1.0748
43 4 8.59843 2.14961 0
44 4 9.67323 3.22441 0
45 4 8.59843 3.22441 1.0748
525 4 7.52362 1.0748 2.14961
526 4 7.52362 0 3.22441
528 4 8.59843 0 2.14961
529 4 9.67323 0 3.22441
562 4 7.52362 3.22441 2.14961
563 4 9.67323 3.22441 2.14961
564 4 9.67323 2.14961 3.22441
8200 2 7.52362 1.0748 0
8201 2 9.67323 0 1.0748
8231 2 8.59843 2.14961 0
8232 2 9.67323 2.14961 1.0748
8738 2 7.52362 0 3.22441
8740 2 8.59843 0 2.14961
8741 2 8.59843 1.0748 3.22441
8765 2 9.67323 3.22441 2.14961
8766 2 9.67323 2.14961 3.22441
8767 2 8.59843 3.22441 3.22441
13 4 12.8976 0 0
46 4 11.8228 2.14961 1.0748
47 4 10.748 3.22441 1.0748
48 4 12.8976 2.14961 0
51 4 12.8976 3.22441 1.0748
530 4 11.8228 0 3.22441
531 4 10.748 1.0748 3.22441
565 4 10.748 2.14961 2.14961
566 4 11.8228 3.22441 2.14961
567 4 11.8228 2.14961 3.22441
568 4 12.8976 2.14961 2.14961
8202 2 11.8228 0 1.0748
8203 2 10.748 1.0748 1.0748
8204 2 12.8976 0 0
8206 2 12.8976 1.0748 1.0748
8233 2 11.8228 3.22441 0
8742 2 10.748 1.0748 3.22441
8743 2 12.8976 0 2.14961
8745 2 12.8976 1.0748 3.22441
8768 2 11.8228 3.22441 2.14961
8769 2 10.748 3.22441 3.22441
8770 2 12.8976 2.14961 2.14961
8772 2 12.8976 3.22441 3.22441
14 4 15.0472 0 0
15 4 16.122 0 1.0748
16 4 15.0472 1.0748 1.0748
49 4 13.9724 3.22441 0
50 4 13.9724 2.14961 1.0748
52 4 15.0472 3.22441 1.0748
532 4 13.9724 1.0748 2.14961
533 4 13.9724 0 3.22441
534 4 15.0472 0 2.14961
535 4 15.0472 1.0748 3.22441
569 4 13.9724 3.22441 2.14961
570 4 13.9724 2.14961 3.22441
8205 2 13.9724 1.0748 0
8207 2 15.0472 0 0
8208 2 16.122 0 1.0748
8234 2 13.9724 3.22441 0
8235 2 13.9724 2.14961 1.0748
8236 2 15.0472 2.14961 0
8237 2 15.0472 3.22441 1.0748
8744 2 13.9724 1.0748 2.14961
8746 2 15.0472 0 2.14961
8747 2 16.122 0 3.22441
8771 2 13.9724 3.22441 2.14961
8773 2 15.0472 2.14961 2.14961
8774 2 16.122 2.14961 3.22441
8775 2 15.0472 3.22441 3.22441
17 4 17.1969 0 0
18 4 18.2717 1.0748 0
19 4 18.2717 0 1.0748
20 4 20.4213 1.0748 0
21 4 20.4213 0 1.0748
53 4 17.1969 2.14961 0
54 4 18.2717 3.22441 0
55 4 18.2717 2.14961 1.0748
56 4 17.1969 3.22441 1.0748
57 4 19.3465 2.14961 0
58 4 20.4213 3.22441 0
59 4 19.3465 3.22441 1.0748
536 4 17.1969 0 2.14961
537 4 18.2717 1.0748 2.14961
538 4 18.2717 0 3.22441
539 4 17.1969 1.0748 3.22441
571 4 17.1969 2.14961 2.14961
572 4 18.2717 3.22441 2.14961
573 4 18.2717 2.14961 3.22441
574 4 17.1969 3.22441 3.22441
575 4 19.3465 2.14961 2.14961
576 4 20.4213 3.22441 2.14961
577 4 19.3465 3.22441 3.22441
8209 2 18.2717 1.0748 0
8210 2 20.4213 1.0748 0
8211 2 20.4213 0 1.0748
8212 2 19.3465 1.0748 1.0748
8238 2 17.1969 2.14961 0
8239 2 18.2717 3.22441 0
8240 2 20.4213 2.14961 1.0748
8241 2 19.3465 3.22441 1.0748
8748 2 17.1969 0 2.14961
8749 2 17.1969 1.0748 3.22441
8750 2 20.4213 1.0748 2.14961
8751 2 20.4213 0 3.22441
8752 2 19.3465 1.0748 3.22441
8776 2 18.2717 3.22441 2.14961
8777 2 17.1969 3.22441 3.22441
8778 2 19.3465 2.14961 2.14961
22 4 22.5709 1.0748 0
23 4 23.6457 0 0
60 4 22.5709 2.14961 1.0748
61 4 21.4961 3.22441 1.0748
540 4 21.4961 0 2.14961
541 4 23.6457 0 2.14961
578 4 21.4961 3.22441 3.22441
581 4 23.6457 3.22441 3.22441
8213 2 21.4961 0 0
8214 2 22.5709 0 1.0748
8215 2 21.4961 1.0748 1.0748
8217 2 23.6457 1.0748 1.0748
8242 2 22.5709 2.14961 1.0748
8243 2 23.6457 2.14961 0
8753 2 21.4961 1.0748 3.22441
8779 2 22.5709 2.14961 3.22441
8780 2 21.4961 3.22441 3.22441
8782 2 23.6457 3.22441 3.22441
24 4 24.7205 1.0748 0
25 4 26.8701 1.0748 0
62 4 24.7205 2.14961 1.0748
63 4 25.7953 2.14961 0
64 4 26.8701 3.22441 0
65 4 26.8701 2.14961 1.0748
542 4 24.7205 1.0748 2.14961
543 4 26.8701 1.0748 2.14961
544 4 26.8701 0 3.22441
545 4 25.7953 1.0748 3.22441
579 4 24.7205 3.22441 2.14961
580 4 24.7205 2.14961 3.22441
582 4 26.8701 3.22441 2.14961
8216 2 24.7205 1.0748 0
8218 2 25.7953 0 0
8219 2 26.8701 1.0748 0
8220 2 25.7953 1.0748 1.0748
8244 2 24.7205 3.22441 0
8245 2 25.7953 2.14961 0
8246 2 26.8701 2.14961 1.0748
8754 2 24.7205 1.0748 2.14961
8755 2 24.7205 0 3.22441
8756 2 25.7953 1.0748 3.22441
8781 2 24.7205 2.14961 3.22441
8783 2 25.7953 2.14961 2.14961
8784 2 26.8701 3.22441 2.14961
8785 2 25.7953 3.22441 3.22441
26 4 29.0197 1.0748 0
27 4 30.0945 0 0
29 4 30.0945 1.0748 1.0748
66 4 29.0197 3.22441 0
67 4 29.0197 2.14961 1.0748
68 4 30.0945 2.14961 0
546 4 27.9449 0 2.14961
547 4 29.0197 1.0748 2.14961
548 4 29.0197 0 3.22441
549 4 27.9449 1.0748 3.22441
550 4 30.0945 1.0748 3.22441
583 4 27.9449 2.14961 2.14961
584 4 29.0197 3.22441 2.14961
8221 2 27.9449 0 0
8222 2 29.0197 0 1.0748
8223 2 27.9449 1.0748 1.0748
8247 2 27.9449 2.14961 0
8248 2 29.0197 3.22441 0
8249 2 29.0197 2.14961 1.0748
8250 2 27.9449 3.22441 1.0748
8251 2 30.0945 2.14961 0
8757 2 27.9449 0 2.14961
8758 2 29.0197 0 3.22441
8786 2 27.9449 3.22441 3.22441
8787 2 30.0945 2.14961 2.14961
28 4 31.1693 0 1.0748
30 4 32.2441 0 0
31 4 33.3189 1.0748 0
69 4 31.1693 3.22441 0
70 4 32.2441 2.14961 0
71 4 33.3189 3.22441 0
72 4 32.2441 3.22441 1.0748
551 4 32.2441 0 2.14961
552 4 32.2441 1.0748 3.22441
585 4 31.1693 2.14961 3.22441
586 4 33.3189 3.22441 2.14961
8224 2 31.1693 0 1.0748
8225 2 32.2441 0 0
8252 2 32.2441 2.14961 0
8253 2 33.3189 3.22441 0
8254 2 33.3189 2.14961 1.0748
8255 2 32.2441 3.22441 1.0748
8759 2 33.3189 1.0748 2.14961
8788 2 31.1693 2.14961 3.22441
8789 2 33.3189 3.22441 2.14961
73 4 1.0748 4.29921 1.0748
74 4 3.22441 4.29921 1.0748
75 4 2.14961 5.37402 1.0748
99 4 1.0748 6.44882 1.0748
101 4 2.14961 6.44882 0
103 4 3.22441 6.44882 1.0748
587 4 0 4.29921 2.14961
588 4 1.0748 5.37402 2.14961
589 4 1.0748 4.29921 3.22441
590 4 3.22441 5.37402 2.14961
591 4 2.14961 5.37402 3.22441
8256 2 1.0748 4.29921 1.0748
8257 2 0 5.37402 1.0748
8258 2 2.14961 4.29921 0
8259 2 3.22441 5.37402 0
8295 2 0 6.44882 0
8296 2 2.14961 6.44882 0
8298 2 3.22441 6.44882 1.0748
8790 2 0 4.29921 2.14961
8791 2 1.0748 4.29921 3.22441
8792 2 0 5.37402 3.22441
8793 2 2.14961 4.29921 2.14961
8794 2 3.22441 5.37402 2.14961
8795 2 2.14961 5.37402 3.22441
8824 2 0 6.44882 2.14961
8826 2 2.14961 6.44882 2.14961
76 4 6.44882 4.29921 0
104 4 4.29921 6.44882 0
105 4 5.37402 6.44882 1.0748
613 4 4.29921 6.44882 2.14961
8260 2 4.29921 4.29921 0
8261 2 5.37402 4.29921 1.0748
8262 2 4.29921 5.37402 1.0748
8263 2 6.44882 4.29921 0
8264 2 6.44882 5.37402 1.0748
8299 2 4.29921 6.44882 0
8301 2 6.44882 6.44882 0
8796 2 5.37402 4.29921 3.22441
8797 2 4.29921 5.37402 3.22441
8799 2 6.44882 5.37402 3.22441
8827 2 4.29921 6.44882 2.14961
77 4 7.52362 4.29921 1.0748
78 4 9.67323 4.29921 1.0748
107 4 7.52362 6.44882 1.0748
592 4 8.59843 4.29921 2.14961
593 4 9.67323 4.29921 3.22441
8265 2 8.59843 4.29921 0
8266 2 9.67323 5.37402 0
8267 2 9.67323 4.29921 1.0748
8305 2 9.67323 6.44882 1.0748
8798 2 7.52362 5.37402 2.14961
8800 2 8.59843 5.37402 3.22441
8831 2 8.59843 6.44882 2.14961
79 4 11.8228 5.37402 0
80 4 11.8228 4.29921 1.0748
81 4 12.8976 4.29921 0
108 4 10.748 6.44882 0
110 4 11.8228 6.44882 1.0748
111 4 12.8976 6.44882 0
594 4 10.748 4.29921 2.14961
595 4 11.8228 5.37402 2.14961
596 4 12.8976 4.29921 2.14961
618 4 10.748 6.44882 2.14961
619 4 11.8228 6.44882 3.22441
8268 2 10.748 4.29921 0
8269 2 11.8228 5.37402 0
8270 2 11.8228 4.29921 1.0748
8272 2 12.8976 5.37402 1.0748
8801 2 11.8228 5.37402 2.14961
8802 2 11.8228 4.29921 3.22441
8803 2 12.8976 5.37402 3.22441
82 4 13.9724 4.29921 1.0748
83 4 15.0472 5.37402 1.0748
112 4 13.9724 6.44882 1.0748
114 4 15.0472 6.44882 0
116 4 16.122 6.44882 1.0748
597 4 13.9724 4.29921 3.22441
598 4 15.0472 4.29921 2.14961
599 4 16.122 5.37402 2.14961
600 4 16.122 4.29921 3.22441
8271 2 13.9724 5.37402 0
8273 2 15.0472 5.37402 1.0748
8309 2 15.0472 6.44882 0
8310 2 16.122 6.44882 1.0748
8804 2 15.0472 4.29921 2.14961
84 4 18.2717 4.29921 1.0748
85 4 20.4213 5.37402 0
86 4 19.3465 5.37402 1.0748
119 4 19.3465 6.44882 0
121 4 20.4213 6.44882 1.0748
601 4 18.2717 5.37402 2.14961
602 4 17.1969 5.37402 3.22441
603 4 19.3465 4.29921 2.14961
623 4 17.1969 6.44882 2.14961
626 4 19.3465 6.44882 2.14961
627 4 20.4213 6.44882 3.22441
8274 2 17.1969 4.29921 0
8275 2 18.2717 5.37402 0
8276 2 17.1969 5.37402 1.0748
8277 2 19.3465 4.29921 0
8278 2 20.4213 5.37402 0
8279 2 20.4213 4.29921 1.0748
8280 2 19.3465 5.37402 1.0748
8312 2 17.1969 6.44882 0
8314 2 19.3465 6.44882 0
8315 2 20.4213 6.44882 1.0748
8805 2 18.2717 5.37402 2.14961
8806 2 18.2717 4.29921 3.22441
8807 2 17.1969 5.37402 3.22441
8808 2 19.3465 5.37402 3.22441
8835 2 17.1969 6.44882 2.14961
87 4 22.5709 4.29921 1.0748
88 4 21.4961 5.37402 1.0748
90 4 23.6457 5.37402 1.0748
123 4 21.4961 6.44882 0
124 4 22.5709 6.44882 1.0748
604 4 23.6457 4.29921 2.14961
628 4 21.4961 6.44882 2.14961
8281 2 21.4961 4.29921 0
8282 2 22.5709 5.37402 0
8283 2 22.5709 4.29921 1.0748
8316 2 21.4961 6.44882 0
8317 2 23.6457 6.44882 0
8809 2 22.5709 5.37402 2.14961
8810 2 22.5709 4.29921 3.22441
8811 2 21.4961 5.37402 3.22441
8812 2 23.6457 4.29921 2.14961
8815 2 23.6457 5.37402 3.22441
8839 2 21.4961 6.44882 2.14961
8841 2 22.5709 6.44882 3.22441
89 4 24.7205 4.29921 1.0748
91 4 26.8701 5.37402 0
92 4 25.7953 5.37402 1.0748
126 4 26.8701 6.44882 1.0748
605 4 25.7953 5.37402 3.22441
631 4 24.7205 6.44882 3.22441
633 4 25.7953 6.44882 2.14961
8284 2 24.7205 5.37402 0
8285 2 25.7953 4.29921 0
8813 2 24.7205 5.37402 2.14961
8814 2 24.7205 4.29921 3.22441
8816 2 25.7953 4.29921 2.14961
8817 2 26.8701 5.37402 2.14961
8818 2 26.8701 4.29921 3.22441
8819 2 25.7953 5.37402 3.22441
93 4 27.9449 5.37402 1.0748
94 4 30.0945 4.29921 0
128 4 27.9449 6.44882 0
129 4 29.0197 6.44882 1.0748
130 4 30.0945 6.44882 0
606 4 29.0197 4.29921 3.22441
607 4 27.9449 5.37402 3.22441
608 4 30.0945 5.37402 3.22441
8286 2 29.0197 5.37402 0
8287 2 29.0197 4.29921 1.0748
8288 2 27.9449 5.37402 1.0748
8289 2 30.0945 4.29921 0
8291 2 30.0945 5.37402 1.0748
8319 2 29.0197 6.44882 1.0748
8321 2 30.0945 6.44882 0
8820 2 29.0197 4.29921 3.22441
8821 2 30.0945 5.37402 3.22441
8847 2 30.0945 6.44882 2.14961
95 4 32.2441 4.29921 0
96 4 33.3189 5.37402 0
97 4 32.2441 5.37402 1.0748
609 4 32.2441 4.29921 2.14961
610 4 33.3189 5.37402 2.14961
637 4 32.2441 6.44882 2.14961
638 4 33.3189 6.44882 3.22441
8290 2 31.1693 5.37402 0
8292 2 32.2441 4.29921 0
8293 2 33.3189 5.37402 0
8294 2 32.2441 5.37402 1.0748
8323 2 32.2441 6.44882 0
8822 2 33.3189 5.37402 2.14961
8823 2 33.3189 4.29921 3.22441
8849 2 31.1693 6.44882 3.22441
98 4 1.0748 7.52362 0
100 4 0 7.52362 1.0748
102 4 3.22441 7.52362 0
132 4 1.0748 9.67323 0
133 4 3.22441 9.67323 0
611 4 0 7.52362 3.22441
612 4 3.22441 7.52362 2.14961
640 4 1.0748 9.67323 2.14961
641 4 1.0748 8.59843 3.22441
642 4 0 9.67323 3.22441
643 4 3.22441 8.59843 3.22441
8297 2 3.22441 7.52362 0
8326 2 1.0748 9.67323 0
8327 2 1.0748 8.59843 1.0748
8328 2 0 9.67323 1.0748
8329 2 2.14961 8.59843 0
8330 2 3.22441 9.67323 0
8331 2 3.22441 8.59843 1.0748
8332 2 2.14961 9.67323 1.0748
8825 2 1.0748 7.52362 2.14961
8852 2 0 8.59843 2.14961
8853 2 1.0748 9.67323 2.14961
8854 2 1.0748 8.59843 3.22441
8855 2 0 9.67323 3.22441
8856 2 2.14961 8.59843 2.14961
8857 2 3.22441 9.67323 2.14961
8858 2 3.22441 8.59843 3.22441
8859 2 2.14961 9.67323 3.22441
134 4 5.37402 8.59843 1.0748
135 4 6.44882 9.67323 1.0748
614 4 5.37402 7.52362 2.14961
615 4 4.29921 7.52362 3.22441
617 4 6.44882 7.52362 3.22441
645 4 6.44882 9.67323 3.22441
8300 2 5.37402 7.52362 0
8303 2 6.44882 7.52362 1.0748
8333 2 4.29921 8.59843 0
8334 2 5.37402 9.67323 0
8335 2 4.29921 9.67323 1.0748
8828 2 5.37402 7.52362 2.14961
8830 2 6.44882 7.52362 3.22441
8860 2 5.37402 9.67323 2.14961
8861 2 4.29921 9.67323 3.22441
8862 2 6.44882 9.67323 3.22441
106 4 7.52362 7.52362 0
136 4 8.59843 9.67323 1.0748
616 4 7.52362 7.52362 2.14961
644 4 7.52362 8.59843 3.22441
646 4 9.67323 8.59843 3.22441
647 4 8.59843 9.67323 3.22441
8302 2 7.52362 7.52362 0
8304 2 9.67323 7.52362 0
8336 2 7.52362 9.67323 0
8337 2 9.67323 9.67323 0
8338 2 9.67323 8.59843 1.0748
8339 2 8.59843 9.67323 1.0748
8829 2 7.52362 7.52362 2.14961
8832 2 8.59843 7.52362 3.22441
8863 2 9.67323 9.67323 2.14961
109 4 11.8228 7.52362 0
113 4 12.8976 7.52362 1.0748
137 4 10.748 8.59843 0
138 4 11.8228 9.67323 0
139 4 12.8976 8.59843 0
648 4 11.8228 8.59843 3.22441
649 4 10.748 9.67323 3.22441
651 4 12.8976 9.67323 3.22441
8306 2 11.8228 7.52362 0
8308 2 12.8976 7.52362 1.0748
8340 2 10.748 8.59843 0
8341 2 11.8228 8.59843 1.0748
8342 2 10.748 9.67323 1.0748
8345 2 12.8976 9.67323 1.0748
8864 2 10.748 8.59843 2.14961
8865 2 11.8228 8.59843 3.22441
8866 2 12.8976 8.59843 2.14961
115 4 16.122 7.52362 0
117 4 15.0472 7.52362 1.0748
140 4 13.9724 9.67323 0
141 4 16.122 9.67323 0
142 4 15.0472 9.67323 1.0748
620 4 13.9724 7.52362 2.14961
621 4 16.122 7.52362 2.14961
622 4 15.0472 7.52362 3.22441
650 4 13.9724 8.59843 3.22441
652 4 16.122 9.67323 2.14961
653 4 15.0472 9.67323 3.22441
8307 2 13.9724 7.52362 0
8311 2 15.0472 7.52362 1.0748
8343 2 13.9724 9.67323 0
8344 2 13.9724 8.59843 1.0748
8346 2 15.0472 9.67323 1.0748
8833 2 13.9724 7.52362 2.14961
8834 2 16.122 7.52362 2.14961
8867 2 13.9724 9.67323 2.14961
8868 2 15.0472 8.59843 2.14961
8869 2 16.122 9.67323 2.14961
118 4 17.1969 7.52362 1.0748
120 4 20.4213 7.52362 0
122 4 19.3465 7.52362 1.0748
143 4 18.2717 8.59843 1.0748
144 4 17.1969 9.67323 1.0748
145 4 20.4213 9.67323 0
146 4 20.4213 8.59843 1.0748
147 4 19.3465 9.67323 1.0748
624 4 18.2717 7.52362 2.14961
625 4 17.1969 7.52362 3.22441
654 4 17.1969 8.59843 2.14961
655 4 18.2717 9.67323 2.14961
656 4 18.2717 8.59843 3.22441
657 4 19.3465 8.59843 2.14961
658 4 20.4213 9.67323 2.14961
8313 2 18.2717 7.52362 0
8347 2 18.2717 9.67323 0
8348 2 17.1969 9.67323 1.0748
8349 2 20.4213 8.59843 1.0748
8350 2 19.3465 9.67323 1.0748
8836 2 18.2717 7.52362 2.14961
8837 2 17.1969 7.52362 3.22441
8838 2 20.4213 7.52362 2.14961
8870 2 18.2717 9.67323 2.14961
8871 2 20.4213 9.67323 2.14961
8872 2 20.4213 8.59843 3.22441
8873 2 19.3465 9.67323 3.22441
148 4 21.4961 8.59843 0
149 4 22.5709 9.67323 0
150 4 21.4961 9.67323 1.0748
629 4 22.5709 7.52362 2.14961
630 4 21.4961 7.52362 3.22441
632 4 23.6457 7.52362 3.22441
659 4 22.5709 9.67323 2.14961
660 4 23.6457 8.59843 2.14961
8318 2 23.6457 7.52362 1.0748
8351 2 22.5709 9.67323 0
8352 2 21.4961 9.67323 1.0748
8353 2 23.6457 8.59843 0
8355 2 23.6457 9.67323 1.0748
8840 2 22.5709 7.52362 2.14961
8842 2 21.4961 7.52362 3.22441
8844 2 23.6457 7.52362 3.22441
8874 2 22.5709 9.67323 2.14961
8875 2 22.5709 8.59843 3.22441
8876 2 21.4961 9.67323 3.22441
125 4 26.8701 7.52362 0
127 4 25.7953 7.52362 1.0748
151 4 24.7205 9.67323 0
152 4 25.7953 8.59843 0
153 4 26.8701 9.67323 0
154 4 25.7953 9.67323 1.0748
661 4 24.7205 9.67323 2.14961
662 4 25.7953 8.59843 2.14961
663 4 26.8701 9.67323 2.14961
8354 2 24.7205 8.59843 1.0748
8356 2 25.7953 8.59843 0
8357 2 26.8701 8.59843 1.0748
8358 2 25.7953 9.67323 1.0748
8843 2 24.7205 7.52362 2.14961
8845 2 25.7953 7.52362 3.22441
8877 2 26.8701 8.59843 3.22441
155 4 27.9449 8.59843 0
156 4 29.0197 8.59843 1.0748
157 4 27.9449 9.67323 1.0748
158 4 30.0945 8.59843 0
634 4 27.9449 7.52362 3.22441
636 4 30.0945 7.52362 3.22441
664 4 27.9449 8.59843 2.14961
665 4 29.0197 8.59843 3.22441
666 4 27.9449 9.67323 3.22441
667 4 30.0945 8.59843 2.14961
8320 2 27.9449 7.52362 1.0748
8322 2 30.0945 7.52362 1.0748
8359 2 29.0197 8.59843 1.0748
8360 2 27.9449 9.67323 1.0748
8846 2 27.9449 7.52362 3.22441
8850 2 30.0945 7.52362 3.22441
8878 2 27.9449 8.59843 2.14961
131 4 33.3189 7.52362 0
159 4 32.2441 9.67323 1.0748
635 4 31.1693 7.52362 2.14961
639 4 32.2441 7.52362 3.22441
668 4 31.1693 9.67323 2.14961
669 4 31.1693 8.59843 3.22441
670 4 33.3189 8.59843 3.22441
671 4 32.2441 9.67323 3.22441
8324 2 33.3189 7.52362 0
8325 2 32.2441 7.52362 1.0748
8361 2 31.1693 9.67323 0
8362 2 32.2441 8.59843 0
8363 2 33.3189 9.67323 0
8364 2 33.3189 8.59843 1.0748
8365 2 32.2441 9.67323 1.0748
8848 2 31.1693 7.52362 2.14961
8851 2 33.3189 7.52362 2.14961
8879 2 33.3189 8.59843 3.22441
160 4 0 10.748 0
161 4 1.0748 11.8228 0
162 4 1.0748 10.748 1.0748
163 4 0 11.8228 1.0748
164 4 2.14961 10.748 0
165 4 3.22441 10.748 1.0748
194 4 1.0748 12.8976 1.0748
196 4 2.14961 12.8976 0
672 4 0 10.748 2.14961
673 4 1.0748 10.748 3.22441
674 4 0 11.8228 3.22441
675 4 2.14961 10.748 2.14961
676 4 3.22441 11.8228 2.14961
677 4 3.22441 10.748 3.22441
678 4 2.14961 11.8228 3.22441
711 4 0 12.8976 2.14961
713 4 2.14961 12.8976 2.14961
8366 2 0 10.748 0
8367 2 1.0748 11.8228 0
8368 2 1.0748 10.748 1.0748
8369 2 0 11.8228 1.0748
8370 2 2.14961 10.748 0
8371 2 3.22441 11.8228 0
8372 2 3.22441 10.748 1.0748
8373 2 2.14961 11.8228 1.0748
8404 2 2.14961 12.8976 0
8880 2 0 10.748 2.14961
8881 2 1.0748 10.748 3.22441
8882 2 0 11.8228 3.22441
8883 2 2.14961 10.748 2.14961
8884 2 3.22441 11.8228 2.14961
8885 2 3.22441 10.748 3.22441
8918 2 0 12.8976 2.14961
8920 2 2.14961 12.8976 2.14961
8922 2 3.22441 12.8976 3.22441
166 4 5.37402 11.8228 0
167 4 5.37402 10.748 1.0748
168 4 4.29921 11.8228 1.0748
170 4 6.44882 11.8228 1.0748
198 4 4.29921 12.8976 0
200 4 5.37402 12.8976 1.0748
202 4 6.44882 12.8976 0
679 4 4.29921 10.748 2.14961
680 4 5.37402 11.8228 2.14961
681 4 5.37402 10.748 3.22441
682 4 6.44882 10.748 2.14961
684 4 6.44882 11.8228 3.22441
716 4 5.37402 12.8976 3.22441
718 4 6.44882 12.8976 2.14961
8374 2 4.29921 10.748 0
8375 2 5.37402 11.8228 0
8406 2 4.29921 12.8976 0
8408 2 6.44882 12.8976 0
8886 2 4.29921 10.748 2.14961
8887 2 5.37402 11.8228 2.14961
8889 2 6.44882 11.8228 3.22441
8923 2 4.29921 12.8976 2.14961
8925 2 5.37402 12.8976 3.22441
8926 2 6.44882 12.8976 2.14961
169 4 7.52362 10.748 1.0748
171 4 8.59843 10.748 0
172 4 9.67323 11.8228 0
173 4 9.67323 10.748 1.0748
174 4 8.59843 11.8228 1.0748
204 4 7.52362 12.8976 1.0748
206 4 9.67323 12.8976 1.0748
683 4 7.52362 11.8228 2.14961
685 4 8.59843 10.748 2.14961
686 4 9.67323 11.8228 2.14961
687 4 9.67323 10.748 3.22441
721 4 8.59843 12.8976 2.14961
8376 2 7.52362 11.8228 0
8377 2 7.52362 10.748 1.0748
8378 2 8.59843 10.748 0
8379 2 9.67323 11.8228 0
8380 2 9.67323 10.748 1.0748
8381 2 8.59843 11.8228 1.0748
8410 2 8.59843 12.8976 0
8888 2 7.52362 11.8228 2.14961
8890 2 8.59843 10.748 2.14961
8891 2 9.67323 11.8228 2.14961
8928 2 8.59843 12.8976 2.14961
8929 2 9.67323 12.8976 3.22441
175 4 10.748 10.748 0
176 4 10.748 11.8228 1.0748
177 4 12.8976 10.748 0
209 4 12.8976 12.8976 0
688 4 10.748 10.748 2.14961
689 4 11.8228 11.8228 2.14961
690 4 11.8228 10.748 3.22441
693 4 12.8976 11.8228 3.22441
724 4 11.8228 12.8976 3.22441
8382 2 11.8228 11.8228 0
8383 2 11.8228 10.748 1.0748
8413 2 10.748 12.8976 0
8414 2 11.8228 12.8976 1.0748
8892 2 11.8228 11.8228 2.14961
8893 2 11.8228 10.748 3.22441
8894 2 12.8976 10.748 2.14961
8896 2 12.8976 11.8228 3.22441
8931 2 11.8228 12.8976 3.22441
178 4 13.9724 11.8228 0
179 4 16.122 11.8228 0
691 4 13.9724 11.8228 2.14961
692 4 13.9724 10.748 3.22441
725 4 13.9724 12.8976 3.22441
8384 2 13.9724 11.8228 0
8385 2 13.9724 10.748 1.0748
8386 2 15.0472 10.748 0
8387 2 16.122 11.8228 0
8416 2 13.9724 12.8976 1.0748
8417 2 15.0472 12.8976 0
8418 2 16.122 12.8976 1.0748
8895 2 13.9724 11.8228 2.14961
8897 2 15.0472 10.748 2.14961
8933 2 15.0472 12.8976 2.14961
180 4 19.3465 10.748 0
181 4 20.4213 11.8228 0
182 4 19.3465 11.8228 1.0748
212 4 17.1969 12.8976 0
214 4 18.2717 12.8976 1.0748
217 4 20.4213 12.8976 1.0748
694 4 18.2717 10.748 3.22441
695 4 17.1969 11.8228 3.22441
696 4 20.4213 10.748 3.22441
728 4 17.1969 12.8976 2.14961
730 4 18.2717 12.8976 3.22441
731 4 19.3465 12.8976 2.14961
732 4 20.4213 12.8976 3.22441
8388 2 17.1969 11.8228 1.0748
8389 2 20.4213 11.8228 0
8390 2 20.4213 10.748 1.0748
8419 2 17.1969 12.8976 0
8420 2 18.2717 12.8976 1.0748
8421 2 19.3465 12.8976 0
8423 2 20.4213 12.8976 1.0748
8898 2 18.2717 11.8228 2.14961
8899 2 20.4213 11.8228 2.14961
8900 2 20.4213 10.748 3.22441
8901 2 19.3465 11.8228 3.22441
8937 2 19.3465 12.8976 2.14961
8939 2 20.4213 12.8976 3.22441
183 4 21.4961 10.748 0
184 4 23.6457 10.748 0
185 4 23.6457 11.8228 1.0748
218 4 21.4961 12.8976 0
219 4 22.5709 12.8976 1.0748
220 4 23.6457 12.8976 0
697 4 21.4961 11.8228 3.22441
698 4 23.6457 10.748 2.14961
700 4 23.6457 11.8228 3.22441
734 4 21.4961 12.8976 2.14961
8391 2 21.4961 10.748 0
8392 2 22.5709 11.8228 0
8393 2 22.5709 10.748 1.0748
8394 2 23.6457 11.8228 1.0748
8424 2 21.4961 12.8976 0
8902 2 21.4961 10.748 2.14961
8903 2 22.5709 11.8228 2.14961
8904 2 21.4961 11.8228 3.22441
8942 2 22.5709 12.8976 3.22441
8943 2 23.6457 12.8976 2.14961
186 4 26.8701 10.748 1.0748
223 4 26.8701 12.8976 1.0748
699 4 24.7205 11.8228 2.14961
701 4 25.7953 10.748 2.14961
737 4 24.7205 12.8976 3.22441
739 4 25.7953 12.8976 2.14961
8395 2 25.7953 10.748 0
8396 2 26.8701 10.748 1.0748
8397 2 25.7953 11.8228 1.0748
8905 2 24.7205 10.748 3.22441
8906 2 25.7953 10.748 2.14961
8907 2 26.8701 11.8228 2.14961
8908 2 26.8701 10.748 3.22441
8945 2 26.8701 12.8976 3.22441
187 4 29.0197 11.8228 0
188 4 29.0197 10.748 1.0748
189 4 27.9449 11.8228 1.0748
224 4 27.9449 12.8976 0
226 4 30.0945 12.8976 0
702 4 27.9449 10.748 2.14961
703 4 29.0197 11.8228 2.14961
704 4 29.0197 10.748 3.22441
705 4 30.0945 10.748 2.14961
708 4 30.0945 11.8228 3.22441
741 4 29.0197 12.8976 3.22441
8398 2 27.9449 10.748 0
8399 2 29.0197 10.748 1.0748
8400 2 27.9449 11.8228 1.0748
8401 2 30.0945 10.748 0
8429 2 29.0197 12.8976 1.0748
8909 2 27.9449 10.748 2.14961
8910 2 29.0197 11.8228 2.14961
8911 2 29.0197 10.748 3.22441
8912 2 27.9449 11.8228 3.22441
8915 2 30.0945 11.8228 3.22441
8947 2 27.9449 12.8976 2.14961
8948 2 29.0197 12.8976 3.22441
8949 2 30.0945 12.8976 2.14961
190 4 31.1693 11.8228 0
191 4 33.3189 11.8228 0
192 4 33.3189 10.748 1.0748
706 4 31.1693 11.8228 2.14961
707 4 31.1693 10.748 3.22441
709 4 32.2441 10.748 2.14961
710 4 33.3189 11.8228 2.14961
744 4 31.1693 12.8976 3.22441
746 4 33.3189 12.8976 3.22441
8402 2 31.1693 11.8228 0
8403 2 33.3189 11.8228 0
8913 2 31.1693 11.8228 2.14961
8914 2 31.1693 10.748 3.22441
8916 2 32.2441 10.748 2.14961
8917 2 33.3189 10.748 3.22441
8951 2 33.3189 12.8976 3.22441
193 4 1.0748 13.9724 0
195 4 0 13.9724 1.0748
197 4 3.22441 13.9724 0
230 4 0 15.0472 0
231 4 1.0748 16.122 0
232 4 1.0748 15.0472 1.0748
233 4 0 16.122 1.0748
234 4 3.22441 16.122 0
235 4 3.22441 15.0472 1.0748
236 4 2.14961 16.122 1.0748
712 4 1.0748 13.9724 2.14961
714 4 2.14961 13.9724 3.22441
747 4 0 15.0472 2.14961
748 4 1.0748 16.122 2.14961
749 4 1.0748 15.0472 3.22441
750 4 2.14961 15.0472 2.14961
751 4 3.22441 15.0472 3.22441
8405 2 2.14961 13.9724 1.0748
8431 2 0 15.0472 0
8432 2 1.0748 16.122 0
8433 2 1.0748 15.0472 1.0748
8434 2 0 16.122 1.0748
8435 2 3.22441 16.122 0
8436 2 3.22441 15.0472 1.0748
8919 2 1.0748 13.9724 2.14961
8921 2 3.22441 13.9724 2.14961
8952 2 0 15.0472 2.14961
8953 2 1.0748 16.122 2.14961
8954 2 3.22441 16.122 2.14961
8955 2 3.22441 15.0472 3.22441
199 4 5.37402 13.9724 0
201 4 4.29921 13.9724 1.0748
237 4 5.37402 15.0472 1.0748
238 4 4.29921 16.122 1.0748
239 4 6.44882 15.0472 0
241 4 6.44882 16.122 1.0748
715 4 5.37402 13.9724 2.14961
717 4 4.29921 13.9724 3.22441
720 4 6.44882 13.9724 3.22441
752 4 5.37402 16.122 2.14961
8407 2 5.37402 13.9724 0
8409 2 6.44882 13.9724 1.0748
8437 2 4.29921 15.0472 0
8438 2 5.37402 16.122 0
8439 2 5.37402 15.0472 1.0748
8440 2 4.29921 16.122 1.0748
8924 2 5.37402 13.9724 2.14961
8956 2 4.29921 15.0472 2.14961
8957 2 5.37402 15.0472 3.22441
8960 2 6.44882 16.122 3.22441
203 4 7.52362 13.9724 0
205 4 9.67323 13.9724 0
240 4 7.52362 15.0472 1.0748
242 4 9.67323 16.122 0
243 4 9.67323 15.0472 1.0748
244 4 8.59843 16.122 1.0748
719 4 7.52362 13.9724 2.14961
722 4 8.59843 13.9724 3.22441
753 4 7.52362 16.122 2.14961
754 4 7.52362 15.0472 3.22441
755 4 8.59843 15.0472 2.14961
756 4 9.67323 16.122 2.14961
757 4 8.59843 16.122 3.22441
8411 2 9.67323 13.9724 0
8412 2 8.59843 13.9724 1.0748
8441 2 9.67323 15.0472 1.0748
8927 2 7.52362 13.9724 2.14961
8958 2 7.52362 16.122 2.14961
8959 2 7.52362 15.0472 3.22441
8961 2 8.59843 16.122 3.22441
207 4 11.8228 13.9724 0
208 4 10.748 13.9724 1.0748
245 4 12.8976 15.0472 0
723 4 11.8228 13.9724 2.14961
726 4 12.8976 13.9724 3.22441
758 4 10.748 16.122 3.22441
759 4 12.8976 15.0472 2.14961
760 4 12.8976 16.122 3.22441
8442 2 11.8228 16.122 0
8443 2 11.8228 15.0472 1.0748
8930 2 11.8228 13.9724 2.14961
8932 2 12.8976 13.9724 3.22441
8962 2 10.748 15.0472 2.14961
8963 2 11.8228 16.122 2.14961
8964 2 10.748 16.122 3.22441
210 4 13.9724 13.9724 0
211 4 16.122 13.9724 0
246 4 13.9724 15.0472 1.0748
247 4 16.122 16.122 0
248 4 16.122 15.0472 1.0748
249 4 15.0472 16.122 1.0748
727 4 16.122 13.9724 2.14961
761 4 16.122 15.0472 3.22441
762 4 15.0472 16.122 3.22441
8415 2 13.9724 13.9724 0
8444 2 13.9724 16.122 0
8445 2 13.9724 15.0472 1.0748
8446 2 15.0472 15.0472 0
8934 2 16.122 13.9724 2.14961
8935 2 15.0472 13.9724 3.22441
8965 2 15.0472 15.0472 2.14961
213 4 18.2717 13.9724 0
215 4 17.1969 13.9724 1.0748
216 4 20.4213 13.9724 0
250 4 17.1969 16.122 1.0748
251 4 19.3465 15.0472 0
729 4 18.2717 13.9724 2.14961
733 4 19.3465 13.9724 3.22441
763 4 18.2717 15.0472 3.22441
764 4 17.1969 16.122 3.22441
765 4 19.3465 15.0472 2.14961
766 4 20.4213 15.0472 3.22441
8422 2 20.4213 13.9724 0
8447 2 17.1969 15.0472 0
8448 2 18.2717 16.122 0
8449 2 19.3465 15.0472 0
8450 2 20.4213 15.0472 1.0748
8936 2 18.2717 13.9724 2.14961
8938 2 20.4213 13.9724 2.14961
8940 2 19.3465 13.9724 3.22441
8966 2 17.1969 15.0472 2.14961
8967 2 18.2717 15.0472 3.22441
8968 2 19.3465 15.0472 2.14961
8969 2 20.4213 16.122 2.14961
8970 2 19.3465 16.122 3.22441
252 4 21.4961 15.0472 0
253 4 22.5709 15.0472 1.0748
735 4 22.5709 13.9724 2.14961
738 4 23.6457 13.9724 3.22441
767 4 22.5709 16.122 2.14961
768 4 21.4961 16.122 3.22441
769 4 23.6457 15.0472 2.14961
8425 2 22.5709 13.9724 0
8427 2 23.6457 13.9724 1.0748
8451 2 21.4961 15.0472 0
8452 2 22.5709 16.122 0
8453 2 22.5709 15.0472 1.0748
8454 2 23.6457 15.0472 0
8455 2 23.6457 16.122 1.0748
8941 2 22.5709 13.9724 2.14961
8971 2 22.5709 16.122 2.14961
8972 2 22.5709 15.0472 3.22441
8973 2 21.4961 16.122 3.22441
221 4 24.7205 13.9724 0
222 4 26.8701 13.9724 0
254 4 24.7205 16.122 0
255 4 26.8701 16.122 0
256 4 26.8701 15.0472 1.0748
736 4 24.7205 13.9724 2.14961
740 4 26.8701 13.9724 2.14961
770 4 26.8701 15.0472 3.22441
771 4 25.7953 16.122 3.22441
8426 2 24.7205 13.9724 0
8428 2 25.7953 13.9724 1.0748
8456 2 25.7953 15.0472 0
8457 2 26.8701 16.122 0
8458 2 25.7953 16.122 1.0748
8944 2 26.8701 13.9724 2.14961
8946 2 25.7953 13.9724 3.22441
8974 2 24.7205 16.122 2.14961
8975 2 25.7953 16.122 3.22441
225 4 27.9449 13.9724 1.0748
228 4 30.0945 13.9724 1.0748
257 4 27.9449 16.122 1.0748
742 4 27.9449 13.9724 3.22441
772 4 27.9449 15.0472 2.14961
773 4 29.0197 16.122 2.14961
774 4 27.9449 16.122 3.22441
8459 2 29.0197 16.122 0
8461 2 30.0945 16.122 1.0748
8950 2 30.0945 13.9724 3.22441
8976 2 29.0197 16.122 2.14961
8977 2 29.0197 15.0472 3.22441
8979 2 30.0945 16.122 3.22441
227 4 31.1693 13.9724 0
229 4 33.3189 13.9724 0
258 4 31.1693 16.122 0
259 4 33.3189 15.0472 1.0748
743 4 31.1693 13.9724 2.14961
745 4 33.3189 13.9724 2.14961
775 4 31.1693 15.0472 3.22441
776 4 32.2441 15.0472 2.14961
777 4 33.3189 16.122 2.14961
8430 2 31.1693 13.9724 0
8460 2 31.1693 16.122 0
8462 2 33.3189 16.122 0
8978 2 31.1693 15.0472 3.22441
8980 2 33.3189 16.122 2.14961
260 4 0 17.1969 0
261 4 1.0748 18.2717 0
262 4 0 18.2717 1.0748
263 4 2.14961 17.1969 0
264 4 3.22441 18.2717 0
265 4 3.22441 17.1969 1.0748
266 4 2.14961 18.2717 1.0748
294 4 1.0748 20.4213 0
295 4 2.14961 19.3465 0
296 4 3.22441 20.4213 0
778 4 0 17.1969 2.14961
779 4 1.0748 18.2717 2.14961
780 4 0 18.2717 3.22441
781 4 2.14961 17.1969 2.14961
782 4 2.14961 18.2717 3.22441
811 4 2.14961 19.3465 2.14961
812 4 3.22441 20.4213 2.14961
813 4 2.14961 20.4213 3.22441
8463 2 1.0748 18.2717 0
8464 2 1.0748 17.1969 1.0748
8465 2 0 18.2717 1.0748
8466 2 2.14961 17.1969 0
8495 2 0 19.3465 0
8496 2 1.0748 20.4213 0
8497 2 3.22441 20.4213 0
8498 2 3.22441 19.3465 1.0748
8981 2 0 17.1969 2.14961
8982 2 1.0748 17.1969 3.22441
8983 2 0 18.2717 3.22441
8984 2 2.14961 17.1969 2.14961
8985 2 3.22441 18.2717 2.14961
9014 2 0 19.3465 2.14961
9015 2 3.22441 20.4213 2.14961
267 4 4.29921 17.1969 0
268 4 5.37402 17.1969 1.0748
269 4 6.44882 17.1969 0
271 4 6.44882 18.2717 1.0748
297 4 5.37402 19.3465 1.0748
300 4 6.44882 20.4213 1.0748