ITEM: TIMESTEP
0
ITEM: NUMBER OF ATOMS
16384
ITEM: BOX BOUNDS pp pp pp
0.0000000000000000e+00 4.9171934948369199e+01
0.0000000000000000e+00 4.9171934948369199e+01
0.0000000000000000e+00 4.9171934948369199e+01
ITEM: ATOMS id type x y z
1 4 0 0 0
2 4 1.54882 1.54882 0
5 4 3.09764 1.54882 1.54882
32 4 1.54882 3.09764 1.54882
8193 2 0 0 0
8194 2 1.54882 1.54882 0
8195 2 1.54882 0 1.54882
8196 2 0 1.54882 1.54882
8226 2 0 3.09764 0
8730 2 1.54882 1.54882 3.09764
8760 2 3.09764 3.09764 3.09764
3 4 4.64646 1.54882 0
4 4 4.64646 0 1.54882
7 4 6.19528 1.54882 1.54882
34 4 4.64646 3.09764 1.54882
36 4 6.19528 3.09764 0
558 4 6.19528 3.09764 3.09764
8197 2 4.64646 0 1.54882
8198 2 6.19528 0 0
8228 2 4.64646 3.09764 1.54882
8229 2 6.19528 3.09764 0
8732 2 4.64646 1.54882 3.09764
8735 2 6.19528 0 3.09764
6 4 7.74409 0 1.54882
10 4 9.29291 1.54882 1.54882
38 4 7.74409 3.09764 1.54882
561 4 9.29291 3.09764 3.09764
8199 2 7.74409 1.54882 0
8 4 10.8417 1.54882 0
9 4 10.8417 0 1.54882
11 4 12.3906 0 0
12 4 12.3906 1.54882 1.54882
41 4 10.8417 3.09764 1.54882
43 4 12.3906 3.09764 0
525 4 10.8417 1.54882 3.09764
528 4 12.3906 0 3.09764
8200 2 10.8417 1.54882 0
8231 2 12.3906 3.09764 0
8740 2 12.3906 0 3.09764
565 4 15.4882 3.09764 3.09764
8201 2 13.9394 0 1.54882
8203 2 15.4882 1.54882 1.54882
8232 2 13.9394 3.09764 1.54882
13 4 18.5858 0 0
46 4 17.037 3.09764 1.54882
48 4 18.5858 3.09764 0
568 4 18.5858 3.09764 3.09764
8202 2 17.037 0 1.54882
8204 2 18.5858 0 0
8206 2 18.5858 1.54882 1.54882
8743 2 18.5858 0 3.09764
8770 2 18.5858 3.09764 3.09764
14 4 21.6835 0 0
16 4 21.6835 1.54882 1.54882
50 4 20.1346 3.09764 1.54882
532 4 20.1346 1.54882 3.09764
534 4 21.6835 0 3.09764
8205 2 20.1346 1.54882 0
8207 2 21.6835 0 0
8235 2 20.1346 3.09764 1.54882
8236 2 21.6835 3.09764 0
8744 2 20.1346 1.54882 3.09764
8746 2 21.6835 0 3.09764
8773 2 21.6835 3.09764 3.09764
15 4 23.2323 0 1.54882
17 4 24.7811 0 0
53 4 24.7811 3.09764 0
536 4 24.7811 0 3.09764
571 4 24.7811 3.09764 3.09764
8208 2 23.2323 0 1.54882
8238 2 24.7811 3.09764 0
8748 2 24.7811 0 3.09764
18 4 26.3299 1.54882 0
19 4 26.3299 0 1.54882
20 4 29.4276 1.54882 0
21 4 29.4276 0 1.54882
55 4 26.3299 3.09764 1.54882
57 4 27.8787 3.09764 0
537 4 26.3299 1.54882 3.09764
575 4 27.8787 3.09764 3.09764
8209 2 26.3299 1.54882 0
8210 2 29.4276 1.54882 0
8211 2 29.4276 0 1.54882
8212 2 27.8787 1.54882 1.54882
8240 2 29.4276 3.09764 1.54882
8750 2 29.4276 1.54882 3.09764
8778 2 27.8787 3.09764 3.09764
22 4 32.5252 1.54882 0
60 4 32.5252 3.09764 1.54882
540 4 30.9764 0 3.09764
8213 2 30.9764 0 0
8214 2 32.5252 0 1.54882
8215 2 30.9764 1.54882 1.54882
8242 2 32.5252 3.09764 1.54882
23 4 34.074 0 0
24 4 35.6228 1.54882 0
62 4 35.6228 3.09764 1.54882
541 4 34.074 0 3.09764
542 4 35.6228 1.54882 3.09764
8216 2 35.6228 1.54882 0
8217 2 34.074 1.54882 1.54882
8243 2 34.074 3.09764 0
8754 2 35.6228 1.54882 3.09764
25 4 38.7205 1.54882 0
63 4 37.1717 3.09764 0
65 4 38.7205 3.09764 1.54882
543 4 38.7205 1.54882 3.09764
8218 2 37.1717 0 0
8219 2 38.7205 1.54882 0
8220 2 37.1717 1.54882 1.54882
8245 2 37.1717 3.09764 0
8246 2 38.7205 3.09764 1.54882
8783 2 37.1717 3.09764 3.09764
26 4 41.8181 1.54882 0
67 4 41.8181 3.09764 1.54882
546 4 40.2693 0 3.09764
547 4 41.8181 1.54882 3.09764
583 4 40.2693 3.09764 3.09764
8221 2 40.2693 0 0
8222 2 41.8181 0 1.54882
8223 2 40.2693 1.54882 1.54882
8247 2 40.2693 3.09764 0
8249 2 41.8181 3.09764 1.54882
8757 2 40.2693 0 3.09764
27 4 43.3669 0 0
28 4 44.9157 0 1.54882
29 4 43.3669 1.54882 1.54882
68 4 43.3669 3.09764 0
8224 2 44.9157 0 1.54882
8251 2 43.3669 3.09764 0
8787 2 43.3669 3.09764 3.09764
30 4 46.4646 0 0
31 4 48.0134 1.54882 0
70 4 46.4646 3.09764 0
551 4 46.4646 0 3.09764
8225 2 46.4646 0 0
8252 2 46.4646 3.09764 0
8254 2 48.0134 3.09764 1.54882
8759 2 48.0134 1.54882 3.09764
33 4 0 4.64646 1.54882
35 4 3.09764 4.64646 1.54882
73 4 1.54882 6.19528 1.54882
553 4 1.54882 4.64646 3.09764
587 4 0 6.19528 3.09764
8227 2 1.54882 4.64646 0
8256 2 1.54882 6.19528 1.54882
8258 2 3.09764 6.19528 0
8790 2 0 6.19528 3.09764
8793 2 3.09764 6.19528 3.09764
39 4 6.19528 4.64646 1.54882
74 4 4.64646 6.19528 1.54882
555 4 4.64646 4.64646 3.09764
8260 2 6.19528 6.19528 0
8761 2 4.64646 4.64646 3.09764
37 4 7.74409 4.64646 0
42 4 9.29291 4.64646 1.54882
76 4 9.29291 6.19528 0
8230 2 7.74409 4.64646 0
8261 2 7.74409 6.19528 1.54882
8263 2 9.29291 6.19528 0
8762 2 7.74409 4.64646 3.09764
40 4 10.8417 4.64646 0
45 4 12.3906 4.64646 1.54882
77 4 10.8417 6.19528 1.54882
562 4 10.8417 4.64646 3.09764
592 4 12.3906 6.19528 3.09764
8265 2 12.3906 6.19528 0
44 4 13.9394 4.64646 0
47 4 15.4882 4.64646 1.54882
78 4 13.9394 6.19528 1.54882
563 4 13.9394 4.64646 3.09764
594 4 15.4882 6.19528 3.09764
8267 2 13.9394 6.19528 1.54882
8268 2 15.4882 6.19528 0
8765 2 13.9394 4.64646 3.09764
51 4 18.5858 4.64646 1.54882
80 4 17.037 6.19528 1.54882
81 4 18.5858 6.19528 0
566 4 17.037 4.64646 3.09764
596 4 18.5858 6.19528 3.09764
8233 2 17.037 4.64646 0
8270 2 17.037 6.19528 1.54882
8768 2 17.037 4.64646 3.09764
49 4 20.1346 4.64646 0
52 4 21.6835 4.64646 1.54882
82 4 20.1346 6.19528 1.54882
569 4 20.1346 4.64646 3.09764
598 4 21.6835 6.19528 3.09764
8234 2 20.1346 4.64646 0
8237 2 21.6835 4.64646 1.54882
8771 2 20.1346 4.64646 3.09764
8804 2 21.6835 6.19528 3.09764
56 4 24.7811 4.64646 1.54882
8274 2 24.7811 6.19528 0
54 4 26.3299 4.64646 0
58 4 29.4276 4.64646 0
59 4 27.8787 4.64646 1.54882
84 4 26.3299 6.19528 1.54882
572 4 26.3299 4.64646 3.09764
576 4 29.4276 4.64646 3.09764
603 4 27.8787 6.19528 3.09764
8239 2 26.3299 4.64646 0
8241 2 27.8787 4.64646 1.54882
8277 2 27.8787 6.19528 0
8279 2 29.4276 6.19528 1.54882
8776 2 26.3299 4.64646 3.09764
61 4 30.9764 4.64646 1.54882
87 4 32.5252 6.19528 1.54882
8281 2 30.9764 6.19528 0
8283 2 32.5252 6.19528 1.54882
89 4 35.6228 6.19528 1.54882
579 4 35.6228 4.64646 3.09764
604 4 34.074 6.19528 3.09764
8244 2 35.6228 4.64646 0
8812 2 34.074 6.19528 3.09764
64 4 38.7205 4.64646 0
582 4 38.7205 4.64646 3.09764
8285 2 37.1717 6.19528 0
8784 2 38.7205 4.64646 3.09764
8816 2 37.1717 6.19528 3.09764
66 4 41.8181 4.64646 0
584 4 41.8181 4.64646 3.09764
8248 2 41.8181 4.64646 0
8250 2 40.2693 4.64646 1.54882
8287 2 41.8181 6.19528 1.54882
69 4 44.9157 4.64646 0
94 4 43.3669 6.19528 0
8289 2 43.3669 6.19528 0
71 4 48.0134 4.64646 0
72 4 46.4646 4.64646 1.54882
95 4 46.4646 6.19528 0
586 4 48.0134 4.64646 3.09764
609 4 46.4646 6.19528 3.09764
8253 2 48.0134 4.64646 0
8255 2 46.4646 4.64646 1.54882
8292 2 46.4646 6.19528 0
8789 2 48.0134 4.64646 3.09764
75 4 3.09764 7.74409 1.54882
99 4 1.54882 9.29291 1.54882
101 4 3.09764 9.29291 0
588 4 1.54882 7.74409 3.09764
8257 2 0 7.74409 1.54882
8295 2 0 9.29291 0
8296 2 3.09764 9.29291 0
8824 2 0 9.29291 3.09764
8826 2 3.09764 9.29291 3.09764
103 4 4.64646 9.29291 1.54882
104 4 6.19528 9.29291 0
590 4 4.64646 7.74409 3.09764
613 4 6.19528 9.29291 3.09764
8259 2 4.64646 7.74409 0
8262 2 6.19528 7.74409 1.54882
8298 2 4.64646 9.29291 1.54882
8299 2 6.19528 9.29291 0
8794 2 4.64646 7.74409 3.09764
8827 2 6.19528 9.29291 3.09764
105 4 7.74409 9.29291 1.54882
8264 2 9.29291 7.74409 1.54882
8301 2 9.29291 9.29291 0
107 4 10.8417 9.29291 1.54882
8798 2 10.8417 7.74409 3.09764
8831 2 12.3906 9.29291 3.09764
108 4 15.4882 9.29291 0
618 4 15.4882 9.29291 3.09764
8266 2 13.9394 7.74409 0
8305 2 13.9394 9.29291 1.54882
79 4 17.037 7.74409 0
110 4 17.037 9.29291 1.54882
111 4 18.5858 9.29291 0
595 4 17.037 7.74409 3.09764
8269 2 17.037 7.74409 0
8272 2 18.5858 7.74409 1.54882
8801 2 17.037 7.74409 3.09764
83 4 21.6835 7.74409 1.54882
112 4 20.1346 9.29291 1.54882
114 4 21.6835 9.29291 0
8271 2 20.1346 7.74409 0
8273 2 21.6835 7.74409 1.54882
8309 2 21.6835 9.29291 0
116 4 23.2323 9.29291 1.54882
599 4 23.2323 7.74409 3.09764
623 4 24.7811 9.29291 3.09764
8276 2 24.7811 7.74409 1.54882
8310 2 23.2323 9.29291 1.54882
8312 2 24.7811 9.29291 0
8835 2 24.7811 9.29291 3.09764
85 4 29.4276 7.74409 0
86 4 27.8787 7.74409 1.54882
119 4 27.8787 9.29291 0
121 4 29.4276 9.29291 1.54882
601 4 26.3299 7.74409 3.09764
626 4 27.8787 9.29291 3.09764
8275 2 26.3299 7.74409 0
8278 2 29.4276 7.74409 0
8280 2 27.8787 7.74409 1.54882
8314 2 27.8787 9.29291 0
8315 2 29.4276 9.29291 1.54882
8805 2 26.3299 7.74409 3.09764
88 4 30.9764 7.74409 1.54882
123 4 30.9764 9.29291 0
124 4 32.5252 9.29291 1.54882
628 4 30.9764 9.29291 3.09764
8282 2 32.5252 7.74409 0
8316 2 30.9764 9.29291 0
8809 2 32.5252 7.74409 3.09764
8839 2 30.9764 9.29291 3.09764
90 4 34.074 7.74409 1.54882
8284 2 35.6228 7.74409 0
8317 2 34.074 9.29291 0
8813 2 35.6228 7.74409 3.09764
91 4 38.7205 7.74409 0
92 4 37.1717 7.74409 1.54882
126 4 38.7205 9.29291 1.54882
633 4 37.1717 9.29291 3.09764
8817 2 38.7205 7.74409 3.09764
93 4 40.2693 7.74409 1.54882
128 4 40.2693 9.29291 0
129 4 41.8181 9.29291 1.54882
8286 2 41.8181 7.74409 0
8288 2 40.2693 7.74409 1.54882
8319 2 41.8181 9.29291 1.54882
130 4 43.3669 9.29291 0
8290 2 44.9157 7.74409 0
8291 2 43.3669 7.74409 1.54882
8321 2 43.3669 9.29291 0
8847 2 43.3669 9.29291 3.09764
96 4 48.0134 7.74409 0
97 4 46.4646 7.74409 1.54882
610 4 48.0134 7.74409 3.09764
637 4 46.4646 9.29291 3.09764
8293 2 48.0134 7.74409 0
8294 2 46.4646 7.74409 1.54882
8323 2 46.4646 9.29291 0
8822 2 48.0134 7.74409 3.09764
98 4 1.54882 10.8417 0
100 4 0 10.8417 1.54882
8327 2 1.54882 12.3906 1.54882
8329 2 3.09764 12.3906 0
8825 2 1.54882 10.8417 3.09764
8852 2 0 12.3906 3.09764
8856 2 3.09764 12.3906 3.09764
102 4 4.64646 10.8417 0
612 4 4.64646 10.8417 3.09764
8297 2 4.64646 10.8417 0
8331 2 4.64646 12.3906 1.54882
8333 2 6.19528 12.3906 0
134 4 7.74409 12.3906 1.54882
614 4 7.74409 10.8417 3.09764
8300 2 7.74409 10.8417 0
8303 2 9.29291 10.8417 1.54882
8828 2 7.74409 10.8417 3.09764
106 4 10.8417 10.8417 0
616 4 10.8417 10.8417 3.09764
8302 2 10.8417 10.8417 0
8829 2 10.8417 10.8417 3.09764
137 4 15.4882 12.3906 0
8304 2 13.9394 10.8417 0
8338 2 13.9394 12.3906 1.54882
8340 2 15.4882 12.3906 0
8864 2 15.4882 12.3906 3.09764
109 4 17.037 10.8417 0
113 4 18.5858 10.8417 1.54882
139 4 18.5858 12.3906 0
8306 2 17.037 10.8417 0
8308 2 18.5858 10.8417 1.54882
8341 2 17.037 12.3906 1.54882
8866 2 18.5858 12.3906 3.09764
117 4 21.6835 10.8417 1.54882
620 4 20.1346 10.8417 3.09764
8307 2 20.1346 10.8417 0
8311 2 21.6835 10.8417 1.54882
8344 2 20.1346 12.3906 1.54882
8833 2 20.1346 10.8417 3.09764
8868 2 21.6835 12.3906 3.09764
115 4 23.2323 10.8417 0
118 4 24.7811 10.8417 1.54882
621 4 23.2323 10.8417 3.09764
654 4 24.7811 12.3906 3.09764
8834 2 23.2323 10.8417 3.09764
120 4 29.4276 10.8417 0
122 4 27.8787 10.8417 1.54882
143 4 26.3299 12.3906 1.54882
146 4 29.4276 12.3906 1.54882
624 4 26.3299 10.8417 3.09764
657 4 27.8787 12.3906 3.09764
8313 2 26.3299 10.8417 0
8349 2 29.4276 12.3906 1.54882
8836 2 26.3299 10.8417 3.09764
8838 2 29.4276 10.8417 3.09764
148 4 30.9764 12.3906 0
629 4 32.5252 10.8417 3.09764
8840 2 32.5252 10.8417 3.09764
660 4 34.074 12.3906 3.09764
8318 2 34.074 10.8417 1.54882
8353 2 34.074 12.3906 0
8354 2 35.6228 12.3906 1.54882
8843 2 35.6228 10.8417 3.09764
125 4 38.7205 10.8417 0
127 4 37.1717 10.8417 1.54882
152 4 37.1717 12.3906 0
662 4 37.1717 12.3906 3.09764
8356 2 37.1717 12.3906 0
8357 2 38.7205 12.3906 1.54882
155 4 40.2693 12.3906 0
156 4 41.8181 12.3906 1.54882
664 4 40.2693 12.3906 3.09764
8320 2 40.2693 10.8417 1.54882
8359 2 41.8181 12.3906 1.54882
8878 2 40.2693 12.3906 3.09764
158 4 43.3669 12.3906 0
635 4 44.9157 10.8417 3.09764
667 4 43.3669 12.3906 3.09764
8322 2 43.3669 10.8417 1.54882
8848 2 44.9157 10.8417 3.09764
131 4 48.0134 10.8417 0
8324 2 48.0134 10.8417 0
8325 2 46.4646 10.8417 1.54882
8362 2 46.4646 12.3906 0
8364 2 48.0134 12.3906 1.54882
8851 2 48.0134 10.8417 3.09764
132 4 1.54882 13.9394 0
160 4 0 15.4882 0
162 4 1.54882 15.4882 1.54882
164 4 3.09764 15.4882 0
640 4 1.54882 13.9394 3.09764
672 4 0 15.4882 3.09764
675 4 3.09764 15.4882 3.09764
8326 2 1.54882 13.9394 0
8328 2 0 13.9394 1.54882
8332 2 3.09764 13.9394 1.54882
8366 2 0 15.4882 0
8368 2 1.54882 15.4882 1.54882
8370 2 3.09764 15.4882 0
8853 2 1.54882 13.9394 3.09764
8880 2 0 15.4882 3.09764
8883 2 3.09764 15.4882 3.09764
133 4 4.64646 13.9394 0
165 4 4.64646 15.4882 1.54882
679 4 6.19528 15.4882 3.09764
8330 2 4.64646 13.9394 0
8335 2 6.19528 13.9394 1.54882
8372 2 4.64646 15.4882 1.54882
8374 2 6.19528 15.4882 0
8857 2 4.64646 13.9394 3.09764
8886 2 6.19528 15.4882 3.09764
135 4 9.29291 13.9394 1.54882
167 4 7.74409 15.4882 1.54882
682 4 9.29291 15.4882 3.09764
8334 2 7.74409 13.9394 0
8860 2 7.74409 13.9394 3.09764
136 4 12.3906 13.9394 1.54882
169 4 10.8417 15.4882 1.54882
171 4 12.3906 15.4882 0
685 4 12.3906 15.4882 3.09764
8336 2 10.8417 13.9394 0
8339 2 12.3906 13.9394 1.54882
8377 2 10.8417 15.4882 1.54882
8378 2 12.3906 15.4882 0
8890 2 12.3906 15.4882 3.09764
173 4 13.9394 15.4882 1.54882
175 4 15.4882 15.4882 0
688 4 15.4882 15.4882 3.09764
8337 2 13.9394 13.9394 0
8342 2 15.4882 13.9394 1.54882
8380 2 13.9394 15.4882 1.54882
8863 2 13.9394 13.9394 3.09764
138 4 17.037 13.9394 0
177 4 18.5858 15.4882 0
8345 2 18.5858 13.9394 1.54882
8383 2 17.037 15.4882 1.54882
8894 2 18.5858 15.4882 3.09764
140 4 20.1346 13.9394 0
142 4 21.6835 13.9394 1.54882
8343 2 20.1346 13.9394 0
8346 2 21.6835 13.9394 1.54882
8385 2 20.1346 15.4882 1.54882
8386 2 21.6835 15.4882 0
8867 2 20.1346 13.9394 3.09764
8897 2 21.6835 15.4882 3.09764
141 4 23.2323 13.9394 0
144 4 24.7811 13.9394 1.54882
652 4 23.2323 13.9394 3.09764
8348 2 24.7811 13.9394 1.54882
8869 2 23.2323 13.9394 3.09764
145 4 29.4276 13.9394 0
147 4 27.8787 13.9394 1.54882
180 4 27.8787 15.4882 0
655 4 26.3299 13.9394 3.09764
658 4 29.4276 13.9394 3.09764
8347 2 26.3299 13.9394 0
8350 2 27.8787 13.9394 1.54882
8390 2 29.4276 15.4882 1.54882
8870 2 26.3299 13.9394 3.09764
8871 2 29.4276 13.9394 3.09764
149 4 32.5252 13.9394 0
150 4 30.9764 13.9394 1.54882
183 4 30.9764 15.4882 0
659 4 32.5252 13.9394 3.09764
8351 2 32.5252 13.9394 0
8352 2 30.9764 13.9394 1.54882
8391 2 30.9764 15.4882 0
8393 2 32.5252 15.4882 1.54882
8874 2 32.5252 13.9394 3.09764
8902 2 30.9764 15.4882 3.09764
151 4 35.6228 13.9394 0
184 4 34.074 15.4882 0
661 4 35.6228 13.9394 3.09764
698 4 34.074 15.4882 3.09764
8355 2 34.074 13.9394 1.54882
153 4 38.7205 13.9394 0
154 4 37.1717 13.9394 1.54882
186 4 38.7205 15.4882 1.54882
663 4 38.7205 13.9394 3.09764
701 4 37.1717 15.4882 3.09764
8358 2 37.1717 13.9394 1.54882
8395 2 37.1717 15.4882 0
8396 2 38.7205 15.4882 1.54882
8906 2 37.1717 15.4882 3.09764
157 4 40.2693 13.9394 1.54882
188 4 41.8181 15.4882 1.54882
702 4 40.2693 15.4882 3.09764
8360 2 40.2693 13.9394 1.54882
8398 2 40.2693 15.4882 0
8399 2 41.8181 15.4882 1.54882
8909 2 40.2693 15.4882 3.09764
668 4 44.9157 13.9394 3.09764
705 4 43.3669 15.4882 3.09764
8361 2 44.9157 13.9394 0
8401 2 43.3669 15.4882 0
159 4 46.4646 13.9394 1.54882
192 4 48.0134 15.4882 1.54882
709 4 46.4646 15.4882 3.09764
8363 2 48.0134 13.9394 0
8365 2 46.4646 13.9394 1.54882
8916 2 46.4646 15.4882 3.09764
161 4 1.54882 17.037 0
163 4 0 17.037 1.54882
194 4 1.54882 18.5858 1.54882
196 4 3.09764 18.5858 0
711 4 0 18.5858 3.09764
713 4 3.09764 18.5858 3.09764
8367 2 1.54882 17.037 0
8369 2 0 17.037 1.54882
8373 2 3.09764 17.037 1.54882
8404 2 3.09764 18.5858 0
8918 2 0 18.5858 3.09764
8920 2 3.09764 18.5858 3.09764
168 4 6.19528 17.037 1.54882
198 4 6.19528 18.5858 0
676 4 4.64646 17.037 3.09764
8371 2 4.64646 17.037 0
8406 2 6.19528 18.5858 0
8884 2 4.64646 17.037 3.09764
8923 2 6.19528 18.5858 3.09764
166 4 7.74409 17.037 0
170 4 9.29291 17.037 1.54882
200 4 7.74409 18.5858 1.54882
202 4 9.29291 18.5858 0
680 4 7.74409 17.037 3.09764
718 4 9.29291 18.5858 3.09764
8375 2 7.74409 17.037 0
8408 2 9.29291 18.5858 0
8887 2 7.74409 17.037 3.09764
8926 2 9.29291 18.5858 3.09764
174 4 12.3906 17.037 1.54882
204 4 10.8417 18.5858 1.54882
683 4 10.8417 17.037 3.09764
721 4 12.3906 18.5858 3.09764
8376 2 10.8417 17.037 0
8381 2 12.3906 17.037 1.54882
8410 2 12.3906 18.5858 0
8888 2 10.8417 17.037 3.09764
8928 2 12.3906 18.5858 3.09764
172 4 13.9394 17.037 0
176 4 15.4882 17.037 1.54882
206 4 13.9394 18.5858 1.54882
686 4 13.9394 17.037 3.09764
8379 2 13.9394 17.037 0
8413 2 15.4882 18.5858 0
8891 2 13.9394 17.037 3.09764
209 4 18.5858 18.5858 0
689 4 17.037 17.037 3.09764
8382 2 17.037 17.037 0
8414 2 17.037 18.5858 1.54882
8892 2 17.037 17.037 3.09764
178 4 20.1346 17.037 0
691 4 20.1346 17.037 3.09764
8384 2 20.1346 17.037 0
8416 2 20.1346 18.5858 1.54882
8417 2 21.6835 18.5858 0
8895 2 20.1346 17.037 3.09764
8933 2 21.6835 18.5858 3.09764
179 4 23.2323 17.037 0
212 4 24.7811 18.5858 0
728 4 24.7811 18.5858 3.09764
8387 2 23.2323 17.037 0
8388 2 24.7811 17.037 1.54882
8418 2 23.2323 18.5858 1.54882
8419 2 24.7811 18.5858 0
181 4 29.4276 17.037 0
182 4 27.8787 17.037 1.54882
214 4 26.3299 18.5858 1.54882
217 4 29.4276 18.5858 1.54882
731 4 27.8787 18.5858 3.09764
8389 2 29.4276 17.037 0
8420 2 26.3299 18.5858 1.54882
8421 2 27.8787 18.5858 0
8423 2 29.4276 18.5858 1.54882
8898 2 26.3299 17.037 3.09764
8899 2 29.4276 17.037 3.09764
8937 2 27.8787 18.5858 3.09764
218 4 30.9764 18.5858 0
219 4 32.5252 18.5858 1.54882
734 4 30.9764 18.5858 3.09764
8392 2 32.5252 17.037 0
8424 2 30.9764 18.5858 0
8903 2 32.5252 17.037 3.09764
185 4 34.074 17.037 1.54882
220 4 34.074 18.5858 0
699 4 35.6228 17.037 3.09764
8394 2 34.074 17.037 1.54882
8943 2 34.074 18.5858 3.09764
223 4 38.7205 18.5858 1.54882
739 4 37.1717 18.5858 3.09764
8397 2 37.1717 17.037 1.54882
8907 2 38.7205 17.037 3.09764
187 4 41.8181 17.037 0
189 4 40.2693 17.037 1.54882
224 4 40.2693 18.5858 0
703 4 41.8181 17.037 3.09764
8400 2 40.2693 17.037 1.54882
8429 2 41.8181 18.5858 1.54882
8910 2 41.8181 17.037 3.09764
8947 2 40.2693 18.5858 3.09764
190 4 44.9157 17.037 0
226 4 43.3669 18.5858 0
706 4 44.9157 17.037 3.09764
8402 2 44.9157 17.037 0
8913 2 44.9157 17.037 3.09764
8949 2 43.3669 18.5858 3.09764
191 4 48.0134 17.037 0
710 4 48.0134 17.037 3.09764
8403 2 48.0134 17.037 0
193 4 1.54882 20.1346 0
195 4 0 20.1346 1.54882
230 4 0 21.6835 0
232 4 1.54882 21.6835 1.54882
712 4 1.54882 20.1346 3.09764
747 4 0 21.6835 3.09764
750 4 3.09764 21.6835 3.09764
8405 2 3.09764 20.1346 1.54882
8431 2 0 21.6835 0
8433 2 1.54882 21.6835 1.54882
8919 2 1.54882 20.1346 3.09764
8952 2 0 21.6835 3.09764
197 4 4.64646 20.1346 0
201 4 6.19528 20.1346 1.54882
235 4 4.64646 21.6835 1.54882
8436 2 4.64646 21.6835 1.54882
8437 2 6.19528 21.6835 0
8921 2 4.64646 20.1346 3.09764
8956 2 6.19528 21.6835 3.09764
199 4 7.74409 20.1346 0
237 4 7.74409 21.6835 1.54882
239 4 9.29291 21.6835 0
715 4 7.74409 20.1346 3.09764
8407 2 7.74409 20.1346 0
8409 2 9.29291 20.1346 1.54882
8439 2 7.74409 21.6835 1.54882
8924 2 7.74409 20.1346 3.09764
203 4 10.8417 20.1346 0
240 4 10.8417 21.6835 1.54882
719 4 10.8417 20.1346 3.09764
755 4 12.3906 21.6835 3.09764
8412 2 12.3906 20.1346 1.54882
8927 2 10.8417 20.1346 3.09764
205 4 13.9394 20.1346 0
208 4 15.4882 20.1346 1.54882
243 4 13.9394 21.6835 1.54882
8411 2 13.9394 20.1346 0
8441 2 13.9394 21.6835 1.54882
8962 2 15.4882 21.6835 3.09764
207 4 17.037 20.1346 0
245 4 18.5858 21.6835 0
723 4 17.037 20.1346 3.09764
759 4 18.5858 21.6835 3.09764
8443 2 17.037 21.6835 1.54882
8930 2 17.037 20.1346 3.09764
210 4 20.1346 20.1346 0
246 4 20.1346 21.6835 1.54882
8415 2 20.1346 20.1346 0
8445 2 20.1346 21.6835 1.54882
8446 2 21.6835 21.6835 0
8965 2 21.6835 21.6835 3.09764
211 4 23.2323 20.1346 0
215 4 24.7811 20.1346 1.54882
248 4 23.2323 21.6835 1.54882
727 4 23.2323 20.1346 3.09764
8447 2 24.7811 21.6835 0
8934 2 23.2323 20.1346 3.09764
8966 2 24.7811 21.6835 3.09764
213 4 26.3299 20.1346 0
216 4 29.4276 20.1346 0
251 4 27.8787 21.6835 0
729 4 26.3299 20.1346 3.09764
765 4 27.8787 21.6835 3.09764
8422 2 29.4276 20.1346 0
8449 2 27.8787 21.6835 0
8450 2 29.4276 21.6835 1.54882
8936 2 26.3299 20.1346 3.09764
8938 2 29.4276 20.1346 3.09764
8968 2 27.8787 21.6835 3.09764
252 4 30.9764 21.6835 0
253 4 32.5252 21.6835 1.54882
735 4 32.5252 20.1346 3.09764
8425 2 32.5252 20.1346 0
8451 2 30.9764 21.6835 0
8453 2 32.5252 21.6835 1.54882
8941 2 32.5252 20.1346 3.09764
221 4 35.6228 20.1346 0
736 4 35.6228 20.1346 3.09764
769 4 34.074 21.6835 3.09764
8426 2 35.6228 20.1346 0
8427 2 34.074 20.1346 1.54882
8454 2 34.074 21.6835 0
222 4 38.7205 20.1346 0
256 4 38.7205 21.6835 1.54882
740 4 38.7205 20.1346 3.09764
8428 2 37.1717 20.1346 1.54882
8456 2 37.1717 21.6835 0
8944 2 38.7205 20.1346 3.09764
225 4 40.2693 20.1346 1.54882
772 4 40.2693 21.6835 3.09764
227 4 44.9157 20.1346 0
228 4 43.3669 20.1346 1.54882
743 4 44.9157 20.1346 3.09764
8430 2 44.9157 20.1346 0
229 4 48.0134 20.1346 0
259 4 48.0134 21.6835 1.54882
745 4 48.0134 20.1346 3.09764
776 4 46.4646 21.6835 3.09764
231 4 1.54882 23.2323 0
233 4 0 23.2323 1.54882
236 4 3.09764 23.2323 1.54882
260 4 0 24.7811 0
263 4 3.09764 24.7811 0
748 4 1.54882 23.2323 3.09764
778 4 0 24.7811 3.09764
781 4 3.09764 24.7811 3.09764
8432 2 1.54882 23.2323 0
8434 2 0 23.2323 1.54882
8464 2 1.54882 24.7811 1.54882
8466 2 3.09764 24.7811 0
8953 2 1.54882 23.2323 3.09764
8981 2 0 24.7811 3.09764
8984 2 3.09764 24.7811 3.09764
234 4 4.64646 23.2323 0
238 4 6.19528 23.2323 1.54882
265 4 4.64646 24.7811 1.54882
267 4 6.19528 24.7811 0
8435 2 4.64646 23.2323 0
8440 2 6.19528 23.2323 1.54882
8467 2 6.19528 24.7811 0
8954 2 4.64646 23.2323 3.09764
8986 2 6.19528 24.7811 3.09764
241 4 9.29291 23.2323 1.54882
268 4 7.74409 24.7811 1.54882
269 4 9.29291 24.7811 0
752 4 7.74409 23.2323 3.09764
8438 2 7.74409 23.2323 0
8469 2 7.74409 24.7811 1.54882
8470 2 9.29291 24.7811 0
244 4 12.3906 23.2323 1.54882
753 4 10.8417 23.2323 3.09764
785 4 12.3906 24.7811 3.09764
8958 2 10.8417 23.2323 3.09764
8992 2 12.3906 24.7811 3.09764
242 4 13.9394 23.2323 0
756 4 13.9394 23.2323 3.09764
788 4 15.4882 24.7811 3.09764
8471 2 13.9394 24.7811 1.54882
274 4 17.037 24.7811 1.54882
8442 2 17.037 23.2323 0
8474 2 18.5858 24.7811 0
8963 2 17.037 23.2323 3.09764
249 4 21.6835 23.2323 1.54882
276 4 20.1346 24.7811 1.54882
278 4 21.6835 24.7811 0
792 4 21.6835 24.7811 3.09764
8444 2 20.1346 23.2323 0
8997 2 21.6835 24.7811 3.09764
247 4 23.2323 23.2323 0
250 4 24.7811 23.2323 1.54882
280 4 24.7811 24.7811 0
793 4 24.7811 24.7811 3.09764
8475 2 24.7811 24.7811 0
281 4 26.3299 24.7811 1.54882
282 4 27.8787 24.7811 0
284 4 29.4276 24.7811 1.54882
8448 2 26.3299 23.2323 0
8477 2 26.3299 24.7811 1.54882
8478 2 27.8787 24.7811 0
8969 2 29.4276 23.2323 3.09764
9000 2 27.8787 24.7811 3.09764
767 4 32.5252 23.2323 3.09764
797 4 30.9764 24.7811 3.09764
8452 2 32.5252 23.2323 0
8480 2 30.9764 24.7811 0
8482 2 32.5252 24.7811 1.54882
8971 2 32.5252 23.2323 3.09764
9003 2 30.9764 24.7811 3.09764
254 4 35.6228 23.2323 0
286 4 34.074 24.7811 0
798 4 34.074 24.7811 3.09764
8455 2 34.074 23.2323 1.54882
8484 2 35.6228 24.7811 1.54882
8974 2 35.6228 23.2323 3.09764
255 4 38.7205 23.2323 0
289 4 38.7205 24.7811 1.54882
8457 2 38.7205 23.2323 0
8458 2 37.1717 23.2323 1.54882
8487 2 38.7205 24.7811 1.54882
9007 2 37.1717 24.7811 3.09764
257 4 40.2693 23.2323 1.54882
773 4 41.8181 23.2323 3.09764
8459 2 41.8181 23.2323 0
8489 2 41.8181 24.7811 1.54882
8976 2 41.8181 23.2323 3.09764
258 4 44.9157 23.2323 0
291 4 44.9157 24.7811 1.54882
8460 2 44.9157 23.2323 0
8461 2 43.3669 23.2323 1.54882
8491 2 43.3669 24.7811 0
9011 2 43.3669 24.7811 3.09764
292 4 48.0134 24.7811 1.54882
777 4 48.0134 23.2323 3.09764
808 4 46.4646 24.7811 3.09764
8462 2 48.0134 23.2323 0
8493 2 48.0134 24.7811 1.54882
8980 2 48.0134 23.2323 3.09764
261 4 1.54882 26.3299 0
262 4 0 26.3299 1.54882
266 4 3.09764 26.3299 1.54882
294 4 1.54882 29.4276 0
295 4 3.09764 27.8787 0
779 4 1.54882 26.3299 3.09764
811 4 3.09764 27.8787 3.09764
8463 2 1.54882 26.3299 0
8465 2 0 26.3299 1.54882
8495 2 0 27.8787 0
8496 2 1.54882 29.4276 0
9014 2 0 27.8787 3.09764
264 4 4.64646 26.3299 0
296 4 4.64646 29.4276 0
812 4 4.64646 29.4276 3.09764
814 4 6.19528 27.8787 3.09764
8497 2 4.64646 29.4276 0
8498 2 4.64646 27.8787 1.54882
8499 2 6.19528 27.8787 0
8500 2 6.19528 29.4276 1.54882
8985 2 4.64646 26.3299 3.09764
9015 2 4.64646 29.4276 3.09764
271 4 9.29291 26.3299 1.54882
297 4 7.74409 27.8787 1.54882
300 4 9.29291 29.4276 1.54882
817 4 9.29291 27.8787 3.09764
8468 2 7.74409 26.3299 0
8503 2 9.29291 29.4276 1.54882
8987 2 7.74409 26.3299 3.09764
270 4 10.8417 26.3299 0
272 4 12.3906 26.3299 1.54882
298 4 10.8417 29.4276 0
299 4 10.8417 27.8787 1.54882
301 4 12.3906 27.8787 0
8472 2 12.3906 26.3299 1.54882
8501 2 10.8417 29.4276 0
8502 2 10.8417 27.8787 1.54882
8504 2 12.3906 27.8787 0
8507 2 12.3906 29.4276 1.54882
8990 2 10.8417 26.3299 3.09764
9018 2 10.8417 29.4276 3.09764
9019 2 12.3906 27.8787 3.09764
275 4 15.4882 26.3299 1.54882
302 4 13.9394 27.8787 1.54882
304 4 15.4882 29.4276 1.54882
786 4 13.9394 26.3299 3.09764
819 4 15.4882 27.8787 3.09764
8505 2 13.9394 29.4276 0
8506 2 13.9394 27.8787 1.54882
8508 2 15.4882 27.8787 0
9020 2 13.9394 29.4276 3.09764
273 4 17.037 26.3299 0
277 4 18.5858 26.3299 1.54882
303 4 17.037 29.4276 0
820 4 17.037 29.4276 3.09764
823 4 18.5858 27.8787 3.09764
8473 2 17.037 26.3299 0
8509 2 17.037 29.4276 0
8510 2 18.5858 27.8787 0
8512 2 18.5858 29.4276 1.54882
8994 2 17.037 26.3299 3.09764
279 4 21.6835 26.3299 1.54882
305 4 20.1346 29.4276 0
306 4 20.1346 27.8787 1.54882
789 4 20.1346 26.3299 3.09764
825 4 21.6835 27.8787 3.09764
8511 2 20.1346 29.4276 0
8513 2 21.6835 27.8787 0
9023 2 21.6835 27.8787 3.09764
307 4 23.2323 29.4276 0
308 4 24.7811 27.8787 0
826 4 23.2323 29.4276 3.09764
8516 2 24.7811 29.4276 1.54882
8998 2 23.2323 26.3299 3.09764
9024 2 23.2323 29.4276 3.09764
9027 2 24.7811 27.8787 3.09764
283 4 29.4276 26.3299 0
309 4 26.3299 29.4276 0
828 4 27.8787 27.8787 3.09764
8476 2 26.3299 26.3299 0
8479 2 29.4276 26.3299 0
8514 2 26.3299 29.4276 0
8515 2 26.3299 27.8787 1.54882
8517 2 29.4276 29.4276 0
8518 2 27.8787 29.4276 1.54882
9028 2 26.3299 29.4276 3.09764
285 4 30.9764 26.3299 1.54882
310 4 32.5252 29.4276 0
311 4 32.5252 27.8787 1.54882
312 4 30.9764 29.4276 1.54882
830 4 30.9764 27.8787 3.09764
8481 2 32.5252 26.3299 0
8483 2 30.9764 26.3299 1.54882
8519 2 30.9764 27.8787 0
8520 2 32.5252 27.8787 1.54882
8521 2 30.9764 29.4276 1.54882
9030 2 30.9764 27.8787 3.09764
9031 2 32.5252 29.4276 3.09764
287 4 35.6228 26.3299 0
313 4 35.6228 29.4276 0
799 4 35.6228 26.3299 3.09764
832 4 34.074 27.8787 3.09764
833 4 35.6228 29.4276 3.09764
8485 2 34.074 26.3299 1.54882
8522 2 35.6228 29.4276 0
9005 2 35.6228 26.3299 3.09764
288 4 38.7205 26.3299 0
290 4 37.1717 26.3299 1.54882
314 4 37.1717 27.8787 0
315 4 38.7205 29.4276 0
801 4 38.7205 26.3299 3.09764
834 4 38.7205 29.4276 3.09764
8486 2 38.7205 26.3299 0
8523 2 37.1717 27.8787 0
9008 2 38.7205 26.3299 3.09764
9035 2 37.1717 27.8787 3.09764
316 4 40.2693 27.8787 0
317 4 41.8181 29.4276 0
318 4 41.8181 27.8787 1.54882
319 4 40.2693 29.4276 1.54882
803 4 41.8181 26.3299 3.09764
837 4 40.2693 27.8787 3.09764
838 4 41.8181 29.4276 3.09764
8488 2 41.8181 26.3299 0
8490 2 40.2693 26.3299 1.54882
8524 2 41.8181 29.4276 0
9009 2 41.8181 26.3299 3.09764
9038 2 40.2693 27.8787 3.09764
320 4 43.3669 27.8787 0
806 4 44.9157 26.3299 3.09764
8492 2 44.9157 26.3299 0
8525 2 43.3669 27.8787 0
8526 2 44.9157 27.8787 1.54882
9040 2 44.9157 29.4276 3.09764
293 4 46.4646 26.3299 1.54882
321 4 48.0134 29.4276 0
809 4 48.0134 26.3299 3.09764
841 4 48.0134 29.4276 3.09764
8494 2 46.4646 26.3299 1.54882
8527 2 48.0134 29.4276 0
9042 2 46.4646 27.8787 3.09764
9043 2 48.0134 29.4276 3.09764
322 4 1.54882 32.5252 0
323 4 1.54882 30.9764 1.54882
324 4 3.09764 30.9764 0
843 4 0 30.9764 3.09764
844 4 1.54882 32.5252 3.09764
846 4 3.09764 30.9764 3.09764
8528 2 0 30.9764 0
8529 2 0 32.5252 1.54882
8531 2 3.09764 32.5252 1.54882
9045 2 1.54882 32.5252 3.09764
325 4 4.64646 30.9764 1.54882
327 4 6.19528 32.5252 1.54882
8530 2 4.64646 32.5252 0
8532 2 6.19528 30.9764 0
9046 2 4.64646 32.5252 3.09764
9049 2 6.19528 30.9764 3.09764
326 4 7.74409 30.9764 1.54882
849 4 7.74409 32.5252 3.09764
8533 2 7.74409 32.5252 0
9050 2 7.74409 32.5252 3.09764
9053 2 9.29291 30.9764 3.09764
328 4 10.8417 30.9764 1.54882
329 4 12.3906 30.9764 0
331 4 12.3906 32.5252 1.54882
851 4 10.8417 32.5252 3.09764
852 4 12.3906 30.9764 3.09764
8534 2 10.8417 32.5252 0
9055 2 12.3906 30.9764 3.09764
330 4 13.9394 32.5252 0
332 4 15.4882 30.9764 0
853 4 13.9394 32.5252 3.09764
856 4 15.4882 30.9764 3.09764
8535 2 13.9394 32.5252 0
8536 2 13.9394 30.9764 1.54882
8537 2 15.4882 30.9764 0
8539 2 15.4882 32.5252 1.54882
9056 2 13.9394 32.5252 3.09764
333 4 17.037 32.5252 0
334 4 18.5858 30.9764 0
336 4 18.5858 32.5252 1.54882
857 4 17.037 32.5252 3.09764
8538 2 17.037 30.9764 1.54882
8540 2 18.5858 30.9764 0
8543 2 18.5858 32.5252 1.54882
9057 2 17.037 32.5252 3.09764
335 4 20.1346 32.5252 0
860 4 21.6835 30.9764 3.09764
8541 2 20.1346 32.5252 0
8542 2 20.1346 30.9764 1.54882
9060 2 20.1346 32.5252 3.09764
9063 2 21.6835 30.9764 3.09764
337 4 23.2323 32.5252 0
338 4 23.2323 30.9764 1.54882
339 4 24.7811 30.9764 0
342 4 24.7811 32.5252 1.54882
861 4 23.2323 32.5252 3.09764
8544 2 23.2323 32.5252 0
8545 2 23.2323 30.9764 1.54882
8546 2 24.7811 30.9764 0
8549 2 24.7811 32.5252 1.54882
340 4 26.3299 32.5252 0
341 4 26.3299 30.9764 1.54882
343 4 27.8787 30.9764 0
344 4 29.4276 32.5252 0
345 4 29.4276 30.9764 1.54882
865 4 29.4276 32.5252 3.09764
8547 2 26.3299 32.5252 0
8548 2 26.3299 30.9764 1.54882
8550 2 29.4276 30.9764 1.54882
8551 2 27.8787 32.5252 1.54882
9066 2 29.4276 32.5252 3.09764
346 4 30.9764 30.9764 0
866 4 30.9764 30.9764 3.09764
867 4 32.5252 32.5252 3.09764
8552 2 32.5252 30.9764 1.54882
8553 2 30.9764 32.5252 1.54882
347 4 34.074 30.9764 0
870 4 34.074 30.9764 3.09764
871 4 35.6228 32.5252 3.09764
9069 2 34.074 30.9764 3.09764
9070 2 35.6228 32.5252 3.09764
348 4 37.1717 30.9764 0
349 4 38.7205 30.9764 1.54882
350 4 37.1717 32.5252 1.54882
8554 2 38.7205 32.5252 0
8555 2 37.1717 32.5252 1.54882
9073 2 38.7205 32.5252 3.09764
351 4 41.8181 32.5252 0
8556 2 40.2693 30.9764 0
8557 2 41.8181 30.9764 1.54882
9076 2 40.2693 30.9764 3.09764