ITEM: TIMESTEP
0
ITEM: NUMBER OF ATOMS
50688
ITEM: BOX BOUNDS xy xz yz pp pp pp
-20.3679009 63.2406311 3.3277321
-22.2159996 65.355896 0.0
-22.2159996 65.355896 0.0
ITEM: ATOMS id type x y z VoronoiIndex1 VoronoiIndex2 VoronoiIndex3 VoronoiIndex4 VoronoiIndex5 VoronoiIndex6 VoronoiIndex7 VoronoiIndex8 VoronoiIndex9 AtomicVolume
9 1 -6.955 -12.9099998 3.3250001 0 0 0 0 12 0 0 0 0 10.5143976
23 4 15.4099999 20.5300007 -0.8415 0 0 1 2 7 3 2 0 0 12.6305294
25 2 8.0439997 18.1900005 18.1299992 0 0 1 3 5 4 0 0 0 10.894186
57 5 7.896 -5.1960001 -19.5 0 0 0 1 10 2 0 0 0 11.8162365
71 2 3.662 16.5100003 -13.9899998 0 0 0 1 10 2 0 0 0 11.6618519
80 5 -0.5991 20.4799996 -15.96 0 0 0 3 7 1 1 0 0 12.1362143
81 4 16.1499996 -3.858 -9.106 0 0 0 0 12 0 0 0 0 10.8890716
82 5 -11.4099999 -15.8800002 -21.2000008 0 0 0 1 10 2 0 0 0 13.0441771
86 4 -17.9200002 11.8199997 19.7199993 0 0 2 1 7 3 1 1 0 12.3882961
91 2 3.0420001 17.4899998 -10.0500002 0 0 0 1 10 3 0 0 0 12.2967272
101 1 -5.2909999 -19.4500008 -4.3080001 0 0 1 2 9 2 0 0 0 12.0343962
102 2 -18.4300003 -15.6400004 -3.4100001 0 0 0 2 8 2 0 0 0 11.7880335
105 4 3.3020001 11.5600004 -16.0300007 0 0 1 3 5 5 0 0 0 11.8757058
110 5 -4.277 -18.4599991 2.767 0 0 1 0 11 4 0 0 0 13.1060419
112 2 13.8599998 -4.2329998 15.1899996 0 0 0 4 6 2 0 0 0 11.6725159
128 5 -11.8199997 -12.7299996 7.0019999 0 0 0 2 10 2 0 0 0 12.3872814
141 5 4.56 6.8280001 -8.9700004 0 0 0 1 10 3 0 0 0 13.0014133
147 5 14.2299996 -3.1129999 10.6499996 0 0 0 2 8 5 0 0 0 12.4660416
148 2 -18.5599995 18.6900006 4.7059999 0 0 0 3 8 3 0 0 0 12.6386757
157 4 0.2493 20.6100006 12.6400004 0 0 0 4 6 4 0 0 0 12.454895
159 4 16.7900009 -3.2330001 15.1400003 0 0 0 3 6 4 0 0 0 11.3357935
168 5 6.2519999 -8.8500004 -15.1000004 0 0 1 0 11 1 0 0 0 10.9513942
171 2 -0.2099 6.3649998 -10.0900002 0 0 0 0 12 0 0 0 0 11.2947931
174 4 -6.4580002 14.8299999 11.5200005 0 0 0 2 8 3 0 0 0 11.8857204
184 2 15.5799999 -2.105 12.5600004 0 0 0 2 8 2 0 0 0 11.6265965
186 5 14.3000002 11.5900002 -15.9499998 0 0 0 3 6 5 0 0 0 11.9048862
196 5 13.0100002 -8.1759996 -1.924 0 0 0 1 10 3 0 0 0 12.2869053
214 2 2.043 14.6899996 -18.1599999 0 0 0 3 6 4 0 0 0 11.0876236
217 2 -12.8199997 -7.0890002 19.4099999 0 0 0 1 10 2 0 0 0 11.8281899
220 2 -16.3999996 -20.1200008 -10.2299996 0 0 0 3 8 1 0 0 0 10.887209
243 4 4.4299999 0.6516 14.1800003 0 0 0 3 6 6 0 0 0 12.9258042
244 5 14.4399996 -13.04 18.9400006 0 0 1 1 11 2 0 0 0 12.6601334
245 1 -7.5320001 3.125 -21.6000004 0 0 1 3 5 2 2 0 0 11.3940535
247 2 11.6999998 13.1199999 -5.1339998 0 0 0 1 10 2 0 0 0 11.8164521
254 2 -7.0980001 18.0499992 -7.1220002 0 0 0 0 12 0 0 0 0 11.8080111
275 4 17.6000004 -0.9098 11.8900004 0 0 0 2 8 4 0 0 0 12.0578413
288 5 -9.3979998 12.8999996 21.4300003 0 0 0 2 8 2 0 0 0 11.4536476
291 4 -15.3500004 12.6899996 -14.1700001 0 0 1 1 9 3 0 0 0 12.1795855
295 4 -2.3150001 1.915 -9.7019997 0 0 0 1 10 4 0 0 0 12.8333369
299 5 0.3108 18.2600002 -19.6399994 0 0 0 1 10 2 0 0 0 11.9628658
302 5 -17.7900009 13.2799997 -8.3439999 0 0 0 0 12 0 0 0 0 11.6188002
313 5 2.072 -14.87 3.6789999 0 0 0 1 10 4 0 0 0 13.9844638
314 5 -13.1999998 -21.2399998 3.543 0 0 0 1 12 2 0 0 0 13.0394678
327 4 -0.05884 -3.2579999 14.9200002 0 0 0 2 10 4 0 0 0 13.6894188
335 1 -8.1129999 16.8999996 -15.3100004 0 0 0 1 10 2 0 0 0 11.1252489
348 4 -7.5630002 2.1900001 11.8800002 0 0 0 1 10 2 0 0 0 12.5407524
360 4 14.6099997 -21.6299992 -7.809 0 0 0 1 10 5 0 0 0 13.3021937
364 4 -7.389 4.3709998 -15.3100004 0 0 0 4 8 2 0 0 0 13.6269846
387 4 18.4400006 -12.0100002 0.9243 0 0 0 3 8 3 0 0 0 12.7752447
397 1 -6.243 0.3378 19.2900009 0 0 0 1 10 2 0 0 0 11.972397
401 4 -13.5299998 13.0299997 11.5200005 0 0 0 0 12 2 0 0 0 11.8317805
410 4 10.0600004 -4.868 7.5339999 0 0 0 1 10 2 0 0 0 11.605711
412 1 -5.1609998 12.2299996 -7.4050002 0 0 0 1 10 2 0 0 0 11.40767
415 2 -6.158 1.247 -13.0900002 0 0 0 2 8 2 0 0 0 11.782444
419 2 7.3330002 -10.6800003 -11.1599999 0 0 0 4 4 6 0 0 0 12.3161469
420 5 12.1700001 -10.6800003 -10.7100001 0 0 0 2 8 2 0 0 0 12.2087641
432 5 5.1630001 8.5089998 8.0880003 0 0 0 1 12 1 0 0 0 12.3296127
438 4 -10.0299997 -19.7099991 16.2099991 0 0 0 3 8 2 0 0 0 12.6060219
439 4 -6.3839998 19.8199997 -15.8299999 0 0 0 6 4 4 0 0 0 13.1116877
442 4 6.3730002 16.4899998 -18.4400006 0 0 0 0 12 2 0 0 0 12.7275019
446 4 -17.0699997 6.0310001 3.7149999 0 0 0 0 12 0 0 0 0 11.4115915
453 4 2.6819999 0.3444 7.6180001 0 0 1 2 9 2 0 0 0 12.874692
459 4 -8.7320004 0.5922 -21.2800007 0 0 0 1 10 4 0 0 0 12.7104025
477 5 -10.7399998 -4.2950001 -3.2690001 0 0 0 3 7 4 1 0 0 13.1697245
485 4 8.7080002 3.918 -15.5200005 0 0 0 0 12 2 0 0 0 12.3340578
515 5 2.1960001 -14.6499996 16.8199997 0 0 1 0 11 3 0 0 0 12.0619373
520 5 8.2360001 -17.3299999 11.3699999 0 0 0 2 10 2 0 0 0 12.727376
527 5 -19.0499992 -10.3100004 18.2299996 0 0 1 0 11 3 0 0 0 11.6515122
533 4 12.29 4.5869999 -4.698 0 0 0 0 12 4 0 0 0 13.699625
537 2 18.0799999 8.3990002 -9.5240002 0 0 0 2 8 1 0 0 0 10.731802
539 2 -5.974 7.165 -21.6700001 0 0 0 2 8 2 0 0 0 11.4999647
540 5 -5.4470001 -17.5699997 0.5424 0 0 0 0 12 0 0 0 0 10.690301
550 4 10.8299999 -10.8500004 12.3299999 0 0 0 1 12 1 0 0 0 12.736269
562 2 6.4640003 -13.0100002 -21.9099998 0 0 1 0 11 1 0 0 0 10.6970635
564 4 16.6000004 -1.411 16.7299996 0 0 0 3 8 3 0 0 0 11.2762232
567 4 10.0100002 -14.3599997 20.9099998 0 0 0 0 12 0 0 0 0 11.7085104
576 5 -15.3199997 6.6339998 -17.0 0 0 0 0 12 0 0 0 0 12.181613
580 2 18.7900009 -16.75 -10.8900004 0 0 0 1 10 3 0 0 0 11.8358326
585 4 14.25 -9.6020003 -11.7399998 0 0 0 1 10 3 0 0 0 12.5121699
603 5 -6.9720002 -19.2999992 -0.4307 0 0 0 1 10 2 0 0 0 11.5366478
620 4 2.6470001 15.6000004 8.0209999 0 0 0 1 10 2 0 0 0 11.682705
622 5 3.9660002 -5.3590002 5.2849999 0 0 0 0 12 2 0 0 0 12.1248198
642 4 -3.593 2.1900001 -20.3299999 0 0 0 2 10 3 0 0 0 12.8465796
643 5 16.8500004 -0.4019 -17.5300007 0 0 0 3 6 4 0 0 0 11.5668373
653 4 3.1129999 -17.4699993 3.4979999 0 0 0 0 12 4 0 0 0 13.871853
654 4 3.8710002 -8.9680004 -0.7497 0 0 0 2 10 2 0 0 0 12.2739964
656 4 9.2250004 -14.6700001 15.0799999 0 0 0 1 10 3 0 0 0 12.8407832
666 4 -7.3720002 -10.9899998 -0.3067 0 0 0 2 8 5 0 0 0 12.3546753
673 2 11.5100003 5.3480001 12.5200005 0 0 0 0 12 0 0 0 0 11.7570534
679 4 10.5600004 12.87 17.6200009 0 0 0 0 12 0 0 0 0 11.1605721
683 5 -4.8940002 10.9399996 18.75 0 0 1 1 8 3 1 0 0 11.9319448
687 5 17.3500004 -10.6700001 19.7700005 0 0 0 3 6 3 0 0 0 11.4635573
694 5 -14.8599998 15.6499996 5.3909998 0 0 0 3 8 4 0 0 0 12.8642856
697 4 -17.3700009 17.8099995 19.4899998 0 0 0 1 12 2 0 0 0 13.1232929
700 5 -19.6599999 -13.8400002 -9.2460003 0 0 1 0 10 3 1 0 0 12.7431937
706 5 -17.5400009 -0.8356 1.633 0 0 0 3 6 4 0 0 0 12.1244745
716 4 2.6410001 3.82 4.25 0 0 0 2 10 1 0 0 0 11.7428456
717 4 9.7650004 -20.25 2.0050001 0 0 1 1 9 5 0 0 0 12.6493731
728 5 7.402 -0.2826 3.85 0 0 0 4 6 6 0 0 0 12.4339915
745 4 3.8120001 -16.0 -17.4500008 0 0 1 1 9 3 0 0 0 11.7940874
761 5 -3.6310001 11.75 -12.5699997 0 0 1 3 4 5 1 0 0 12.425086
770 4 -15.8999996 -19.7399998 18.9699994 0 0 0 0 12 2 0 0 0 11.7536593
775 2 0.05622 -14.3500004 21.3299999 0 0 0 0 12 0 0 0 0 11.6169119
781 4 -3.954 -20.3299999 -11.6700001 0 0 1 3 7 4 0 0 0 12.82372
787 2 -17.5100003 -12.2200003 14.9499998 0 0 0 2 10 0 0 0 0 11.4570151
798 5 -6.592 20.5300007 -3.856 0 0 0 1 10 4 0 0 0 12.4274416
806 4 -5.909 4.052 16.75 0 0 0 4 8 1 0 0 0 12.7808314
831 4 -18.8999996 -12.6499996 17.1700001 0 0 0 3 10 1 0 0 0 12.1581593
841 5 -10.5 21.1700001 -11.4399996 0 0 0 4 4 7 0 0 0 12.5636053
843 2 5.3709998 -3.919 -8.224 0 0 0 3 6 4 0 0 0 11.6675387
864 2 7.81 -4.0370002 0.9666 0 0 0 2 10 0 0 0 0 11.3399716
897 5 8.283 -5.125 11.1000004 0 0 0 2 8 2 0 0 0 11.0694923
917 5 12.1099997 -13.6899996 20.1399994 0 0 0 0 12 0 0 0 0 11.675973
947 5 -15.75 14.6499996 -12.4799996 0 0 1 3 5 5 0 0 0 12.686491
949 2 15.79 3.4489999 20.9799996 0 0 0 1 10 2 0 0 0 11.1980505
952 2 12.96 0.2561 0.9223 0 0 0 0 12 2 0 0 0 12.882699
961 2 2.1500001 -20.9699994 -5.2670002 0 0 0 4 4 5 0 0 0 11.4936486
980 2 0.2096 20.0699997 17.0100002 0 0 0 0 12 0 0 0 0 10.725543
990 4 7.6329999 -14.5799999 -20.5900002 0 0 0 1 10 3 0 0 0 11.7748337
996 5 16.6399994 -9.4460001 16.0 0 0 1 0 9 3 0 0 0 10.907734
997 2 -18.5 14.5100003 -0.05397 0 0 0 2 8 1 0 0 0 11.3991556
999 4 3.033 9.3739996 -9.7659998 0 0 0 4 6 4 0 0 0 12.2948294
1009 5 9.7989998 10.6999998 18.0799999 0 0 0 0 12 0 0 0 0 11.1488905
1023 2 19.5200005 -3.2049999 -16.0200005 0 0 0 3 8 2 0 0 0 11.5999317
1027 4 -3.227 -11.5699997 17.3500004 0 0 0 2 9 3 1 0 0 12.3918276
1034 4 14.9099998 6.8530002 -14.29 0 0 0 1 10 2 0 0 0 11.6090336
1039 5 11.3400002 10.0600004 -21.2199993 0 0 3 3 5 0 2 1 0 12.1897736
1040 1 10.1000004 -14.9700004 -20.5100003 0 0 0 0 12 0 0 0 0 10.8542118
1053 4 -14.1999998 -0.4991 0.387 0 0 0 0 12 2 0 0 0 12.0876913
1067 3 20.2199993 -6.967 -19.2600002 0 0 1 2 7 5 0 0 0 13.1240244
1068 5 -2.6340001 4.1350002 -2.6099999 0 0 0 0 12 2 0 0 0 12.3758726
1087 4 -11.96 16.8600006 -0.2436 0 0 1 1 9 4 0 0 0 13.3576641
1089 4 -0.9993 -8.3859997 4.1290002 0 0 0 1 10 4 0 0 0 12.9276362
1091 5 1.853 -17.1800003 7.862 0 0 0 1 10 2 0 0 0 12.0357504
1094 5 11.8900004 2.1140001 19.2399998 0 0 0 1 10 2 0 0 0 12.2982645
1101 4 -4.6690002 -17.5699997 9.8660002 0 0 0 2 8 4 0 0 0 12.4084253
1111 4 -10.5200005 -18.8600006 20.6000004 0 0 0 1 10 4 0 0 0 13.4393149
1113 4 15.3500004 4.368 18.7099991 0 0 0 1 10 2 0 0 0 11.1591654
1127 2 -4.566 14.5799999 -2.914 0 0 1 2 9 2 0 0 0 11.6096106
1129 2 18.2099991 19.7099991 19.9200002 0 0 0 0 12 0 0 0 0 11.5874024
1143 5 -3.27 10.5799999 -0.3135 0 0 0 1 10 3 0 0 0 12.1116924
1147 4 -9.9540006 1.2130001 -10.4899998 0 0 0 3 8 3 0 0 0 12.0883083
1152 2 -8.6099997 -13.1599999 -7.9380002 0 0 0 1 10 3 0 0 0 12.5647793
1158 2 4.5370002 12.8400002 13.1999998 0 0 0 0 12 0 0 0 0 11.3799992
1161 4 12.2399998 -1.6690001 -3.1140001 0 0 0 1 12 2 0 0 0 12.9709188
1171 5 1.571 -1.406 13.9499998 0 0 0 1 10 2 0 0 0 11.2279482
1175 4 7.5700002 16.2700005 15.8100004 0 0 0 2 12 1 0 0 0 12.4550066
1179 2 -18.6100006 -20.7700005 -2.4879999 0 0 4 1 6 2 2 0 0 12.6427193
1185 2 11.3699999 -4.4650002 -21.2700005 0 0 0 0 12 0 0 0 0 11.3244982
1190 2 -6.0409999 -16.3700009 -16.1000004 0 0 0 3 6 4 0 0 0 11.2652559
1191 4 -12.3299999 19.9799996 -12.6800003 0 0 0 3 6 4 0 0 0 11.8904334
1196 2 14.3599997 21.1200008 -18.75 0 0 2 2 5 3 1 0 0 11.0997171
1206 1 -16.1299992 19.1499996 10.4799996 0 0 0 0 12 0 0 0 0 11.1695767
1207 5 12.0 17.6700001 18.2000008 0 0 0 1 10 2 0 0 0 11.7853356
1208 4 15.9300004 17.3600006 -4.8709998 0 0 1 2 7 5 0 0 0 12.732873
1212 4 11.7200003 -3.6040001 11.25 0 0 0 4 4 6 0 0 0 13.0025711
1214 5 19.3999996 4.4759999 15.8400002 0 0 1 2 6 2 1 0 0 11.4746952
1216 1 10.8800002 21.0699997 -13.5 0 0 0 2 8 2 0 0 0 11.6939039
1217 5 -6.4549999 10.0500002 3.5769999 0 0 0 2 8 5 0 0 0 12.9942332
1226 4 11.8400002 18.6599999 -16.1299992 0 0 0 2 8 4 0 0 0 11.9544458
1232 4 -16.0200005 6.0110002 -8.5850001 0 0 0 0 12 3 0 0 0 12.890195
1246 4 11.1000004 10.5100003 -10.9499998 0 0 1 1 9 5 0 0 0 13.2869597
1249 2 -5.2540002 -8.6470003 21.0 0 0 1 2 7 2 0 0 0 11.5366316
1250 2 -5.2670002 10.6700001 6.1110001 0 0 0 2 10 2 0 0 0 12.8496666
1252 4 -12.0699997 -17.6200009 -19.1700001 0 0 0 1 12 1 0 0 0 12.541174
1258 4 -16.7099991 16.8899994 11.4099999 0 0 0 0 12 2 0 0 0 12.4265976
1261 4 8.1400003 -1.768 -0.4253 0 0 0 1 10 3 0 0 0 12.3524428
1269 5 -11.3800001 -18.9699994 -6.5430002 0 0 0 1 10 3 0 0 0 12.0170326
1270 2 1.363 5.546 0.338 0 0 0 2 8 2 0 0 0 11.4189119
1295 4 0.553 -22.0799999 -3.6359999 0 0 1 3 7 4 0 0 0 12.9224052
1305 5 -0.3754 16.1499996 13.8299999 0 0 1 2 7 5 0 0 0 12.4906369
1306 5 -2.934 15.9200002 -8.7110005 0 0 0 2 8 5 0 0 0 12.6691752
1318 5 1.135 -3.3369999 -12.9499998 0 0 0 3 6 5 0 0 0 12.106699
1325 4 18.2399998 21.2299996 3.856 0 0 0 1 10 3 0 0 0 12.6732035
1328 2 6.4580002 13.3699999 -5.231 0 0 0 3 8 1 0 0 0 11.8473664
1335 5 -2.237 -0.6201 20.2900009 0 0 0 1 10 2 0 0 0 12.0625067
1337 4 19.0300007 -13.6000004 -7.9320002 0 0 2 3 4 4 2 0 0 12.3056946
1340 4 15.7200003 14.6199999 -0.4039 0 0 1 0 11 4 0 0 0 12.869752
1352 4 -14.3100004 -20.9599992 17.5900002 0 0 0 0 12 3 0 0 0 12.6311589
1357 5 19.4400006 -9.6590004 -5.0840001 0 0 0 0 12 3 0 0 0 12.8776674
1371 4 18.4300003 8.8070002 -1.627 0 0 0 0 12 0 0 0 0 11.6500159
1374 4 19.0599995 -7.2870002 1.719 0 0 0 1 10 1 2 0 0 12.3851309
1386 2 9.2460003 0.9125 4.8400002 0 0 0 5 4 3 0 0 0 11.4105196
1387 3 -16.7000008 10.0900002 21.2099991 0 0 0 1 10 3 0 0 0 12.3883057
1388 5 14.6899996 -3.3310001 -7.158 0 0 0 0 12 0 0 0 0 11.1918755
1393 4 6.3369999 -6.8369999 4.8709998 0 0 0 1 10 2 0 0 0 11.8920984
1400 2 -18.6599999 -6.1160002 21.2900009 0 0 0 1 10 2 0 0 0 11.7947197
1415 4 4.921 -14.0 -2.128 0 0 0 1 10 5 0 0 0 13.4135456
1419 4 15.5500002 -18.1299992 -13.9300004 0 0 1 4 5 5 0 0 0 12.9709178
1431 4 -15.6499996 -7.993 2.424 0 0 0 0 12 4 0 0 0 13.0264626
1433 5 3.968 -5.5190001 15.4700003 0 0 0 4 4 5 2 0 0 12.3034182
1444 4 -3.1570001 1.0650001 10.8500004 0 0 0 0 12 3 0 0 0 12.5444975
1447 4 6.7620001 -20.5400009 14.9499998 0 0 0 2 10 3 0 0 0 13.4116926
1450 1 19.8600006 5.2680001 -6.4429999 0 0 0 4 4 4 0 0 0 11.6605358
1452 4 -6.4029999 -9.0129995 -19.3899994 0 0 0 1 10 3 0 0 0 11.8299847
1469 2 6.7740002 -17.5599995 -1.753 0 0 0 2 8 4 0 0 0 11.8081646
1471 5 -13.9499998 -20.1100006 -10.1400003 0 0 0 4 4 4 0 0 0 11.1875639
1487 4 5.5630002 -16.6599999 -8.9799996 0 0 0 1 10 5 0 0 0 13.5604725
1504 5 11.1099997 4.7680002 -16.6399994 0 0 2 3 4 6 0 0 0 12.7067089
1516 2 17.6399994 18.1700001 -2.9030002 0 0 0 3 8 1 0 0 0 11.1710596
1533 2 10.3400002 0.9419 -5.8990002 0 0 0 0 12 0 0 0 0 11.360632
1534 4 8.382 15.3000002 0.9591 0 0 0 3 9 1 1 0 0 12.5467282
1543 1 -14.3400002 -16.6200009 5.4689999 0 0 0 3 6 4 0 0 0 11.1135044
1548 4 14.3599997 -16.5300007 16.5300007 0 0 0 4 6 5 0 0 0 12.9398632
1550 4 -0.5356 -14.4600001 -12.9899998 0 0 0 1 10 4 0 0 0 12.4479313
1561 4 -12.4499998 4.513 4.4660001 0 0 0 3 6 4 0 0 0 12.2915163
1566 1 9.7749996 0.9865 -8.323 0 0 0 0 12 3 0 0 0 12.8273859
1581 2 5.4380002 8.6780005 -3.8870002 0 0 0 0 12 0 0 0 0 11.7695313
1584 2 20.3999996 18.7000008 19.2399998 0 0 0 0 12 0 0 0 0 11.4457836
1585 3 -5.092 -19.2600002 14.7299996 0 0 0 0 12 0 0 0 0 11.2454205
1595 5 4.5879998 0.6047001 -12.7399998 0 0 1 3 5 6 0 0 0 12.7994242
1605 5 9.3909998 -5.8249998 0.1452 0 0 0 2 8 1 2 0 0 12.0406857
1618 4 0.7615 -6.75 21.0699997 0 0 0 0 12 3 0 0 0 13.0298433
1622 4 9.0749998 13.9799996 -1.914 0 0 0 1 10 4 0 0 0 13.5557385
1625 4 10.6199999 -7.5229998 8.382 0 0 0 1 12 1 0 0 0 12.5607834
1630 4 3.266 -17.0200005 12.6400004 0 0 0 2 8 5 0 0 0 13.0314236
1632 4 1.702 -5.5799999 -13.3299999 0 0 0 2 8 4 0 0 0 12.1807413
1644 4 6.928 11.9099998 13.9300004 0 0 0 0 12 3 0 0 0 13.7281313
1648 4 -18.7399998 7.9530002 -4.4549999 0 0 1 2 7 5 0 0 0 12.5462122
1667 4 -3.5580001 8.533 -9.0299997 0 0 0 2 8 5 0 0 0 12.5985689
1672 4 12.2100001 -19.3400002 -20.3099995 0 0 0 2 8 4 0 0 0 12.1898155
1687 5 17.0 -0.837 14.4200001 0 0 0 1 10 2 0 0 0 11.2644692
1694 2 18.9200002 -1.1950001 3.1819999 0 0 0 0 12 0 0 0 0 11.3062287
1699 4 20.2800007 -8.0950003 8.3990002 0 0 1 1 9 3 0 0 0 11.6718569
1700 5 13.0799999 11.5 20.3799992 0 0 0 2 10 1 0 0 0 12.1968174
1702 2 -19.4200001 -6.6900001 12.2399998 0 0 1 2 6 3 1 0 0 11.743825
1705 1 0.699 -15.0500002 -0.3121 0 0 0 1 10 2 0 0 0 11.368146
1707 4 17.8799992 4.3920002 -12.2700005 0 0 0 3 6 4 0 0 0 12.1848612
1712 2 17.1100006 -14.4899998 -20.5100003 0 0 0 0 12 0 0 0 0 11.1588202
1714 4 18.75 0.3234 16.0799999 0 0 0 1 10 3 0 0 0 12.2478161
1724 2 -1.304 0.141 -12.6999998 0 0 0 3 6 4 0 0 0 11.5058527
1730 5 -2.0840001 -2.537 18.6900006 0 0 0 1 10 4 0 0 0 12.8416682
1733 1 -4.0890002 -15.5799999 19.0599995 0 0 0 0 12 0 0 0 0 11.2810364
1737 4 15.6000004 -20.5699997 -0.582 0 0 0 0 12 0 0 0 0 11.4947129
1743 4 -2.9590002 -18.1900005 0.5402 0 0 0 0 12 2 0 0 0 12.4450245
1745 4 -11.6199999 -21.4599991 16.6800003 0 0 0 1 10 1 1 0 0 11.7520981
1750 4 2.2790001 3.7820001 -1.225 0 0 0 3 6 6 0 0 0 13.198204
1751 4 0.9376 -12.4399996 -3.293 0 0 0 2 10 2 0 0 0 12.5103474
1772 2 -5.8280001 21.0499992 -19.9500008 0 0 0 0 12 0 0 0 0 10.824132
1773 5 13.54 1.374 21.1100006 0 0 0 1 10 4 0 0 0 13.1003561
1792 1 -17.7700005 13.3599997 -19.9899998 0 0 0 0 12 0 0 0 0 10.8066597
1796 2 13.7100001 -8.3990002 -20.5699997 0 0 0 0 12 0 0 0 0 11.3454952
1803 2 16.8099995 -4.4720001 -6.8930002 0 0 2 0 8 2 2 0 0 11.6211653
1805 4 21.2399998 16.3299999 -18.2299996 0 0 1 0 11 1 0 0 0 11.6028643
1813 4 -12.9499998 -2.3610001 -8.276 0 0 0 1 12 2 0 0 0 12.5152111
1834 4 19.1499996 17.3099995 20.9899998 0 0 1 1 11 2 0 0 0 13.5614338
1837 4 -14.1599999 11.3299999 -18.9200002 0 0 0 1 10 5 0 0 0 13.3054123
1838 2 6.8790002 17.6700001 -2.859 0 0 0 1 10 2 0 0 0 11.4404335
1849 5 -0.2564 -7.9860002 -12.8000002 0 0 0 3 8 2 0 0 0 11.4873457
1852 4 -19.1100006 -13.5299998 1.9 0 0 0 1 10 2 0 0 0 11.9074774
1853 2 19.7000008 20.8999996 -12.4300003 0 0 0 0 12 0 0 0 0 11.539115
1854 4 18.1399994 -7.1209998 8.4440003 0 0 0 0 12 0 0 0 0 11.3364191
1860 2 -6.5869999 -5.368 -16.6700001 0 0 0 2 10 1 0 0 0 11.843173
1865 2 -14.3999996 -8.4560004 14.8599998 0 0 0 3 6 4 0 0 0 11.3610067
1868 4 -12.1199999 5.7519999 7.152 0 0 0 1 10 4 0 0 0 13.1801653
1873 4 17.0699997 -19.5400009 -8.4729996 0 0 0 1 12 1 0 0 0 12.5517645
1880 5 10.1400003 -19.6599999 20.2000008 0 0 1 1 9 3 0 0 0 11.8255472
1890 4 -9.1280003 -21.0200005 7.638 0 0 0 1 10 4 0 0 0 12.5492745
1893 2 12.4600001 -11.1000004 1.033 0 0 0 0 12 0 0 0 0 12.0278616
1898 5 -11.5200005 17.1299992 21.0900002 0 0 0 0 12 0 0 0 0 11.9664536
1911 4 18.3700009 -13.5699997 5.7779999 0 0 0 3 5 4 1 0 0 11.8559322
1921 4 14.0699997 15.9200002 4.289 0 0 0 2 8 4 0 0 0 11.992033
1925 2 16.6700001 -20.1900005 -15.25 0 0 2 2 6 3 0 0 0 11.8619796
1926 4 -1.589 7.0929999 -8.1140003 0 0 0 0 12 2 0 0 0 12.6526633
1928 4 -0.9212 5.6599999 1.123 0 0 0 1 10 4 0 0 0 12.7598801
1934 4 -3.1259999 16.6700001 -6.5500002 0 0 0 4 4 6 0 0 0 11.6913691
1935 4 7.8000002 -2.316 5.586 0 0 0 0 12 0 0 0 0 11.6305609
1938 4 -2.9260002 -3.263 -9.6490002 0 0 0 1 10 2 0 0 0 12.0973301
1943 5 -7.5770002 20.25 -18.3199997 0 0 0 2 8 4 0 0 0 12.8118773
1947 5 -5.0110002 1.081 17.2700005 0 0 0 3 10 2 0 0 0 13.4440756
1948 4 -2.809 -4.877 -11.5 0 0 0 0 12 2 0 0 0 12.4245816
1954 5 -6.9169998 -10.6099997 14.0 0 0 1 1 9 3 0 0 0 12.0965109
1955 4 -19.3899994 -6.4489999 -20.3400002 0 0 0 4 5 4 1 0 0 12.3140688
1986 4 -3.3580001 9.7150002 11.9499998 0 0 2 3 4 5 0 0 0 12.3319359
1993 5 -10.04 -8.1440001 -17.2399998 0 0 0 1 10 2 0 0 0 12.1434965
1996 4 -4.5630002 15.0100002 7.2880001 0 0 1 1 8 3 1 0 0 11.854271
1998 2 -0.8273 3.2939999 7.3930001 0 0 0 4 6 4 0 0 0 12.2193976
2001 4 10.8000002 -6.1659999 5.8140002 0 0 0 1 10 3 0 0 0 11.8834686
2006 5 -10.9099998 -10.8100004 -20.3899994 0 0 1 4 6 3 1 0 0 12.4323683
2009 4 -9.0620003 -18.2600002 -1.5190001 0 0 0 0 12 2 0 0 0 12.7173624
2020 2 15.2299996 -3.1630001 3.843 0 0 1 4 5 4 0 0 0 12.2173481
2022 5 19.2999992 -12.3000002 19.4899998 0 0 0 0 12 2 0 0 0 12.3119917
2027 4 -2.25 -4.349 14.0900002 0 0 0 1 10 3 0 0 0 11.7460518
2028 2 -7.2340002 6.75 1.152 0 0 0 1 10 2 0 0 0 11.3215704
2045 4 -19.5699997 -3.056 14.1899996 0 0 0 4 4 6 0 0 0 12.6018162
2050 2 -11.8999996 -20.1499996 -15.8599998 0 0 0 1 10 2 0 0 0 11.3358345
2052 5 -13.1099997 19.5499993 3.0999999 0 0 0 1 12 1 0 0 0 12.6663819
2055 4 9.5790005 -4.3070002 -10.2100001 0 0 0 0 12 2 0 0 0 12.7832709
2056 5 17.3299999 11.3400002 9.7329998 0 0 0 1 10 2 0 0 0 12.7896261
2062 2 9.0489998 15.1400003 -15.5799999 0 0 1 3 5 4 0 0 0 12.2050276
2073 4 -1.324 -14.3800001 -19.3099995 0 0 0 0 12 3 0 0 0 12.3338423
2081 5 -13.9200002 -14.8900004 1.537 0 0 0 0 12 2 0 0 0 12.3521023
2082 2 17.9400006 15.5500002 11.4700003 0 0 0 0 12 0 0 0 0 11.6306925
2083 4 -0.005298 -19.5599995 -13.5900002 0 0 1 3 5 5 0 0 0 12.1363583
2087 5 -9.6689997 -8.9770002 -6.7220001 0 0 0 3 8 3 0 0 0 12.7816839
2093 5 -1.6080001 -15.3599997 11.4200001 0 0 0 0 12 0 0 0 0 11.7708884
2095 4 0.5269 -10.29 -20.1000004 0 0 0 1 10 5 0 0 0 13.1663036
2096 5 -16.3600006 -5.3020001 12.9499998 0 0 0 5 2 6 0 0 0 12.3447476
2107 5 -16.0699997 15.0600004 -7.0 0 0 1 4 8 4 1 0 0 15.0524254
2143 2 7.1560001 2.8069999 16.8999996 0 0 1 2 6 4 1 0 0 12.3001719
2154 4 18.0699997 14.2600002 -1.79 0 0 0 2 8 5 0 0 0 13.0520201
2160 2 12.6999998 9.1339998 2.8050001 0 0 0 3 5 4 1 0 0 12.067399
2167 5 17.8400002 13.8199997 9.3439999 0 0 0 3 6 8 0 0 0 14.1798887
2176 5 9.1560001 13.0600004 0.7997 0 0 1 4 6 3 1 0 0 12.8347874
2178 4 -9.0530005 -20.2600002 -5.546 0 0 0 1 10 4 0 0 0 13.5573435
2181 4 -8.3649998 8.4499998 15.7299996 0 0 0 0 12 2 0 0 0 12.2681255
2185 2 -12.9200002 -20.8899994 -6.8299999 0 0 0 3 6 3 0 0 0 11.5805874
2187 2 -3.158 9.4879999 18.2299996 0 0 0 1 10 2 0 0 0 11.451953
2197 2 20.1800003 16.8999996 5.9629998 0 0 0 2 8 1 0 0 0 11.2750988
2207 5 15.9700004 -9.4429999 -7.751 0 0 1 3 6 2 1 1 0 12.9293672
2212 4 -9.4270001 -5.8379998 -17.2000008 0 0 1 2 7 5 0 0 0 12.4052496
2241 4 6.2350001 -5.9790002 0.8508 0 0 1 0 11 3 0 0 0 12.7492934
2274 1 -4.9070002 -19.7399998 0.7176 0 0 0 3 6 4 0 0 0 11.3781443
2290 4 -1.868 -20.7000008 12.8299999 0 0 0 1 10 2 0 0 0 11.6953039
2291 2 -12.3199997 16.1599999 -14.6300001 0 0 0 3 8 2 0 0 0 11.489378
2295 1 8.6560002 -2.882 18.0400009 0 0 0 3 8 2 0 0 0 11.5717087
2300 5 -19.4400006 -10.0299997 -11.8599998 0 0 0 1 10 2 0 0 0 12.3936567
2315 4 17.3899994 -0.1501 -21.4400006 0 0 0 1 10 2 0 0 0 11.8155804
2324 1 14.6999998 -10.2399998 10.5799999 0 0 1 4 3 6 0 0 0 11.9728756
2325 4 -14.5200005 -6.3260002 -6.6199999 0 0 0 3 6 5 0 0 0 11.9670516
2333 2 8.2709999 21.1599999 19.5799999 0 0 0 1 10 2 0 0 0 11.3688479
2334 5 -0.5477 8.3140001 14.8000002 0 0 0 5 2 6 0 0 0 12.2740832
2342 3 1.992 6.0879998 -15.8999996 0 0 0 2 10 1 0 0 0 11.9239636
2346 4 -14.5699997 -1.914 4.4530001 0 0 0 1 10 5 0 0 0 13.266325
2377 4 7.8000002 -20.4099999 21.0 0 0 0 0 12 0 0 0 0 10.978551
2388 4 -4.448 6.6989999 -2.2590001 0 0 0 0 12 4 0 0 0 13.5121441
2389 2 -13.5900002 -15.9799996 -17.6499996 0 0 0 2 10 2 0 0 0 12.2175236
2400 2 -12.8900004 0.1962 20.4599991 0 0 1 2 7 2 0 0 0 11.2313099
2409 5 -6.026 21.1499996 19.6200009 0 0 0 0 10 2 0 0 0 11.3930636
2411 4 19.8700008 -18.8199997 -3.0320001 0 0 0 3 6 4 0 0 0 11.2366104
2414 1 1.981 7.026 15.3199997 0 0 1 3 5 5 0 0 0 12.0186129
2428 4 -6.7360001 14.3500004 13.8400002 0 0 0 2 8 3 0 0 0 11.6796017
2437 2 -10.8599998 10.1099997 18.6800003 0 0 1 2 6 3 1 0 0 10.8830452
2438 1 11.7200003 -10.3199997 -1.176 0 0 0 0 12 0 0 0 0 10.8560506
2440 4 13.1300001 -12.5200005 -1.231 0 0 1 4 5 6 0 0 0 13.7308617
2465 5 -0.5565 -10.1400003 7.967 0 0 0 3 6 6 0 0 0 12.2358885
2476 1 13.6599999 -22.1200008 19.4699993 0 0 0 1 10 2 0 0 0 11.6382685
2480 4 13.6499996 11.1999998 -20.5799999 0 0 1 2 8 4 1 0 0 13.0986767
2502 4 -5.3639999 -10.9099998 -1.614 0 0 1 1 9 2 0 0 0 11.4464302
2504 2 -8.0970001 -9.658 -14.3599997 0 0 0 0 12 0 0 0 0 11.2491951
2509 4 -8.7989998 17.5900002 -21.3799992 0 0 0 2 10 3 0 0 0 12.6741896
2511 5 -5.3800001 6.533 -4.7420001 0 0 0 0 12 0 0 0 0 10.9681082
2519 4 9.566 -9.309 17.3400002 0 0 0 1 10 2 0 0 0 11.9441662
2520 4 4.7119999 -19.6499996 -6.105 0 0 0 1 10 4 0 0 0 12.4033213
2521 2 6.6999998 5.23 13.5500002 0 0 0 3 6 5 0 0 0 12.3472977
2524 4 -17.9200002 4.1680002 -2.306 0 0 0 0 12 2 0 0 0 12.5887985
2526 2 -5.2940002 15.6199999 18.0900002 0 0 1 2 5 4 0 0 0 10.9306402
2534 5 -6.131 8.8640004 -17.3700009 0 0 1 2 7 5 0 0 0 12.4045954
2535 5 -4.1459999 -5.0890002 3.905 0 0 0 1 10 5 0 0 0 13.6107655
2577 3 0.2222 -3.563 10.5600004 0 0 0 0 12 4 0 0 0 13.3046284
2582 2 3.1889999 13.79 -11.7100001 0 0 0 1 9 2 1 0 0 11.3921785
2590 4 -6.3429999 10.7299996 11.3100004 0 0 0 1 12 1 0 0 0 12.9182072
2592 3 -12.5299998 14.8800002 -20.7299996 0 0 0 4 6 4 0 0 0 11.3811846
2594 2 5.2969999 2.908 -17.2199993 0 0 1 2 7 3 0 0 0 11.6101008
2595 5 -16.1100006 -15.7200003 3.0480001 0 0 0 1 10 2 0 0 0 11.962512
2600 1 12.3199997 18.0300007 10.5200005 0 0 0 3 6 4 0 0 0 11.5991173
2608 5 5.2249999 -10.4899998 10.1999998 0 0 0 2 8 4 0 0 0 12.8158789
2613 5 -9.2419996 -10.4399996 20.5 0 0 0 3 8 4 0 0 0 13.1749611
2615 2 10.7399998 -20.9799996 6.8179999 0 0 0 4 6 3 0 0 0 11.3850689
2623 3 -14.8999996 1.518 -20.5100003 0 0 0 4 6 3 0 0 0 12.026803
2644 2 -6.2690001 21.3500004 0.8038 0 0 1 2 7 2 0 1 0 12.5151491
2648 2 3.99 -5.9330002 -13.9799996 0 0 0 0 12 0 0 0 0 10.7962427
2651 4 16.2700005 -20.2999992 9.9049998 0 0 0 1 10 2 0 0 0 11.5237541
2659 4 18.5400009 -3.5179999 -8.7880001 0 0 0 0 12 2 0 0 0 12.3149347
2672 2 -7.3249998 -15.0200005 11.0500002 0 0 0 5 2 6 0 0 0 11.1112776
2680 4 19.0100002 -7.3860002 18.6800003 0 0 0 2 8 2 0 0 0 11.9778414
2692 4 -13.8199997 -7.5339999 -4.73 0 0 0 3 6 4 0 0 0 11.1050053
2697 1 -13.9899998 17.8999996 -2.082 0 0 0 4 7 1 1 0 0 12.1460772
2706 4 15.4300003 3.9460002 -12.6300001 0 0 0 1 10 3 0 0 0 12.6324921
2715 4 8.1639996 -5.342 18.2600002 0 0 0 1 10 4 0 0 0 12.8043289
2719 4 3.204 -8.7869997 -11.2700005 0 0 0 3 8 3 0 0 0 12.6348915
2741 5 14.0699997 13.0299997 1.176 0 0 0 0 12 0 0 0 0 10.9581224
2771 5 9.8620006 -18.7000008 10.2799997 0 0 0 1 10 2 0 0 0 11.9712182
2773 2 11.29 -18.1900005 -15.6000004 0 0 1 0 9 3 0 0 0 11.9814168
2784 5 0.1063 -20.7299996 2.2260001 0 0 0 1 10 2 0 0 0 11.919304
2803 5 -7.3330002 -14.96 -8.9870006 0 0 0 2 10 1 0 0 0 12.0503073
2805 4 14.9899998 11.1300001 -2.6400001 0 0 0 3 8 4 0 0 0 13.1051531
2813 4 -6.3540001 -7.0450001 -10.3800001 0 0 0 2 10 3 0 0 0 13.8916026
2823 4 3.873 -21.7000008 20.1399994 0 0 0 1 10 3 0 0 0 12.6731453
2830 4 -3.596 21.3899994 10.8500004 0 0 1 2 7 5 0 0 0 13.0431108
2840 2 -4.717 18.5400009 3.737 0 0 1 2 7 3 0 0 0 11.4119358
2848 4 -2.0910001 -8.2360001 6.5520001 0 0 1 1 8 4 1 0 0 12.1538048
2850 4 -2.471 3.6170001 11.0900002 0 0 0 0 12 0 0 0 0 11.538292
2860 1 5.2589998 -1.308 -18.5799999 0 0 1 2 9 2 0 0 0 11.6437207
2864 4 -4.007 17.2199993 21.1900005 0 0 0 2 10 1 0 0 0 11.6763306
2871 5 -7.5320001 15.0500002 -13.2299996 0 0 0 4 7 1 1 0 0 12.5559235
2878 2 3.221 -7.4109998 8.8999996 0 0 0 4 4 6 0 0 0 12.4366751
2900 4 4.3390002 4.2230001 -21.3400002 0 0 0 2 8 3 0 0 0 11.7472143
2902 2 -19.4899998 -11.3800001 6.0419998 0 0 1 0 9 3 0 0 0 11.0747452
2906 4 -15.3699999 17.9799996 -20.5300007 0 0 0 2 8 5 0 0 0 12.78401
2911 4 2.823 18.4500008 -12.4099999 0 0 0 0 12 2 0 0 0 11.7632904
2929 4 -11.2700005 -13.6700001 -14.4200001 0 0 1 2 7 3 2 0 0 12.4795428
2942 4 -0.9336 -19.0400009 14.4300003 0 0 0 2 8 4 0 0 0 12.1326599
2961 4 3.346 -10.8000002 -9.6730004 0 0 0 2 8 4 0 0 0 11.8582898
2963 2 -18.2700005 -14.9799996 10.6199999 0 0 0 0 12 0 0 0 0 11.6879893
2993 4 16.1499996 21.0699997 -17.2600002 0 0 0 1 10 3 0 0 0 12.185482
2994 4 -3.1989999 -9.4209996 -0.8983 0 0 0 0 12 3 0 0 0 13.0682125
2995 2 9.5959997 -2.5390001 15.0200005 0 0 0 3 8 2 0 0 0 11.6961661
2997 2 -14.3699999 -8.0740004 -21.2000008 0 0 0 2 8 2 0 0 0 11.7328844
2999 2 19.6399994 19.9500008 0.4808 0 0 0 3 6 2 0 0 0 11.2920103
3019 4 20.4599991 16.6700001 -9.0240002 0 0 0 2 10 4 0 0 0 13.6018372
3020 5 17.5100003 5.901 -19.1700001 0 0 0 3 7 4 1 0 0 12.2073145
3021 5 -1.0650001 -10.5699997 0.5572 0 0 0 2 8 5 0 0 0 12.3005839
3024 5 -1.66 7.2859998 -21.1800003 0 0 0 2 12 1 0 0 0 12.9222508
3025 2 -18.3299999 5.8189998 1.53 0 0 0 1 10 2 0 0 0 12.1528635
3048 4 4.5679999 10.5900002 14.3900004 0 0 0 0 12 3 0 0 0 13.7571869
3056 4 15.5900002 -15.8400002 -8.6129999 0 0 0 0 12 3 0 0 0 12.5397291
3064 2 19.6100006 -14.5200005 -20.4599991 0 0 0 1 10 3 0 0 0 12.1418943
3066 2 -16.2399998 5.3600001 -12.8000002 0 0 0 0 12 0 0 0 0 11.4059467
3070 4 15.3800001 4.4549999 14.5299998 0 0 0 3 10 2 0 0 0 12.6066542
3072 4 -11.1199999 -4.6300001 -18.6000004 0 0 0 1 10 4 0 0 0 12.7166481
3083 4 -10.6999998 -10.2600002 -9.224 0 0 1 2 6 3 1 0 0 11.7902355
3109 5 -18.5 15.1300001 18.25 0 0 0 2 10 3 0 0 0 12.357914
3110 2 6.9530002 16.9699994 2.1110001 0 0 0 4 6 2 0 0 0 10.9846678
3119 5 15.1800003 10.96 13.8400002 0 0 0 0 12 2 0 0 0 12.4978199
3123 5 -20.0 -18.9300004 19.8500004 0 0 0 4 4 6 0 0 0 12.6591482
3126 2 -11.7700005 -0.7216 18.4699993 0 0 1 3 5 3 0 1 0 12.805665
3129 2 3.4330001 14.7399998 -7.184 0 0 0 2 7 1 1 0 0 11.3002558
3137 2 6.132 -3.4389999 -19.0699997 0 0 0 2 8 2 0 0 0 11.7249499
3142 2 -7.2010002 13.2200003 -17.0100002 0 0 0 0 12 2 0 0 0 12.3965368
3157 5 -16.8099995 14.6800003 -15.1999998 0 0 0 4 4 4 0 0 0 11.4840851
3169 5 -1.658 18.2399998 7.7389999 0 0 1 1 9 2 0 0 0 12.1353388
3174 4 -2.6359999 -3.685 16.5200005 0 0 2 2 7 3 1 0 0 12.3934727
3190 2 2.1199999 13.29 8.6999998 0 0 1 0 9 3 0 0 0 12.0824776
3193 2 18.6499996 2.5869999 9.3970003 0 0 1 0 9 3 0 0 0 12.2778216
3204 1 -18.7099991 16.3199997 12.7799998 0 0 0 2 8 5 0 0 0 11.9117814
3219 4 -2.862 7.0700002 18.7900009 0 0 0 4 4 5 0 0 0 11.6542321
3231 5 13.4399996 18.5200005 3.174 0 0 0 2 10 2 0 0 0 12.6311074
3238 5 6.401 -21.7999993 19.1299992 0 0 0 1 10 4 0 0 0 13.2454901
3240 1 -11.2299996 20.4500008 -3.6129999 0 0 0 0 12 0 0 0 0 10.7368717
3242 2 0.3273 0.3081 12.6599999 0 0 0 0 12 0 0 0 0 10.9727136
3248 4 -15.6000004 -6.026 6.5079999 0 0 0 0 12 3 0 0 0 13.0114355
3253 5 10.0900002 4.3080001 10.4099999 0 0 0 1 10 3 0 0 0 13.2662373
3257 4 4.829 -15.0299997 -21.3899994 0 0 0 3 6 6 0 0 0 12.0427217
3260 4 -18.2600002 -16.5900002 3.8970002 0 0 1 2 7 3 0 0 0 11.925683
3274 2 -0.1853 15.3100004 16.5599995 0 0 0 2 8 4 0 0 0 12.5385342
3278 4 18.3199997 -8.4820004 -18.6399994 0 0 1 0 11 1 0 0 0 12.2212563
3282 5 6.967 14.1700001 20.3500004 0 0 1 0 9 3 0 0 0 12.0899029
3283 4 -13.3199997 17.0799999 -21.8799992 0 0 0 3 5 4 1 0 0 12.2633925
3298 5 -2.1600001 -0.3008 8.6280003 0 0 0 0 11 1 0 0 0 11.9048004
3303 5 -3.204 -8.3389998 14.1199999 0 0 0 1 10 2 0 0 0 11.5846977
3313 2 0.4498 -8.6960001 6.342 0 0 0 0 12 0 0 0 0 12.0030117
3317 5 16.0200005 4.0770001 0.9366 0 0 0 0 12 0 0 0 0 11.3571501
3323 5 13.6499996 13.9700004 -16.3899994 0 0 1 1 8 3 1 0 0 12.0038557
3338 5 3.1210001 -5.8410002 -19.3500004 0 0 0 3 6 3 0 0 0 11.2655325