ITEM: TIMESTEP
0
ITEM: NUMBER OF ATOMS
16384
ITEM: BOX BOUNDS pp pp pp
0.0000000000000000e+00 3.0273112975330601e+01
0.0000000000000000e+00 3.0273112975330601e+01
0.0000000000000000e+00 3.0273112975330601e+01
ITEM: ATOMS id type x y z
1 4 0 0 0
2 4 0.953543 0.953543 0
3 4 2.86063 0.953543 0
4 4 2.86063 0 0.953543
5 4 1.90709 0.953543 0.953543
32 4 0.953543 1.90709 0.953543
33 4 0 2.86063 0.953543
34 4 2.86063 1.90709 0.953543
35 4 1.90709 2.86063 0.953543
522 4 2.86063 0 2.86063
523 4 1.90709 0.953543 2.86063
553 4 0.953543 2.86063 1.90709
554 4 0 2.86063 2.86063
555 4 2.86063 2.86063 1.90709
556 4 2.86063 1.90709 2.86063
557 4 1.90709 2.86063 2.86063
8193 2 0 0 0
8194 2 0.953543 0.953543 0
8195 2 0.953543 0 0.953543
8196 2 0 0.953543 0.953543
8197 2 2.86063 0 0.953543
8226 2 0 1.90709 0
8227 2 0.953543 2.86063 0
8228 2 2.86063 1.90709 0.953543
8730 2 0.953543 0.953543 1.90709
8731 2 0 0.953543 2.86063
8732 2 2.86063 0.953543 1.90709
8733 2 2.86063 0 2.86063
8734 2 1.90709 0.953543 2.86063
8760 2 1.90709 1.90709 1.90709
8761 2 2.86063 2.86063 1.90709
6 4 4.76772 0 0.953543
7 4 3.81417 0.953543 0.953543
8 4 6.6748 0.953543 0
9 4 6.6748 0 0.953543
10 4 5.72126 0.953543 0.953543
36 4 3.81417 1.90709 0
37 4 4.76772 2.86063 0
38 4 4.76772 1.90709 0.953543
39 4 3.81417 2.86063 0.953543
40 4 6.6748 2.86063 0
41 4 6.6748 1.90709 0.953543
42 4 5.72126 2.86063 0.953543
524 4 4.76772 0 2.86063
525 4 6.6748 0.953543 1.90709
526 4 6.6748 0 2.86063
527 4 5.72126 0.953543 2.86063
558 4 3.81417 1.90709 1.90709
559 4 4.76772 1.90709 2.86063
560 4 3.81417 2.86063 2.86063
561 4 5.72126 1.90709 1.90709
562 4 6.6748 2.86063 1.90709
8198 2 3.81417 0 0
8199 2 4.76772 0.953543 0
8200 2 6.6748 0.953543 0
8229 2 3.81417 1.90709 0
8230 2 4.76772 2.86063 0
8735 2 3.81417 0 1.90709
8736 2 4.76772 0 2.86063
8737 2 3.81417 0.953543 2.86063
8738 2 6.6748 0 2.86063
8739 2 5.72126 0.953543 2.86063
8762 2 4.76772 2.86063 1.90709
8763 2 4.76772 1.90709 2.86063
8764 2 5.72126 2.86063 2.86063
11 4 7.62835 0 0
12 4 7.62835 0.953543 0.953543
43 4 7.62835 1.90709 0
44 4 8.58189 2.86063 0
45 4 7.62835 2.86063 0.953543
47 4 9.53543 2.86063 0.953543
528 4 7.62835 0 1.90709
529 4 8.58189 0 2.86063
531 4 9.53543 0.953543 2.86063
563 4 8.58189 2.86063 1.90709
564 4 8.58189 1.90709 2.86063
565 4 9.53543 1.90709 1.90709
8201 2 8.58189 0 0.953543
8203 2 9.53543 0.953543 0.953543
8231 2 7.62835 1.90709 0
8232 2 8.58189 1.90709 0.953543
8740 2 7.62835 0 1.90709
8741 2 7.62835 0.953543 2.86063
8742 2 9.53543 0.953543 2.86063
8765 2 8.58189 2.86063 1.90709
8766 2 8.58189 1.90709 2.86063
8767 2 7.62835 2.86063 2.86063
8769 2 9.53543 2.86063 2.86063
13 4 11.4425 0 0
14 4 13.3496 0 0
16 4 13.3496 0.953543 0.953543
46 4 10.489 1.90709 0.953543
48 4 11.4425 1.90709 0
49 4 12.3961 2.86063 0
50 4 12.3961 1.90709 0.953543
51 4 11.4425 2.86063 0.953543
52 4 13.3496 2.86063 0.953543
530 4 10.489 0 2.86063
532 4 12.3961 0.953543 1.90709
533 4 12.3961 0 2.86063
534 4 13.3496 0 1.90709
535 4 13.3496 0.953543 2.86063
566 4 10.489 2.86063 1.90709
567 4 10.489 1.90709 2.86063
568 4 11.4425 1.90709 1.90709
569 4 12.3961 2.86063 1.90709
570 4 12.3961 1.90709 2.86063
8202 2 10.489 0 0.953543
8204 2 11.4425 0 0
8205 2 12.3961 0.953543 0
8206 2 11.4425 0.953543 0.953543
8207 2 13.3496 0 0
8233 2 10.489 2.86063 0
8234 2 12.3961 2.86063 0
8235 2 12.3961 1.90709 0.953543
8236 2 13.3496 1.90709 0
8237 2 13.3496 2.86063 0.953543
8743 2 11.4425 0 1.90709
8744 2 12.3961 0.953543 1.90709
8745 2 11.4425 0.953543 2.86063
8746 2 13.3496 0 1.90709
8768 2 10.489 2.86063 1.90709
8770 2 11.4425 1.90709 1.90709
8771 2 12.3961 2.86063 1.90709
8772 2 11.4425 2.86063 2.86063
8773 2 13.3496 1.90709 1.90709
8775 2 13.3496 2.86063 2.86063
15 4 14.3031 0 0.953543
17 4 15.2567 0 0
18 4 16.2102 0.953543 0
19 4 16.2102 0 0.953543
53 4 15.2567 1.90709 0
54 4 16.2102 2.86063 0
55 4 16.2102 1.90709 0.953543
56 4 15.2567 2.86063 0.953543
536 4 15.2567 0 1.90709
537 4 16.2102 0.953543 1.90709
538 4 16.2102 0 2.86063
539 4 15.2567 0.953543 2.86063
571 4 15.2567 1.90709 1.90709
572 4 16.2102 2.86063 1.90709
573 4 16.2102 1.90709 2.86063
574 4 15.2567 2.86063 2.86063
8208 2 14.3031 0 0.953543
8209 2 16.2102 0.953543 0
8238 2 15.2567 1.90709 0
8239 2 16.2102 2.86063 0
8747 2 14.3031 0 2.86063
8748 2 15.2567 0 1.90709
8749 2 15.2567 0.953543 2.86063
8774 2 14.3031 1.90709 2.86063
8776 2 16.2102 2.86063 1.90709
8777 2 15.2567 2.86063 2.86063
20 4 18.1173 0.953543 0
21 4 18.1173 0 0.953543
22 4 20.0244 0.953543 0
57 4 17.1638 1.90709 0
58 4 18.1173 2.86063 0
59 4 17.1638 2.86063 0.953543
60 4 20.0244 1.90709 0.953543
61 4 19.0709 2.86063 0.953543
540 4 19.0709 0 1.90709
575 4 17.1638 1.90709 1.90709
576 4 18.1173 2.86063 1.90709
577 4 17.1638 2.86063 2.86063
578 4 19.0709 2.86063 2.86063
8210 2 18.1173 0.953543 0
8211 2 18.1173 0 0.953543
8212 2 17.1638 0.953543 0.953543
8213 2 19.0709 0 0
8214 2 20.0244 0 0.953543
8215 2 19.0709 0.953543 0.953543
8240 2 18.1173 1.90709 0.953543
8241 2 17.1638 2.86063 0.953543
8242 2 20.0244 1.90709 0.953543
8750 2 18.1173 0.953543 1.90709
8751 2 18.1173 0 2.86063
8752 2 17.1638 0.953543 2.86063
8753 2 19.0709 0.953543 2.86063
8778 2 17.1638 1.90709 1.90709
8779 2 20.0244 1.90709 2.86063
8780 2 19.0709 2.86063 2.86063
23 4 20.978 0 0
24 4 21.9315 0.953543 0
62 4 21.9315 1.90709 0.953543
63 4 22.885 1.90709 0
541 4 20.978 0 1.90709
542 4 21.9315 0.953543 1.90709
545 4 22.885 0.953543 2.86063
579 4 21.9315 2.86063 1.90709
580 4 21.9315 1.90709 2.86063
581 4 20.978 2.86063 2.86063
8216 2 21.9315 0.953543 0
8217 2 20.978 0.953543 0.953543
8218 2 22.885 0 0
8220 2 22.885 0.953543 0.953543
8243 2 20.978 1.90709 0
8244 2 21.9315 2.86063 0
8245 2 22.885 1.90709 0
8754 2 21.9315 0.953543 1.90709
8755 2 21.9315 0 2.86063
8756 2 22.885 0.953543 2.86063
8781 2 21.9315 1.90709 2.86063
8782 2 20.978 2.86063 2.86063
8783 2 22.885 1.90709 1.90709
8785 2 22.885 2.86063 2.86063
25 4 23.8386 0.953543 0
26 4 25.7457 0.953543 0
27 4 26.6992 0 0
29 4 26.6992 0.953543 0.953543
64 4 23.8386 2.86063 0
65 4 23.8386 1.90709 0.953543
66 4 25.7457 2.86063 0
67 4 25.7457 1.90709 0.953543
68 4 26.6992 1.90709 0
543 4 23.8386 0.953543 1.90709
544 4 23.8386 0 2.86063
546 4 24.7921 0 1.90709
547 4 25.7457 0.953543 1.90709
548 4 25.7457 0 2.86063
549 4 24.7921 0.953543 2.86063
550 4 26.6992 0.953543 2.86063
582 4 23.8386 2.86063 1.90709
583 4 24.7921 1.90709 1.90709
584 4 25.7457 2.86063 1.90709
8219 2 23.8386 0.953543 0
8221 2 24.7921 0 0
8222 2 25.7457 0 0.953543
8223 2 24.7921 0.953543 0.953543
8246 2 23.8386 1.90709 0.953543
8247 2 24.7921 1.90709 0
8248 2 25.7457 2.86063 0
8249 2 25.7457 1.90709 0.953543
8250 2 24.7921 2.86063 0.953543
8251 2 26.6992 1.90709 0
8757 2 24.7921 0 1.90709
8758 2 25.7457 0 2.86063
8784 2 23.8386 2.86063 1.90709
8786 2 24.7921 2.86063 2.86063
8787 2 26.6992 1.90709 1.90709
28 4 27.6528 0 0.953543
30 4 28.6063 0 0
31 4 29.5598 0.953543 0
69 4 27.6528 2.86063 0
70 4 28.6063 1.90709 0
71 4 29.5598 2.86063 0
72 4 28.6063 2.86063 0.953543
551 4 28.6063 0 1.90709
552 4 28.6063 0.953543 2.86063
585 4 27.6528 1.90709 2.86063
586 4 29.5598 2.86063 1.90709
8224 2 27.6528 0 0.953543
8225 2 28.6063 0 0
8252 2 28.6063 1.90709 0
8253 2 29.5598 2.86063 0
8254 2 29.5598 1.90709 0.953543
8255 2 28.6063 2.86063 0.953543
8759 2 29.5598 0.953543 1.90709
8788 2 27.6528 1.90709 2.86063
8789 2 29.5598 2.86063 1.90709
73 4 0.953543 3.81417 0.953543
74 4 2.86063 3.81417 0.953543
75 4 1.90709 4.76772 0.953543
98 4 0.953543 6.6748 0
99 4 0.953543 5.72126 0.953543
100 4 0 6.6748 0.953543
101 4 1.90709 5.72126 0
102 4 2.86063 6.6748 0
103 4 2.86063 5.72126 0.953543
587 4 0 3.81417 1.90709
588 4 0.953543 4.76772 1.90709
589 4 0.953543 3.81417 2.86063
590 4 2.86063 4.76772 1.90709
591 4 1.90709 4.76772 2.86063
611 4 0 6.6748 2.86063
612 4 2.86063 6.6748 1.90709
8256 2 0.953543 3.81417 0.953543
8257 2 0 4.76772 0.953543
8258 2 1.90709 3.81417 0
8259 2 2.86063 4.76772 0
8295 2 0 5.72126 0
8296 2 1.90709 5.72126 0
8297 2 2.86063 6.6748 0
8298 2 2.86063 5.72126 0.953543
8790 2 0 3.81417 1.90709
8791 2 0.953543 3.81417 2.86063
8792 2 0 4.76772 2.86063
8793 2 1.90709 3.81417 1.90709
8794 2 2.86063 4.76772 1.90709
8795 2 1.90709 4.76772 2.86063
8824 2 0 5.72126 1.90709
8825 2 0.953543 6.6748 1.90709
8826 2 1.90709 5.72126 1.90709
76 4 5.72126 3.81417 0
77 4 6.6748 3.81417 0.953543
104 4 3.81417 5.72126 0
105 4 4.76772 5.72126 0.953543
106 4 6.6748 6.6748 0
107 4 6.6748 5.72126 0.953543
613 4 3.81417 5.72126 1.90709
614 4 4.76772 6.6748 1.90709
615 4 3.81417 6.6748 2.86063
616 4 6.6748 6.6748 1.90709
617 4 5.72126 6.6748 2.86063
8260 2 3.81417 3.81417 0
8261 2 4.76772 3.81417 0.953543
8262 2 3.81417 4.76772 0.953543
8263 2 5.72126 3.81417 0
8264 2 5.72126 4.76772 0.953543
8299 2 3.81417 5.72126 0
8300 2 4.76772 6.6748 0
8301 2 5.72126 5.72126 0
8302 2 6.6748 6.6748 0
8303 2 5.72126 6.6748 0.953543
8796 2 4.76772 3.81417 2.86063
8797 2 3.81417 4.76772 2.86063
8798 2 6.6748 4.76772 1.90709
8799 2 5.72126 4.76772 2.86063
8827 2 3.81417 5.72126 1.90709
8828 2 4.76772 6.6748 1.90709
8829 2 6.6748 6.6748 1.90709
8830 2 5.72126 6.6748 2.86063
78 4 8.58189 3.81417 0.953543
108 4 9.53543 5.72126 0
592 4 7.62835 3.81417 1.90709
593 4 8.58189 3.81417 2.86063
594 4 9.53543 3.81417 1.90709
618 4 9.53543 5.72126 1.90709
8265 2 7.62835 3.81417 0
8266 2 8.58189 4.76772 0
8267 2 8.58189 3.81417 0.953543
8268 2 9.53543 3.81417 0
8304 2 8.58189 6.6748 0
8305 2 8.58189 5.72126 0.953543
8800 2 7.62835 4.76772 2.86063
8831 2 7.62835 5.72126 1.90709
8832 2 7.62835 6.6748 2.86063
79 4 10.489 4.76772 0
80 4 10.489 3.81417 0.953543
81 4 11.4425 3.81417 0
82 4 12.3961 3.81417 0.953543
83 4 13.3496 4.76772 0.953543
109 4 10.489 6.6748 0
110 4 10.489 5.72126 0.953543
111 4 11.4425 5.72126 0
112 4 12.3961 5.72126 0.953543
113 4 11.4425 6.6748 0.953543
114 4 13.3496 5.72126 0
117 4 13.3496 6.6748 0.953543
595 4 10.489 4.76772 1.90709
596 4 11.4425 3.81417 1.90709
597 4 12.3961 3.81417 2.86063
598 4 13.3496 3.81417 1.90709
619 4 10.489 5.72126 2.86063
620 4 12.3961 6.6748 1.90709
622 4 13.3496 6.6748 2.86063
8269 2 10.489 4.76772 0
8270 2 10.489 3.81417 0.953543
8271 2 12.3961 4.76772 0
8272 2 11.4425 4.76772 0.953543
8273 2 13.3496 4.76772 0.953543
8306 2 10.489 6.6748 0
8307 2 12.3961 6.6748 0
8308 2 11.4425 6.6748 0.953543
8309 2 13.3496 5.72126 0
8311 2 13.3496 6.6748 0.953543
8801 2 10.489 4.76772 1.90709
8802 2 10.489 3.81417 2.86063
8803 2 11.4425 4.76772 2.86063
8804 2 13.3496 3.81417 1.90709
8833 2 12.3961 6.6748 1.90709
84 4 16.2102 3.81417 0.953543
115 4 14.3031 6.6748 0
116 4 14.3031 5.72126 0.953543
118 4 15.2567 6.6748 0.953543
599 4 14.3031 4.76772 1.90709
600 4 14.3031 3.81417 2.86063
601 4 16.2102 4.76772 1.90709
602 4 15.2567 4.76772 2.86063
621 4 14.3031 6.6748 1.90709
623 4 15.2567 5.72126 1.90709
624 4 16.2102 6.6748 1.90709
625 4 15.2567 6.6748 2.86063
8274 2 15.2567 3.81417 0
8275 2 16.2102 4.76772 0
8276 2 15.2567 4.76772 0.953543
8310 2 14.3031 5.72126 0.953543
8312 2 15.2567 5.72126 0
8313 2 16.2102 6.6748 0
8805 2 16.2102 4.76772 1.90709
8806 2 16.2102 3.81417 2.86063
8807 2 15.2567 4.76772 2.86063
8834 2 14.3031 6.6748 1.90709
8835 2 15.2567 5.72126 1.90709
8836 2 16.2102 6.6748 1.90709
8837 2 15.2567 6.6748 2.86063
85 4 18.1173 4.76772 0
86 4 17.1638 4.76772 0.953543
87 4 20.0244 3.81417 0.953543
88 4 19.0709 4.76772 0.953543
119 4 17.1638 5.72126 0
120 4 18.1173 6.6748 0
121 4 18.1173 5.72126 0.953543
122 4 17.1638 6.6748 0.953543
123 4 19.0709 5.72126 0
124 4 20.0244 5.72126 0.953543
603 4 17.1638 3.81417 1.90709
626 4 17.1638 5.72126 1.90709
627 4 18.1173 5.72126 2.86063
628 4 19.0709 5.72126 1.90709
629 4 20.0244 6.6748 1.90709
630 4 19.0709 6.6748 2.86063
8277 2 17.1638 3.81417 0
8278 2 18.1173 4.76772 0
8279 2 18.1173 3.81417 0.953543
8280 2 17.1638 4.76772 0.953543
8281 2 19.0709 3.81417 0
8282 2 20.0244 4.76772 0
8283 2 20.0244 3.81417 0.953543
8314 2 17.1638 5.72126 0
8315 2 18.1173 5.72126 0.953543
8316 2 19.0709 5.72126 0
8808 2 17.1638 4.76772 2.86063
8809 2 20.0244 4.76772 1.90709
8810 2 20.0244 3.81417 2.86063
8811 2 19.0709 4.76772 2.86063
8838 2 18.1173 6.6748 1.90709
8839 2 19.0709 5.72126 1.90709
8840 2 20.0244 6.6748 1.90709
8841 2 20.0244 5.72126 2.86063
8842 2 19.0709 6.6748 2.86063
89 4 21.9315 3.81417 0.953543
90 4 20.978 4.76772 0.953543
92 4 22.885 4.76772 0.953543
127 4 22.885 6.6748 0.953543
604 4 20.978 3.81417 1.90709
605 4 22.885 4.76772 2.86063
631 4 21.9315 5.72126 2.86063
632 4 20.978 6.6748 2.86063
633 4 22.885 5.72126 1.90709
8284 2 21.9315 4.76772 0
8285 2 22.885 3.81417 0
8317 2 20.978 5.72126 0
8318 2 20.978 6.6748 0.953543
8812 2 20.978 3.81417 1.90709
8813 2 21.9315 4.76772 1.90709
8814 2 21.9315 3.81417 2.86063
8815 2 20.978 4.76772 2.86063
8816 2 22.885 3.81417 1.90709
8819 2 22.885 4.76772 2.86063
8843 2 21.9315 6.6748 1.90709
8844 2 20.978 6.6748 2.86063
8845 2 22.885 6.6748 2.86063
91 4 23.8386 4.76772 0
93 4 24.7921 4.76772 0.953543
94 4 26.6992 3.81417 0
125 4 23.8386 6.6748 0
126 4 23.8386 5.72126 0.953543
128 4 24.7921 5.72126 0
129 4 25.7457 5.72126 0.953543
130 4 26.6992 5.72126 0
606 4 25.7457 3.81417 2.86063
607 4 24.7921 4.76772 2.86063
608 4 26.6992 4.76772 2.86063
634 4 24.7921 6.6748 2.86063
636 4 26.6992 6.6748 2.86063
8286 2 25.7457 4.76772 0
8287 2 25.7457 3.81417 0.953543
8288 2 24.7921 4.76772 0.953543
8289 2 26.6992 3.81417 0
8291 2 26.6992 4.76772 0.953543
8319 2 25.7457 5.72126 0.953543
8320 2 24.7921 6.6748 0.953543
8321 2 26.6992 5.72126 0
8322 2 26.6992 6.6748 0.953543
8817 2 23.8386 4.76772 1.90709
8818 2 23.8386 3.81417 2.86063
8820 2 25.7457 3.81417 2.86063
8821 2 26.6992 4.76772 2.86063
8846 2 24.7921 6.6748 2.86063
8847 2 26.6992 5.72126 1.90709
8850 2 26.6992 6.6748 2.86063
95 4 28.6063 3.81417 0
96 4 29.5598 4.76772 0
97 4 28.6063 4.76772 0.953543
131 4 29.5598 6.6748 0
609 4 28.6063 3.81417 1.90709
610 4 29.5598 4.76772 1.90709
635 4 27.6528 6.6748 1.90709
637 4 28.6063 5.72126 1.90709
638 4 29.5598 5.72126 2.86063
639 4 28.6063 6.6748 2.86063
8290 2 27.6528 4.76772 0
8292 2 28.6063 3.81417 0
8293 2 29.5598 4.76772 0
8294 2 28.6063 4.76772 0.953543
8323 2 28.6063 5.72126 0
8324 2 29.5598 6.6748 0
8325 2 28.6063 6.6748 0.953543
8822 2 29.5598 4.76772 1.90709
8823 2 29.5598 3.81417 2.86063
8848 2 27.6528 6.6748 1.90709
8849 2 27.6528 5.72126 2.86063
8851 2 29.5598 6.6748 1.90709
132 4 0.953543 8.58189 0
133 4 2.86063 8.58189 0
160 4 0 9.53543 0
162 4 0.953543 9.53543 0.953543
164 4 1.90709 9.53543 0
165 4 2.86063 9.53543 0.953543
640 4 0.953543 8.58189 1.90709
641 4 0.953543 7.62835 2.86063
642 4 0 8.58189 2.86063
643 4 2.86063 7.62835 2.86063
672 4 0 9.53543 1.90709
673 4 0.953543 9.53543 2.86063
675 4 1.90709 9.53543 1.90709
677 4 2.86063 9.53543 2.86063
8326 2 0.953543 8.58189 0
8327 2 0.953543 7.62835 0.953543
8328 2 0 8.58189 0.953543
8329 2 1.90709 7.62835 0
8330 2 2.86063 8.58189 0
8331 2 2.86063 7.62835 0.953543
8332 2 1.90709 8.58189 0.953543
8366 2 0 9.53543 0
8368 2 0.953543 9.53543 0.953543
8370 2 1.90709 9.53543 0
8372 2 2.86063 9.53543 0.953543
8852 2 0 7.62835 1.90709
8853 2 0.953543 8.58189 1.90709
8854 2 0.953543 7.62835 2.86063
8855 2 0 8.58189 2.86063
8856 2 1.90709 7.62835 1.90709
8857 2 2.86063 8.58189 1.90709
8858 2 2.86063 7.62835 2.86063
8859 2 1.90709 8.58189 2.86063
8880 2 0 9.53543 1.90709
8881 2 0.953543 9.53543 2.86063
8883 2 1.90709 9.53543 1.90709
8885 2 2.86063 9.53543 2.86063
134 4 4.76772 7.62835 0.953543
135 4 5.72126 8.58189 0.953543
167 4 4.76772 9.53543 0.953543
169 4 6.6748 9.53543 0.953543
644 4 6.6748 7.62835 2.86063
645 4 5.72126 8.58189 2.86063
679 4 3.81417 9.53543 1.90709
681 4 4.76772 9.53543 2.86063
682 4 5.72126 9.53543 1.90709
8333 2 3.81417 7.62835 0
8334 2 4.76772 8.58189 0
8335 2 3.81417 8.58189 0.953543
8336 2 6.6748 8.58189 0
8374 2 3.81417 9.53543 0
8377 2 6.6748 9.53543 0.953543
8860 2 4.76772 8.58189 1.90709
8861 2 3.81417 8.58189 2.86063
8862 2 5.72126 8.58189 2.86063
8886 2 3.81417 9.53543 1.90709
136 4 7.62835 8.58189 0.953543
137 4 9.53543 7.62835 0
171 4 7.62835 9.53543 0
173 4 8.58189 9.53543 0.953543
175 4 9.53543 9.53543 0
646 4 8.58189 7.62835 2.86063
647 4 7.62835 8.58189 2.86063
649 4 9.53543 8.58189 2.86063
685 4 7.62835 9.53543 1.90709
687 4 8.58189 9.53543 2.86063
688 4 9.53543 9.53543 1.90709
8337 2 8.58189 8.58189 0
8338 2 8.58189 7.62835 0.953543
8339 2 7.62835 8.58189 0.953543
8340 2 9.53543 7.62835 0
8342 2 9.53543 8.58189 0.953543
8378 2 7.62835 9.53543 0
8380 2 8.58189 9.53543 0.953543
8863 2 8.58189 8.58189 1.90709
8864 2 9.53543 7.62835 1.90709
8890 2 7.62835 9.53543 1.90709
138 4 10.489 8.58189 0
139 4 11.4425 7.62835 0
140 4 12.3961 8.58189 0
142 4 13.3496 8.58189 0.953543
177 4 11.4425 9.53543 0
648 4 10.489 7.62835 2.86063
650 4 12.3961 7.62835 2.86063
651 4 11.4425 8.58189 2.86063
653 4 13.3496 8.58189 2.86063
690 4 10.489 9.53543 2.86063
692 4 12.3961 9.53543 2.86063
8341 2 10.489 7.62835 0.953543
8343 2 12.3961 8.58189 0
8344 2 12.3961 7.62835 0.953543
8345 2 11.4425 8.58189 0.953543
8346 2 13.3496 8.58189 0.953543
8383 2 10.489 9.53543 0.953543
8385 2 12.3961 9.53543 0.953543
8386 2 13.3496 9.53543 0
8865 2 10.489 7.62835 2.86063
8866 2 11.4425 7.62835 1.90709
8867 2 12.3961 8.58189 1.90709
8868 2 13.3496 7.62835 1.90709
8893 2 10.489 9.53543 2.86063
8894 2 11.4425 9.53543 1.90709
8897 2 13.3496 9.53543 1.90709
141 4 14.3031 8.58189 0
143 4 16.2102 7.62835 0.953543
144 4 15.2567 8.58189 0.953543
652 4 14.3031 8.58189 1.90709
654 4 15.2567 7.62835 1.90709
655 4 16.2102 8.58189 1.90709
656 4 16.2102 7.62835 2.86063
694 4 16.2102 9.53543 2.86063
8347 2 16.2102 8.58189 0
8348 2 15.2567 8.58189 0.953543
8869 2 14.3031 8.58189 1.90709
8870 2 16.2102 8.58189 1.90709
145 4 18.1173 8.58189 0
146 4 18.1173 7.62835 0.953543
147 4 17.1638 8.58189 0.953543
148 4 19.0709 7.62835 0
149 4 20.0244 8.58189 0
150 4 19.0709 8.58189 0.953543
180 4 17.1638 9.53543 0
183 4 19.0709 9.53543 0
657 4 17.1638 7.62835 1.90709
658 4 18.1173 8.58189 1.90709
659 4 20.0244 8.58189 1.90709
696 4 18.1173 9.53543 2.86063
8349 2 18.1173 7.62835 0.953543
8350 2 17.1638 8.58189 0.953543
8351 2 20.0244 8.58189 0
8352 2 19.0709 8.58189 0.953543
8390 2 18.1173 9.53543 0.953543
8391 2 19.0709 9.53543 0
8393 2 20.0244 9.53543 0.953543
8871 2 18.1173 8.58189 1.90709
8872 2 18.1173 7.62835 2.86063
8873 2 17.1638 8.58189 2.86063
8874 2 20.0244 8.58189 1.90709
8875 2 20.0244 7.62835 2.86063
8876 2 19.0709 8.58189 2.86063
8900 2 18.1173 9.53543 2.86063
8902 2 19.0709 9.53543 1.90709
151 4 21.9315 8.58189 0
152 4 22.885 7.62835 0
154 4 22.885 8.58189 0.953543
184 4 20.978 9.53543 0
660 4 20.978 7.62835 1.90709
661 4 21.9315 8.58189 1.90709
662 4 22.885 7.62835 1.90709
698 4 20.978 9.53543 1.90709
701 4 22.885 9.53543 1.90709
8353 2 20.978 7.62835 0
8354 2 21.9315 7.62835 0.953543
8355 2 20.978 8.58189 0.953543
8356 2 22.885 7.62835 0
8358 2 22.885 8.58189 0.953543
8395 2 22.885 9.53543 0
8905 2 21.9315 9.53543 2.86063
8906 2 22.885 9.53543 1.90709
153 4 23.8386 8.58189 0
155 4 24.7921 7.62835 0
156 4 25.7457 7.62835 0.953543
157 4 24.7921 8.58189 0.953543
158 4 26.6992 7.62835 0
186 4 23.8386 9.53543 0.953543
188 4 25.7457 9.53543 0.953543
663 4 23.8386 8.58189 1.90709
664 4 24.7921 7.62835 1.90709
665 4 25.7457 7.62835 2.86063
666 4 24.7921 8.58189 2.86063
667 4 26.6992 7.62835 1.90709
702 4 24.7921 9.53543 1.90709
704 4 25.7457 9.53543 2.86063
705 4 26.6992 9.53543 1.90709
8357 2 23.8386 7.62835 0.953543
8359 2 25.7457 7.62835 0.953543
8360 2 24.7921 8.58189 0.953543
8396 2 23.8386 9.53543 0.953543
8398 2 24.7921 9.53543 0
8399 2 25.7457 9.53543 0.953543
8401 2 26.6992 9.53543 0
8877 2 23.8386 7.62835 2.86063
8878 2 24.7921 7.62835 1.90709
8908 2 23.8386 9.53543 2.86063
8909 2 24.7921 9.53543 1.90709
8911 2 25.7457 9.53543 2.86063
159 4 28.6063 8.58189 0.953543
192 4 29.5598 9.53543 0.953543
668 4 27.6528 8.58189 1.90709
669 4 27.6528 7.62835 2.86063
670 4 29.5598 7.62835 2.86063
671 4 28.6063 8.58189 2.86063
707 4 27.6528 9.53543 2.86063
709 4 28.6063 9.53543 1.90709
8361 2 27.6528 8.58189 0
8362 2 28.6063 7.62835 0
8363 2 29.5598 8.58189 0
8364 2 29.5598 7.62835 0.953543
8365 2 28.6063 8.58189 0.953543
8879 2 29.5598 7.62835 2.86063
8914 2 27.6528 9.53543 2.86063
8916 2 28.6063 9.53543 1.90709
8917 2 29.5598 9.53543 2.86063
161 4 0.953543 10.489 0
163 4 0 10.489 0.953543
193 4 0.953543 12.3961 0
194 4 0.953543 11.4425 0.953543
195 4 0 12.3961 0.953543
196 4 1.90709 11.4425 0
197 4 2.86063 12.3961 0
230 4 0 13.3496 0
232 4 0.953543 13.3496 0.953543
235 4 2.86063 13.3496 0.953543
674 4 0 10.489 2.86063
676 4 2.86063 10.489 1.90709
678 4 1.90709 10.489 2.86063
711 4 0 11.4425 1.90709
712 4 0.953543 12.3961 1.90709
713 4 1.90709 11.4425 1.90709
714 4 1.90709 12.3961 2.86063
747 4 0 13.3496 1.90709
749 4 0.953543 13.3496 2.86063
750 4 1.90709 13.3496 1.90709
751 4 2.86063 13.3496 2.86063
8367 2 0.953543 10.489 0
8369 2 0 10.489 0.953543
8371 2 2.86063 10.489 0
8373 2 1.90709 10.489 0.953543
8404 2 1.90709 11.4425 0
8405 2 1.90709 12.3961 0.953543
8431 2 0 13.3496 0
8433 2 0.953543 13.3496 0.953543
8436 2 2.86063 13.3496 0.953543
8882 2 0 10.489 2.86063
8884 2 2.86063 10.489 1.90709
8918 2 0 11.4425 1.90709
8919 2 0.953543 12.3961 1.90709
8920 2 1.90709 11.4425 1.90709
8921 2 2.86063 12.3961 1.90709
8922 2 2.86063 11.4425 2.86063
8952 2 0 13.3496 1.90709
8955 2 2.86063 13.3496 2.86063
166 4 4.76772 10.489 0
168 4 3.81417 10.489 0.953543
170 4 5.72126 10.489 0.953543
198 4 3.81417 11.4425 0
199 4 4.76772 12.3961 0
200 4 4.76772 11.4425 0.953543
201 4 3.81417 12.3961 0.953543
202 4 5.72126 11.4425 0
203 4 6.6748 12.3961 0
204 4 6.6748 11.4425 0.953543
237 4 4.76772 13.3496 0.953543
239 4 5.72126 13.3496 0
240 4 6.6748 13.3496 0.953543
680 4 4.76772 10.489 1.90709
683 4 6.6748 10.489 1.90709
684 4 5.72126 10.489 2.86063
715 4 4.76772 12.3961 1.90709
716 4 4.76772 11.4425 2.86063
717 4 3.81417 12.3961 2.86063
718 4 5.72126 11.4425 1.90709
719 4 6.6748 12.3961 1.90709
720 4 5.72126 12.3961 2.86063
754 4 6.6748 13.3496 2.86063
8375 2 4.76772 10.489 0
8376 2 6.6748 10.489 0
8406 2 3.81417 11.4425 0
8407 2 4.76772 12.3961 0
8408 2 5.72126 11.4425 0
8409 2 5.72126 12.3961 0.953543
8437 2 3.81417 13.3496 0
8439 2 4.76772 13.3496 0.953543
8887 2 4.76772 10.489 1.90709
8888 2 6.6748 10.489 1.90709
8889 2 5.72126 10.489 2.86063
8923 2 3.81417 11.4425 1.90709
8924 2 4.76772 12.3961 1.90709
8925 2 4.76772 11.4425 2.86063
8926 2 5.72126 11.4425 1.90709
8927 2 6.6748 12.3961 1.90709
8956 2 3.81417 13.3496 1.90709
8957 2 4.76772 13.3496 2.86063
8959 2 6.6748 13.3496 2.86063
172 4 8.58189 10.489 0
174 4 7.62835 10.489 0.953543
176 4 9.53543 10.489 0.953543
205 4 8.58189 12.3961 0
206 4 8.58189 11.4425 0.953543
208 4 9.53543 12.3961 0.953543
243 4 8.58189 13.3496 0.953543
686 4 8.58189 10.489 1.90709
721 4 7.62835 11.4425 1.90709
722 4 7.62835 12.3961 2.86063
755 4 7.62835 13.3496 1.90709
8379 2 8.58189 10.489 0
8381 2 7.62835 10.489 0.953543
8410 2 7.62835 11.4425 0
8411 2 8.58189 12.3961 0
8412 2 7.62835 12.3961 0.953543
8413 2 9.53543 11.4425 0
8441 2 8.58189 13.3496 0.953543
8891 2 8.58189 10.489 1.90709
8928 2 7.62835 11.4425 1.90709
8929 2 8.58189 11.4425 2.86063
8962 2 9.53543 13.3496 1.90709
178 4 12.3961 10.489 0
207 4 10.489 12.3961 0
209 4 11.4425 11.4425 0
210 4 12.3961 12.3961 0
245 4 11.4425 13.3496 0
246 4 12.3961 13.3496 0.953543
689 4 10.489 10.489 1.90709
691 4 12.3961 10.489 1.90709
693 4 11.4425 10.489 2.86063
723 4 10.489 12.3961 1.90709
724 4 10.489 11.4425 2.86063
725 4 12.3961 11.4425 2.86063
726 4 11.4425 12.3961 2.86063
759 4 11.4425 13.3496 1.90709
8382 2 10.489 10.489 0
8384 2 12.3961 10.489 0
8414 2 10.489 11.4425 0.953543
8415 2 12.3961 12.3961 0
8416 2 12.3961 11.4425 0.953543
8417 2 13.3496 11.4425 0
8443 2 10.489 13.3496 0.953543
8445 2 12.3961 13.3496 0.953543
8446 2 13.3496 13.3496 0
8892 2 10.489 10.489 1.90709
8895 2 12.3961 10.489 1.90709
8896 2 11.4425 10.489 2.86063
8930 2 10.489 12.3961 1.90709
8931 2 10.489 11.4425 2.86063
8932 2 11.4425 12.3961 2.86063
8933 2 13.3496 11.4425 1.90709
8935 2 13.3496 12.3961 2.86063
8965 2 13.3496 13.3496 1.90709
179 4 14.3031 10.489 0
211 4 14.3031 12.3961 0
212 4 15.2567 11.4425 0
213 4 16.2102 12.3961 0
214 4 16.2102 11.4425 0.953543
215 4 15.2567 12.3961 0.953543
248 4 14.3031 13.3496 0.953543
695 4 15.2567 10.489 2.86063
727 4 14.3031 12.3961 1.90709
728 4 15.2567 11.4425 1.90709
729 4 16.2102 12.3961 1.90709
730 4 16.2102 11.4425 2.86063
761 4 14.3031 13.3496 2.86063
763 4 16.2102 13.3496 2.86063
8387 2 14.3031 10.489 0
8388 2 15.2567 10.489 0.953543
8418 2 14.3031 11.4425 0.953543
8419 2 15.2567 11.4425 0
8420 2 16.2102 11.4425 0.953543
8447 2 15.2567 13.3496 0
8898 2 16.2102 10.489 1.90709
8934 2 14.3031 12.3961 1.90709
8936 2 16.2102 12.3961 1.90709
8966 2 15.2567 13.3496 1.90709
8967 2 16.2102 13.3496 2.86063
181 4 18.1173 10.489 0
182 4 17.1638 10.489 0.953543
216 4 18.1173 12.3961 0
217 4 18.1173 11.4425 0.953543
218 4 19.0709 11.4425 0
219 4 20.0244 11.4425 0.953543
251 4 17.1638 13.3496 0
252 4 19.0709 13.3496 0
253 4 20.0244 13.3496 0.953543
697 4 19.0709 10.489 2.86063
731 4 17.1638 11.4425 1.90709
732 4 18.1173 11.4425 2.86063
733 4 17.1638 12.3961 2.86063
734 4 19.0709 11.4425 1.90709
735 4 20.0244 12.3961 1.90709
765 4 17.1638 13.3496 1.90709
766 4 18.1173 13.3496 2.86063
8389 2 18.1173 10.489 0
8392 2 20.0244 10.489 0
8421 2 17.1638 11.4425 0
8422 2 18.1173 12.3961 0
8423 2 18.1173 11.4425 0.953543
8424 2 19.0709 11.4425 0
8425 2 20.0244 12.3961 0
8449 2 17.1638 13.3496 0
8450 2 18.1173 13.3496 0.953543
8451 2 19.0709 13.3496 0
8453 2 20.0244 13.3496 0.953543
8899 2 18.1173 10.489 1.90709
8901 2 17.1638 10.489 2.86063
8903 2 20.0244 10.489 1.90709
8904 2 19.0709 10.489 2.86063
8937 2 17.1638 11.4425 1.90709
8938 2 18.1173 12.3961 1.90709
8939 2 18.1173 11.4425 2.86063
8940 2 17.1638 12.3961 2.86063
8941 2 20.0244 12.3961 1.90709
8942 2 20.0244 11.4425 2.86063
8968 2 17.1638 13.3496 1.90709
8972 2 20.0244 13.3496 2.86063
185 4 20.978 10.489 0.953543
220 4 20.978 11.4425 0
221 4 21.9315 12.3961 0
699 4 21.9315 10.489 1.90709
700 4 20.978 10.489 2.86063
736 4 21.9315 12.3961 1.90709
737 4 21.9315 11.4425 2.86063
738 4 20.978 12.3961 2.86063
739 4 22.885 11.4425 1.90709
769 4 20.978 13.3496 1.90709
8394 2 20.978 10.489 0.953543
8397 2 22.885 10.489 0.953543
8426 2 21.9315 12.3961 0
8427 2 20.978 12.3961 0.953543
8428 2 22.885 12.3961 0.953543
8454 2 20.978 13.3496 0
8456 2 22.885 13.3496 0
8943 2 20.978 11.4425 1.90709
8946 2 22.885 12.3961 2.86063
187 4 25.7457 10.489 0
189 4 24.7921 10.489 0.953543
222 4 23.8386 12.3961 0
223 4 23.8386 11.4425 0.953543
224 4 24.7921 11.4425 0
225 4 24.7921 12.3961 0.953543
226 4 26.6992 11.4425 0
228 4 26.6992 12.3961 0.953543
256 4 23.8386 13.3496 0.953543
703 4 25.7457 10.489 1.90709
708 4 26.6992 10.489 2.86063
740 4 23.8386 12.3961 1.90709
741 4 25.7457 11.4425 2.86063
742 4 24.7921 12.3961 2.86063
770 4 23.8386 13.3496 2.86063
772 4 24.7921 13.3496 1.90709
8400 2 24.7921 10.489 0.953543
8429 2 25.7457 11.4425 0.953543
8907 2 23.8386 10.489 1.90709
8910 2 25.7457 10.489 1.90709
8912 2 24.7921 10.489 2.86063
8915 2 26.6992 10.489 2.86063
8944 2 23.8386 12.3961 1.90709
8945 2 23.8386 11.4425 2.86063
8947 2 24.7921 11.4425 1.90709
8948 2 25.7457 11.4425 2.86063
8949 2 26.6992 11.4425 1.90709
8950 2 26.6992 12.3961 2.86063
8977 2 25.7457 13.3496 2.86063
190 4 27.6528 10.489 0
191 4 29.5598 10.489 0
227 4 27.6528 12.3961 0
229 4 29.5598 12.3961 0
259 4 29.5598 13.3496 0.953543
706 4 27.6528 10.489 1.90709
710 4 29.5598 10.489 1.90709
743 4 27.6528 12.3961 1.90709
744 4 27.6528 11.4425 2.86063
745 4 29.5598 12.3961 1.90709
746 4 29.5598 11.4425 2.86063
775 4 27.6528 13.3496 2.86063
776 4 28.6063 13.3496 1.90709
8402 2 27.6528 10.489 0
8403 2 29.5598 10.489 0
8430 2 27.6528 12.3961 0
8913 2 27.6528 10.489 1.90709
8951 2 29.5598 11.4425 2.86063
8978 2 27.6528 13.3496 2.86063
231 4 0.953543 14.3031 0
233 4 0 14.3031 0.953543
234 4 2.86063 14.3031 0
236 4 1.90709 14.3031 0.953543
260 4 0 15.2567 0
261 4 0.953543 16.2102 0
262 4 0 16.2102 0.953543
263 4 1.90709 15.2567 0
264 4 2.86063 16.2102 0
265 4 2.86063 15.2567 0.953543
266 4 1.90709 16.2102 0.953543
748 4 0.953543 14.3031 1.90709
778 4 0 15.2567 1.90709
779 4 0.953543 16.2102 1.90709
780 4 0 16.2102 2.86063
781 4 1.90709 15.2567 1.90709
782 4 1.90709 16.2102 2.86063
8432 2 0.953543 14.3031 0
8434 2 0 14.3031 0.953543
8435 2 2.86063 14.3031 0
8463 2 0.953543 16.2102 0
8464 2 0.953543 15.2567 0.953543
8465 2 0 16.2102 0.953543
8466 2 1.90709 15.2567 0
8953 2 0.953543 14.3031 1.90709
8954 2 2.86063 14.3031 1.90709
8981 2 0 15.2567 1.90709
8982 2 0.953543 15.2567 2.86063
8983 2 0 16.2102 2.86063
8984 2 1.90709 15.2567 1.90709
8985 2 2.86063 16.2102 1.90709
238 4 3.81417 14.3031 0.953543
241 4 5.72126 14.3031 0.953543
267 4 3.81417 15.2567 0
268 4 4.76772 15.2567 0.953543
269 4 5.72126 15.2567 0
270 4 6.6748 16.2102 0
271 4 5.72126 16.2102 0.953543
752 4 4.76772 14.3031 1.90709
753 4 6.6748 14.3031 1.90709
783 4 4.76772 15.2567 2.86063
784 4 5.72126 16.2102 2.86063
8438 2 4.76772 14.3031 0
8440 2 3.81417 14.3031 0.953543
8467 2 3.81417 15.2567 0
8468 2 4.76772 16.2102 0
8469 2 4.76772 15.2567 0.953543
8470 2 5.72126 15.2567 0
8958 2 6.6748 14.3031 1.90709
8960 2 5.72126 14.3031 2.86063
8986 2 3.81417 15.2567 1.90709
8987 2 4.76772 16.2102 1.90709
8988 2 4.76772 15.2567 2.86063
8989 2 3.81417 16.2102 2.86063
8990 2 6.6748 16.2102 1.90709
8991 2 6.6748 15.2567 2.86063
242 4 8.58189 14.3031 0
244 4 7.62835 14.3031 0.953543
272 4 7.62835 16.2102 0.953543
275 4 9.53543 16.2102 0.953543
756 4 8.58189 14.3031 1.90709
757 4 7.62835 14.3031 2.86063
758 4 9.53543 14.3031 2.86063
785 4 7.62835 15.2567 1.90709
786 4 8.58189 16.2102 1.90709
787 4 7.62835 16.2102 2.86063
788 4 9.53543 15.2567 1.90709
8471 2 8.58189 15.2567 0.953543
8472 2 7.62835 16.2102 0.953543
8961 2 7.62835 14.3031 2.86063
8964 2 9.53543 14.3031 2.86063
8992 2 7.62835 15.2567 1.90709
8993 2 7.62835 16.2102 2.86063
8996 2 9.53543 16.2102 2.86063
249 4 13.3496 14.3031 0.953543
273 4 10.489 16.2102 0